#     DFTpy    
  CRYSTAL 
    
  PRIMVEC    
  1.7801618432327606    -3.0833307581746006    0.0    
  1.7801618432327606    3.0833307581746006    0.0    
  0.0    0.0    3.3508401022758605    
  PRIMCOORD    
  1    1    
  Si    0.0    0.0    0.0    
  BEGIN_BLOCK_DATAGRID_3D    
  3d_datagrid_density    
  BEGIN_DATAGRID_3D#0    
  37    37    33    
  0.0    0.0    0.0    
  1.7801618498727982    -3.083330769675483    0.0    
  1.7801618498727982    3.083330769675483    0.0    
  0.0    0.0    3.350840114774558    
  0.06013346661842963    0.0676667921791501    0.09221258478510533    0.13738864246047305    0.20211433849792151    
  0.2742065178925515    0.332441760267905    0.35882744897841473    0.34968958820888685    0.3149315516591068    
  0.26883916121839535    0.22245091412313125    0.18161638832301652    0.14840981814840054    0.12291476474355843    
  0.10437711142738533    0.09186715114577804    0.08464376952903113    0.08228019179572507    0.08464376952903116    
  0.09186715114577804    0.10437711142738534    0.12291476474355843    0.14840981814840049    0.18161638832301652    
  0.2224509141231313    0.26883916121839535    0.3149315516591068    0.34968958820888685    0.3588274489784147    
  0.332441760267905    0.27420651789255157    0.20211433849792146    0.13738864246047308    0.09221258478510531    
  0.0676667921791501    0.06013346661842963    0.06766679217915006    0.0676667921791501    0.08374237828263002    
  0.11890208535481728    0.1747425695815749    0.24447893697734513    0.31036053456626006    0.3516837312549353    
  0.35776770114847717    0.3330063546407643    0.2906132167075963    0.24348927730559372    0.19973959929082527    
  0.1629322003644986    0.13390468167004604    0.11220218309390365    0.09692455124505735    0.08721578798857714    
  0.08249625104653531    0.08249625104653532    0.08721578798857714    0.09692455124505736    0.11220218309390363    
  0.13390468167004607    0.16293220036449857    0.1997395992908253    0.24348927730559372    0.2906132167075964    
  0.3330063546407642    0.3577677011484772    0.3516837312549353    0.31036053456626017    0.24447893697734513    
  0.17474256958157486    0.11890208535481728    0.08374237828263002    0.06766679217915006    0.09221258478510524    
  0.08374237828262997    0.09221258478510533    0.11890208535481728    0.1654350556638337    0.22812798998832315    
  0.293569274945804    0.342225037820829    0.35961807226961207    0.34468031273180566    0.3076320075733822    
  0.26158303621829515    0.21626292653984244    0.1767123951933333    0.14465438628771693    0.12006320003845537    
  0.10217712676776791    0.09009653887269731    0.08311530682213365    0.08082991259065438    0.08311530682213365    
  0.09009653887269732    0.10217712676776788    0.12006320003845534    0.1446543862877169    0.1767123951933333    
  0.2162629265398424    0.26158303621829515    0.3076320075733822    0.34468031273180566    0.3596180722696121    
  0.342225037820829    0.293569274945804    0.22812798998832312    0.1654350556638337    0.11890208535481728    
  0.09221258478510524    0.13738864246047303    0.11890208535481724    0.11890208535481728    0.13738864246047305    
  0.1747425695815749    0.22812798998832315    0.2873808794901926    0.33591891610385327    0.3587318806364269    
  0.3510468471589083    0.3194630336769543    0.2757555361581197    0.23020914550539456    0.18895875623735456    
  0.1545847704310574    0.12756298915153183    0.10736262498366994    0.09312215130374044    0.0840565202335258    
  0.07964415234948458    0.07964415234948458    0.08405652023352582    0.09312215130374041    0.10736262498366993    
  0.1275629891515318    0.15458477043105745    0.1889587562373545    0.23020914550539456    0.27575553615811965    
  0.3194630336769543    0.35104684715890827    0.358731880636427    0.3359189161038532    0.28738087949019264    
  0.22812798998832312    0.1747425695815749    0.13738864246047303    0.2021143384979215    0.17474256958157489    
  0.16543505566383374    0.17474256958157489    0.2021143384979215    0.24447893697734513    0.293569274945804    
  0.33591891610385327    0.35805838986197613    0.35368065787208    0.32628914927079133    0.2854130697739047    
  0.24076635979477087    0.19892488213716486    0.163107780479047    0.1342771580861386    0.11218995612340588    
  0.09609907165696956    0.08520245145517963    0.07889192593802712    0.07682391973248912    0.0788919259380271    
  0.0852024514551796    0.0960990716569695    0.1121899561234059    0.13427715808613863    0.16310778047904703    
  0.19892488213716486    0.2407663597947708    0.2854130697739046    0.32628914927079133    0.35368065787208    
  0.3580583898619762    0.33591891610385327    0.2935692749458041    0.24447893697734513    0.2021143384979215    
  0.2742065178925515    0.24447893697734505    0.22812798998832312    0.22812798998832307    0.24447893697734518    
  0.27420651789255146    0.31036053456626006    0.342225037820829    0.3587318806364269    0.3536806578720799    
  0.3285021340774542    0.2902841876204151    0.24734056803120297    0.20597185298023063    0.16967456599945985    
  0.13978679620961768    0.11636117918394454    0.09882177895833302    0.08641499786435092    0.07849238493385573    
  0.07462977323062338    0.0746297732306234    0.07849238493385566    0.08641499786435092    0.09882177895833304    
  0.11636117918394456    0.13978679620961768    0.16967456599945993    0.20597185298023063    0.24734056803120294    
  0.290284187620415    0.32850213407745427    0.35368065787207986    0.3587318806364269    0.34222503782082897    
  0.3103605345662601    0.2742065178925515    0.332441760267905    0.3103605345662601    0.2935692749458041    
  0.28738087949019264    0.29356927494580404    0.3103605345662601    0.332441760267905    0.3516837312549353    
  0.35961807226961207    0.3510468471589083    0.32628914927079133    0.29028418762041514    0.24957213352936897    
  0.20962397293471183    0.1738250128303495    0.1437126043508111    0.11959288158741772    0.10108816855384328    
  0.08754979666507859    0.07834376876692078    0.07299979836115866    0.07124724955116817    0.07299979836115861    
  0.07834376876692073    0.0875497966650786    0.10108816855384332    0.11959288158741772    0.1437126043508111    
  0.1738250128303495    0.20962397293471172    0.24957213352936897    0.2902841876204151    0.32628914927079133    
  0.35104684715890827    0.35961807226961207    0.35168373125493524    0.332441760267905    0.3588274489784147    
  0.35168373125493524    0.34222503782082897    0.33591891610385327    0.3359189161038532    0.342225037820829    
  0.35168373125493524    0.3588274489784148    0.3577677011484772    0.34468031273180566    0.3194630336769543    
  0.2854130697739046    0.24734056803120294    0.2096239729347118    0.17524585813925825    0.1457581099423476    
  0.12164335680161764    0.10271699171725758    0.08847171995939386    0.07833987020947071    0.07184931684629543    
  0.06868231843186336    0.0686823184318633    0.0718493168462954    0.07833987020947067    0.08847171995939386    
  0.10271699171725757    0.1216433568016177    0.1457581099423476    0.17524585813925825    0.20962397293471172    
  0.24734056803120297    0.2854130697739046    0.3194630336769543    0.34468031273180566    0.3577677011484772    
  0.3588274489784147    0.34968958820888685    0.35776770114847717    0.35961807226961207    0.3587318806364269    
  0.3580583898619762    0.3587318806364269    0.35961807226961207    0.3577677011484772    0.3496895882088868    
  0.3330063546407642    0.3076320075733822    0.2757555361581197    0.24076635979477087    0.20597185298023063    
  0.1738250128303495    0.1457581099423476    0.12234667544402764    0.1035693178838223    0.08907157857761461    
  0.0783891737991736    0.07109257715842555    0.06685240101979328    0.0654625228421958    0.06685240101979326    
  0.07109257715842555    0.07838917379917357    0.08907157857761461    0.10356931788382231    0.12234667544402766    
  0.14575810994234756    0.17382501283034946    0.20597185298023063    0.24076635979477082    0.27575553615811965    
  0.3076320075733823    0.3330063546407641    0.34968958820888685    0.3149315516591068    0.3330063546407641    
  0.3446803127318056    0.35104684715890827    0.35368065787208    0.35368065787208    0.35104684715890827    
  0.34468031273180566    0.33300635464076417    0.31493155165910675    0.2906132167075963    0.26158303621829515    
  0.23020914550539456    0.19892488213716486    0.16967456599945985    0.1437126043508111    0.12164335680161764    
  0.1035693178838223    0.08927948062812628    0.07842895298100314    0.07066341983545306    0.06567884220012447    
  0.06324856419654507    0.06324856419654505    0.06567884220012445    0.0706634198354531    0.07842895298100312    
  0.0892794806281263    0.1035693178838223    0.12164335680161763    0.14371260435081107    0.1696745659994599    
  0.19892488213716483    0.23020914550539456    0.26158303621829515    0.2906132167075964    0.3149315516591068    
  0.2688391612183954    0.2906132167075963    0.3076320075733823    0.3194630336769543    0.32628914927079133    
  0.32850213407745427    0.3262891492707913    0.31946303367695433    0.3076320075733822    0.2906132167075964    
  0.26883916121839535    0.24348927730559372    0.2162629265398424    0.18895875623735453    0.163107780479047    
  0.13978679620961768    0.1195928815874177    0.10271699171725757    0.08907157857761461    0.07842895298100314    
  0.07052421408826538    0.06510567790963011    0.06195752624585685    0.06092691159375709    0.06195752624585685    
  0.06510567790963008    0.07052421408826541    0.07842895298100315    0.08907157857761469    0.10271699171725754    
  0.1195928815874177    0.1397867962096177    0.163107780479047    0.1889587562373545    0.2162629265398424    
  0.24348927730559372    0.2688391612183954    0.2224509141231312    0.24348927730559372    0.26158303621829515    
  0.2757555361581197    0.2854130697739046    0.290284187620415    0.290284187620415    0.28541306977390474    
  0.2757555361581197    0.2615830362182951    0.24348927730559372    0.2224509141231312    0.19973959929082527    
  0.17671239519333326    0.1545847704310574    0.13427715808613863    0.11636117918394454    0.10108816855384328    
  0.08847171995939386    0.0783891737991736    0.07066341983545306    0.06510567790963008    0.061533641765460154    
  0.059793275626400924    0.05979327562640094    0.06153364176546018    0.06510567790963008    0.0706634198354531    
  0.07838917379917357    0.08847171995939382    0.10108816855384328    0.1163611791839446    0.13427715808613858    
  0.15458477043105745    0.17671239519333318    0.19973959929082527    0.2224509141231312    0.18161638832301655    
  0.19973959929082527    0.2162629265398424    0.23020914550539456    0.24076635979477087    0.24734056803120294    
  0.24957213352936897    0.24734056803120297    0.24076635979477082    0.23020914550539456    0.2162629265398424    
  0.1997395992908253    0.18161638832301652    0.1629322003644986    0.1446543862877169    0.12756298915153183    
  0.1121899561234059    0.09882177895833302    0.08754979666507859    0.07833987020947071    0.07109257715842557    
  0.06567884220012446    0.061957526245856834    0.05979327562640092    0.05908457086996829    0.059793275626400966    
  0.06195752624585687    0.06567884220012443    0.07109257715842557    0.0783398702094707    0.08754979666507859    
  0.09882177895833305    0.11218995612340588    0.12756298915153177    0.14465438628771693    0.16293220036449857    
  0.18161638832301655    0.1484098181484005    0.1629322003644986    0.17671239519333323    0.18895875623735447    
  0.19892488213716483    0.20597185298023066    0.20962397293471177    0.20962397293471177    0.2059718529802306    
  0.19892488213716486    0.1889587562373545    0.17671239519333326    0.16293220036449857    0.14840981814840054    
  0.13390468167004604    0.12006320003845539    0.10736262498366994    0.09609907165696953    0.08641499786435092    
  0.07834376876692078    0.07184931684629543    0.06685240101979327    0.06324856419654505    0.06092691159375709    
  0.05979327562640095    0.059793275626400966    0.060926911593757106    0.06324856419654509    0.06685240101979328    
  0.07184931684629546    0.07834376876692077    0.08641499786435093    0.09609907165696956    0.1073626249836699    
  0.12006320003845534    0.13390468167004604    0.1484098181484005    0.12291476474355846    0.13390468167004602    
  0.1446543862877169    0.1545847704310574    0.16310778047904706    0.16967456599945988    0.1738250128303495    
  0.17524585813925833    0.17382501283034948    0.1696745659994599    0.16310778047904703    0.15458477043105745    
  0.1446543862877169    0.13390468167004607    0.12291476474355843    0.1122021830939037    0.10217712676776793    
  0.09312215130374045    0.08520245145517963    0.07849238493385573    0.07299979836115866    0.06868231843186336    
  0.0654625228421958    0.06324856419654502    0.06195752624585687    0.06153364176546019    0.06195752624585687    
  0.0632485641965451    0.0654625228421958    0.06868231843186338    0.07299979836115861    0.07849238493385571    
  0.08520245145517964    0.09312215130374041    0.10217712676776791    0.11220218309390363    0.12291476474355846    
  0.10437711142738536    0.11220218309390367    0.12006320003845534    0.1275629891515318    0.1342771580861386    
  0.13978679620961765    0.14371260435081107    0.1457581099423476    0.1457581099423476    0.14371260435081107    
  0.13978679620961768    0.1342771580861386    0.12756298915153183    0.12006320003845541    0.11220218309390365    
  0.10437711142738534    0.09692455124505736    0.09009653887269731    0.08405652023352582    0.07889192593802712    
  0.07462977323062338    0.0712472495511682    0.06868231843186332    0.06685240101979324    0.06567884220012446    
  0.06510567790963011    0.06510567790963008    0.0656788422001245    0.06685240101979324    0.06868231843186329    
  0.07124724955116814    0.07462977323062338    0.07889192593802705    0.08405652023352575    0.09009653887269728    
  0.09692455124505736    0.10437711142738536    0.09186715114577805    0.09692455124505735    0.10217712676776793    
  0.10736262498366993    0.11218995612340588    0.11636117918394456    0.1195928815874177    0.1216433568016177    
  0.12234667544402764    0.12164335680161764    0.1195928815874177    0.11636117918394456    0.1121899561234059    
  0.10736262498366994    0.1021771267677679    0.09692455124505736    0.09186715114577805    0.08721578798857714    
  0.08311530682213365    0.07964415234948459    0.07682391973248912    0.07462977323062338    0.07299979836115864    
  0.07184931684629539    0.07109257715842558    0.07066341983545307    0.07052421408826538    0.07066341983545309    
  0.07109257715842555    0.07184931684629546    0.07299979836115861    0.07462977323062339    0.07682391973248907    
  0.07964415234948456    0.08311530682213362    0.08721578798857713    0.09186715114577805    0.08464376952903116    
  0.08721578798857714    0.09009653887269731    0.09312215130374045    0.09609907165696953    0.09882177895833304    
  0.10108816855384323    0.1027169917172576    0.1035693178838223    0.1035693178838223    0.10271699171725755    
  0.1010881685538433    0.09882177895833301    0.09609907165696956    0.09312215130374045    0.09009653887269733    
  0.08721578798857714    0.08464376952903113    0.08249625104653532    0.08082991259065438    0.07964415234948458    
  0.07889192593802709    0.07849238493385567    0.07834376876692073    0.0783398702094707    0.07838917379917358    
  0.07842895298100314    0.07842895298100312    0.07838917379917358    0.0783398702094707    0.07834376876692072    
  0.07849238493385573    0.07889192593802707    0.07964415234948456    0.08082991259065433    0.08249625104653531    
  0.08464376952903116    0.0822801917957251    0.08249625104653531    0.08311530682213365    0.08405652023352579    
  0.08520245145517963    0.08641499786435092    0.08754979666507856    0.08847171995939386    0.08907157857761464    
  0.08927948062812628    0.08907157857761461    0.08847171995939386    0.0875497966650786    0.08641499786435093    
  0.0852024514551796    0.08405652023352582    0.08311530682213368    0.08249625104653531    0.08228019179572509    
  0.08249625104653534    0.08311530682213368    0.08405652023352582    0.0852024514551796    0.08641499786435089    
  0.0875497966650786    0.08847171995939387    0.08907157857761461    0.08927948062812628    0.08907157857761464    
  0.08847171995939386    0.08754979666507856    0.08641499786435093    0.08520245145517963    0.08405652023352579    
  0.08311530682213365    0.08249625104653531    0.0822801917957251    0.08464376952903116    0.08249625104653531    
  0.08082991259065432    0.07964415234948458    0.07889192593802707    0.07849238493385569    0.07834376876692073    
  0.07833987020947068    0.0783891737991736    0.07842895298100314    0.07842895298100312    0.07838917379917357    
  0.07833987020947067    0.07834376876692077    0.07849238493385569    0.07889192593802709    0.07964415234948458    
  0.08082991259065435    0.08249625104653532    0.08464376952903116    0.08721578798857714    0.09009653887269733    
  0.09312215130374044    0.09609907165696953    0.09882177895833302    0.1010881685538433    0.10271699171725755    
  0.10356931788382233    0.10356931788382233    0.10271699171725758    0.10108816855384326    0.09882177895833304    
  0.09609907165696953    0.09312215130374044    0.09009653887269731    0.08721578798857713    0.08464376952903116    
  0.09186715114577805    0.08721578798857713    0.08311530682213362    0.07964415234948458    0.07682391973248907    
  0.07462977323062338    0.07299979836115862    0.07184931684629546    0.07109257715842557    0.07066341983545309    
  0.07052421408826538    0.07066341983545307    0.07109257715842558    0.07184931684629546    0.07299979836115865    
  0.07462977323062338    0.07682391973248912    0.07964415234948456    0.08311530682213365    0.08721578798857715    
  0.09186715114577805    0.09692455124505736    0.1021771267677679    0.10736262498366993    0.11218995612340588    
  0.11636117918394459    0.1195928815874177    0.1216433568016177    0.12234667544402766    0.1216433568016177    
  0.11959288158741767    0.11636117918394459    0.11218995612340588    0.10736262498366993    0.10217712676776793    
  0.09692455124505732    0.09186715114577805    0.10437711142738533    0.09692455124505735    0.09009653887269731    
  0.08405652023352582    0.07889192593802709    0.07462977323062338    0.07124724955116814    0.06868231843186334    
  0.06685240101979327    0.06567884220012443    0.06510567790963008    0.0651056779096301    0.06567884220012445    
  0.06685240101979327    0.06868231843186332    0.07124724955116817    0.0746297732306234    0.07889192593802709    
  0.0840565202335258    0.09009653887269733    0.09692455124505736    0.10437711142738532    0.11220218309390363    
  0.12006320003845537    0.1275629891515318    0.13427715808613863    0.13978679620961768    0.14371260435081112    
  0.1457581099423476    0.1457581099423476    0.14371260435081107    0.13978679620961768    0.13427715808613855    
  0.12756298915153175    0.12006320003845537    0.11220218309390367    0.10437711142738533    0.12291476474355846    
  0.11220218309390365    0.10217712676776791    0.09312215130374044    0.08520245145517964    0.07849238493385571    
  0.07299979836115862    0.0686823184318634    0.0654625228421958    0.06324856419654509    0.06195752624585687    
  0.06153364176546019    0.06195752624585687    0.06324856419654508    0.0654625228421958    0.06868231843186336    
  0.07299979836115868    0.0784923849338557    0.08520245145517963    0.09312215130374048    0.10217712676776791    
  0.11220218309390367    0.12291476474355843    0.13390468167004602    0.1446543862877169    0.15458477043105748    
  0.16310778047904703    0.1696745659994599    0.17382501283034948    0.1752458581392583    0.1738250128303495    
  0.16967456599945985    0.16310778047904706    0.1545847704310574    0.1446543862877169    0.13390468167004607    
  0.12291476474355846    0.14840981814840054    0.13390468167004604    0.12006320003845537    0.10736262498366993    
  0.09609907165696956    0.0864149978643509    0.07834376876692077    0.0718493168462954    0.06685240101979326    
  0.06324856419654507    0.06092691159375714    0.059793275626400966    0.05979327562640094    0.06092691159375714    
  0.06324856419654505    0.06685240101979327    0.07184931684629542    0.07834376876692074    0.08641499786435092    
  0.09609907165696956    0.10736262498366993    0.12006320003845537    0.13390468167004602    0.14840981814840049    
  0.16293220036449857    0.1767123951933333    0.18895875623735447    0.19892488213716492    0.2059718529802306    
  0.20962397293471174    0.20962397293471172    0.2059718529802306    0.19892488213716483    0.1889587562373545    
  0.17671239519333323    0.1629322003644986    0.14840981814840054    0.18161638832301655    0.16293220036449857    
  0.14465438628771693    0.1275629891515318    0.11218995612340588    0.09882177895833304    0.08754979666507856    
  0.0783398702094707    0.07109257715842555    0.06567884220012443    0.061957526245856896    0.059793275626400966    
  0.05908457086996829    0.059793275626400966    0.061957526245856834    0.06567884220012443    0.07109257715842557    
  0.07833987020947067    0.08754979666507859    0.09882177895833305    0.1121899561234059    0.1275629891515318    
  0.1446543862877169    0.16293220036449857    0.18161638832301652    0.19973959929082533    0.2162629265398424    
  0.23020914550539456    0.24076635979477082    0.24734056803120297    0.24957213352936897    0.24734056803120294    
  0.24076635979477087    0.23020914550539456    0.2162629265398424    0.19973959929082527    0.18161638832301655    
  0.2224509141231312    0.19973959929082527    0.17671239519333323    0.15458477043105745    0.13427715808613855    
  0.11636117918394459    0.10108816855384326    0.08847171995939386    0.07838917379917358    0.0706634198354531    
  0.06510567790963008    0.06153364176546017    0.05979327562640094    0.059793275626400966    0.061533641765460154    
  0.06510567790963008    0.07066341983545306    0.07838917379917357    0.08847171995939386    0.10108816855384328    
  0.11636117918394454    0.13427715808613858    0.15458477043105742    0.1767123951933332    0.19973959929082527    
  0.2224509141231313    0.24348927730559367    0.26158303621829515    0.27575553615811965    0.2854130697739046    
  0.290284187620415    0.2902841876204151    0.2854130697739046    0.27575553615811965    0.26158303621829515    
  0.24348927730559367    0.2224509141231312    0.2688391612183954    0.24348927730559372    0.21626292653984244    
  0.18895875623735453    0.16310778047904703    0.1397867962096177    0.1195928815874177    0.10271699171725757    
  0.08907157857761469    0.07842895298100315    0.0705242140882654    0.0651056779096301    0.06195752624585685    
  0.06092691159375715    0.06195752624585685    0.06510567790963008    0.07052421408826538    0.07842895298100312    
  0.08907157857761461    0.1027169917172576    0.11959288158741772    0.13978679620961768    0.163107780479047    
  0.1889587562373545    0.2162629265398424    0.24348927730559378    0.26883916121839535    0.2906132167075964    
  0.3076320075733822    0.31946303367695433    0.32628914927079133    0.32850213407745427    0.32628914927079133    
  0.3194630336769543    0.30763200757338227    0.2906132167075963    0.2688391612183954    0.3149315516591068    
  0.2906132167075963    0.26158303621829515    0.23020914550539456    0.19892488213716483    0.1696745659994599    
  0.14371260435081107    0.1216433568016177    0.1035693178838223    0.08927948062812628    0.07842895298100311    
  0.07066341983545307    0.06567884220012445    0.0632485641965451    0.06324856419654505    0.06567884220012446    
  0.07066341983545307    0.07842895298100312    0.08927948062812628    0.10356931788382233    0.12164335680161764    
  0.1437126043508111    0.16967456599945988    0.19892488213716483    0.23020914550539456    0.26158303621829515    
  0.2906132167075964    0.31493155165910686    0.33300635464076417    0.3446803127318056    0.35104684715890827    
  0.3536806578720799    0.35368065787208    0.3510468471589083    0.3446803127318056    0.3330063546407642    
  0.3149315516591068    0.34968958820888685    0.3330063546407641    0.3076320075733823    0.27575553615811965    
  0.24076635979477082    0.20597185298023063    0.1738250128303495    0.1457581099423476    0.12234667544402766    
  0.10356931788382233    0.08907157857761461    0.07838917379917358    0.07109257715842555    0.06685240101979331    
  0.0654625228421958    0.06685240101979327    0.07109257715842555    0.07838917379917357    0.08907157857761461    
  0.10356931788382233    0.12234667544402764    0.1457581099423476    0.1738250128303495    0.2059718529802306    
  0.24076635979477087    0.27575553615811965    0.3076320075733822    0.3330063546407642    0.3496895882088868    
  0.3577677011484771    0.35961807226961207    0.3587318806364269    0.3580583898619762    0.3587318806364269    
  0.35961807226961207    0.3577677011484772    0.34968958820888685    0.3588274489784147    0.3577677011484772    
  0.3446803127318056    0.3194630336769543    0.2854130697739046    0.24734056803120294    0.20962397293471174    
  0.1752458581392583    0.1457581099423476    0.12164335680161764    0.10271699171725755    0.08847171995939386    
  0.07833987020947067    0.07184931684629545    0.0686823184318633    0.06868231843186334    0.07184931684629543    
  0.07833987020947067    0.08847171995939386    0.1027169917172576    0.12164335680161764    0.1457581099423476    
  0.17524585813925822    0.20962397293471172    0.24734056803120294    0.28541306977390474    0.3194630336769543    
  0.34468031273180566    0.3577677011484772    0.3588274489784147    0.35168373125493524    0.342225037820829    
  0.3359189161038532    0.33591891610385327    0.34222503782082897    0.35168373125493524    0.3588274489784147    
  0.332441760267905    0.35168373125493524    0.35961807226961207    0.3510468471589083    0.32628914927079133    
  0.290284187620415    0.24957213352936897    0.20962397293471177    0.1738250128303495    0.1437126043508111    
  0.11959288158741772    0.1010881685538433    0.0875497966650786    0.07834376876692077    0.07299979836115861    
  0.07124724955116818    0.07299979836115866    0.07834376876692076    0.08754979666507859    0.10108816855384331    
  0.11959288158741772    0.1437126043508111    0.1738250128303495    0.20962397293471174    0.24957213352936897    
  0.29028418762041514    0.32628914927079133    0.3510468471589083    0.35961807226961207    0.35168373125493524    
  0.332441760267905    0.31036053456626017    0.293569274945804    0.28738087949019264    0.2935692749458041    
  0.31036053456626017    0.332441760267905    0.2742065178925515    0.3103605345662601    0.34222503782082897    
  0.3587318806364269    0.3536806578720799    0.32850213407745416    0.290284187620415    0.24734056803120297    
  0.2059718529802306    0.1696745659994599    0.13978679620961768    0.11636117918394459    0.09882177895833304    
  0.08641499786435095    0.07849238493385566    0.07462977323062338    0.07462977323062338    0.0784923849338557    
  0.08641499786435092    0.09882177895833304    0.11636117918394454    0.13978679620961768    0.16967456599945985    
  0.20597185298023063    0.24734056803120294    0.29028418762041514    0.32850213407745416    0.35368065787208    
  0.3587318806364269    0.34222503782082897    0.31036053456626    0.27420651789255157    0.24447893697734518    
  0.22812798998832315    0.22812798998832312    0.24447893697734513    0.2742065178925515    0.2021143384979215    
  0.2444789369773451    0.2935692749458041    0.3359189161038532    0.3580583898619762    0.35368065787207986    
  0.3262891492707913    0.28541306977390474    0.2407663597947708    0.19892488213716486    0.16310778047904703    
  0.1342771580861386    0.1121899561234059    0.09609907165696956    0.0852024514551796    0.0788919259380271    
  0.07682391973248912    0.07889192593802709    0.08520245145517963    0.09609907165696957    0.11218995612340588    
  0.1342771580861386    0.163107780479047    0.1989248821371648    0.24076635979477087    0.2854130697739047    
  0.32628914927079133    0.35368065787208    0.35805838986197613    0.3359189161038532    0.293569274945804    
  0.24447893697734513    0.2021143384979215    0.1747425695815749    0.16543505566383374    0.17474256958157489    
  0.2021143384979215    0.13738864246047305    0.17474256958157489    0.22812798998832312    0.28738087949019264    
  0.33591891610385327    0.35873188063642697    0.3510468471589082    0.3194630336769544    0.27575553615811965    
  0.23020914550539456    0.18895875623735447    0.15458477043105745    0.12756298915153183    0.10736262498366997    
  0.09312215130374041    0.0840565202335258    0.07964415234948458    0.07964415234948456    0.08405652023352582    
  0.09312215130374048    0.10736262498366993    0.1275629891515318    0.1545847704310574    0.1889587562373545    
  0.23020914550539456    0.2757555361581197    0.3194630336769543    0.3510468471589084    0.3587318806364269    
  0.3359189161038532    0.28738087949019264    0.22812798998832307    0.17474256958157489    0.13738864246047305    
  0.11890208535481725    0.1189020853548173    0.13738864246047305    0.09221258478510524    0.11890208535481724    
  0.1654350556638337    0.22812798998832312    0.293569274945804    0.34222503782082897    0.35961807226961207    