#     DFTpy    
  CRYSTAL 
    
  PRIMVEC    
  1.4277440163998802    -2.4729251766070406    0.0    
  1.4277440163998802    2.4729251766070406    0.0    
  0.0    0.0    2.6874758180689704    
  PRIMCOORD    
  1    1    
  Si    0.0    0.0    0.0    
  BEGIN_BLOCK_DATAGRID_3D    
  3d_datagrid_density    
  BEGIN_DATAGRID_3D#0    
  28    28    26    
  0.0    0.0    0.0    
  1.4277440217253927    -2.4729251858310985    0.0    
  1.4277440217253927    2.4729251858310985    0.0    
  0.0    0.0    2.6874758280933064    
  0.05415545126701028    0.062353613275207796    0.08957807328595628    0.14065202956437378    0.21384391979512016    
  0.2930650000873562    0.35311697782522217    0.3768553200682711    0.3658455133134316    0.3345597020024389    
  0.2982983515701977    0.26682360028406055    0.24462711824700983    0.23330979313179898    0.23330979313179898    
  0.24462711824700983    0.2668236002840605    0.29829835157019763    0.3345597020024389    0.36584551331343157    
  0.3768553200682711    0.35311697782522217    0.2930650000873562    0.21384391979512016    0.14065202956437378    
  0.08957807328595625    0.062353613275207845    0.05415545126701028    0.062353613275207845    0.062353613275207796    
  0.08011367745009101    0.11967235366247886    0.1829916219593939    0.26078602602452783    0.3308783228457648    
  0.37097807545101075    0.374077310853132    0.3499382039861094    0.31440336462756757    0.27986126441160547    
  0.25291173846142945    0.23620812038493239    0.23058415699200904    0.23620812038493233    0.25291173846142945    
  0.2798612644116054    0.3144033646275675    0.3499382039861094    0.3740773108531319    0.3709780754510107    
  0.33087832284576485    0.2607860260245278    0.1829916219593939    0.11967235366247879    0.08011367745009106    
  0.062353613275207845    0.08957807328595628    0.08011367745009101    0.08957807328595631    0.11967235366247879    
  0.17243700183664862    0.24269308165232023    0.31327963817234156    0.3619926837930139    0.3762497253496547    
  0.35998481748123073    0.3270851921008357    0.2911133380663931    0.26048895992260973    0.23905334283515808    
  0.22815930657606182    0.2281593065760618    0.23905334283515808    0.26048895992260973    0.29111333806639317    
  0.3270851921008357    0.35998481748123073    0.3762497253496547    0.36199268379301397    0.3132796381723415    
  0.24269308165232029    0.17243700183664862    0.11967235366247879    0.08957807328595628    0.1406520295643738    
  0.11967235366247882    0.11967235366247889    0.14065202956437378    0.1829916219593939    0.24269308165232037    
  0.3066787737279243    0.3557137647698615    0.3755217674730008    0.3653976279114531    0.33584914193805665    
  0.29986296047377653    0.26681626066647995    0.2415762086279671    0.2260737275768159    0.22087450121745208    
  0.22607372757681585    0.24157620862796716    0.26681626066648    0.29986296047377653    0.33584914193805665    
  0.3653976279114531    0.3755217674730008    0.35571376476986144    0.30667877372792435    0.24269308165232029    
  0.18299162195939392    0.1406520295643738    0.21384391979512016    0.1829916219593939    0.17243700183664873    
  0.18299162195939392    0.21384391979512016    0.26078602602452783    0.31327963817234156    0.3557137647698615    
  0.37487729721900037    0.3675650554042005    0.34082132403927895    0.3057265479789663    0.27149600741853874    
  0.24355220880577286    0.22433417521385107    0.21464834634649943    0.21464834634649937    0.22433417521385107    
  0.24355220880577286    0.27149600741853874    0.3057265479789663    0.34082132403927895    0.3675650554042005    
  0.3748772972190003    0.3557137647698615    0.3132796381723415    0.2607860260245278    0.21384391979512016    
  0.29306500008735614    0.2607860260245278    0.24269308165232029    0.24269308165232029    0.26078602602452783    
  0.2930650000873562    0.33087832284576485    0.36199268379301397    0.3755217674730008    0.3675650554042005    
  0.3424086667062984    0.3086313272784748    0.27433062562607197    0.2448666952687806    0.22297894099957688    
  0.20971469581670013    0.20529418945374694    0.2097146958167002    0.22297894099957694    0.24486669526878055    
  0.274330625626072    0.3086313272784748    0.34240866670629844    0.3675650554042005    0.3755217674730008    
  0.36199268379301397    0.3308783228457648    0.29306500008735614    0.35311697782522217    0.3308783228457648    
  0.31327963817234156    0.3066787737279244    0.3132796381723415    0.3308783228457648    0.35311697782522217    
  0.3709780754510107    0.3762497253496546    0.3653976279114531    0.34082132403927895    0.3086313272784748    
  0.2752746210767596    0.24550997733442342    0.22209732722590442    0.2062774327979839    0.19837891462050003    
  0.1983789146205001    0.2062774327979839    0.22209732722590436    0.24550997733442342    0.2752746210767596    
  0.3086313272784748    0.34082132403927895    0.3653976279114531    0.3762497253496546    0.3709780754510107    
  0.35311697782522217    0.3768553200682711    0.3709780754510108    0.36199268379301397    0.3557137647698615    
  0.3557137647698615    0.36199268379301397    0.3709780754510108    0.3768553200682711    0.3740773108531319    
  0.35998481748123073    0.33584914193805665    0.3057265479789663    0.2743306256260719    0.24550997733442342    
  0.22178886921347563    0.2045074369154612    0.19414134659353777    0.1907038194994273    0.19414134659353782    
  0.20450743691546114    0.22178886921347557    0.24550997733442342    0.2743306256260719    0.3057265479789663    
  0.33584914193805665    0.35998481748123073    0.3740773108531319    0.3768553200682711    0.36584551331343157    
  0.374077310853132    0.3762497253496546    0.3755217674730008    0.3748772972190004    0.3755217674730009    
  0.3762497253496546    0.3740773108531319    0.3658455133134317    0.3499382039861094    0.3270851921008357    
  0.29986296047377653    0.27149600741853874    0.24486669526878055    0.22209732722590442    0.20450743691546117    
  0.1927145724873027    0.1868465016029955    0.18684650160299546    0.19271457248730267    0.2045074369154612    
  0.22209732722590442    0.24486669526878055    0.2714960074185388    0.2998629604737766    0.3270851921008357    
  0.3499382039861094    0.36584551331343157    0.334559702002439    0.3499382039861094    0.3599848174812308    
  0.3653976279114531    0.3675650554042005    0.3675650554042005    0.3653976279114531    0.35998481748123073    
  0.3499382039861094    0.33455970200243895    0.3144033646275675    0.2911133380663931    0.26681626066647995    
  0.24355220880577286    0.22297894099957688    0.2062774327979839    0.19414134659353777    0.18684650160299546    
  0.18442159535146763    0.18684650160299546    0.1941413465935378    0.20627743279798397    0.22297894099957688    
  0.24355220880577286    0.26681626066647995    0.2911133380663931    0.3144033646275675    0.334559702002439    
  0.29829835157019763    0.31440336462756757    0.32708519210083575    0.3358491419380567    0.34082132403927895    
  0.3424086667062983    0.34082132403927895    0.33584914193805665    0.3270851921008357    0.3144033646275675    
  0.2982983515701977    0.27986126441160547    0.2604889599226097    0.24157620862796716    0.22433417521385107    
  0.20971469581670016    0.19837891462050009    0.19070381949942736    0.18684650160299546    0.18684650160299546    
  0.1907038194994273    0.1983789146205001    0.2097146958167002    0.22433417521385107    0.2415762086279671    
  0.2604889599226097    0.2798612644116054    0.29829835157019763    0.2668236002840605    0.2798612644116054    
  0.2911133380663932    0.2998629604737766    0.3057265479789663    0.3086313272784748    0.3086313272784748    
  0.3057265479789663    0.29986296047377653    0.29111333806639317    0.2798612644116054    0.26682360028406055    
  0.25291173846142945    0.2390533428351581    0.22607372757681585    0.21464834634649937    0.20529418945374694    
  0.19837891462050009    0.1941413465935378    0.19271457248730264    0.1941413465935378    0.1983789146205002    
  0.20529418945374697    0.21464834634649943    0.22607372757681593    0.23905334283515808    0.25291173846142945    
  0.2668236002840605    0.2446271182470099    0.2529117384614294    0.2604889599226098    0.26681626066648    
  0.27149600741853885    0.27433062562607197    0.2752746210767596    0.27433062562607197    0.2714960074185388    
  0.26681626066648    0.26048895992260973    0.25291173846142945    0.24462711824700983    0.23620812038493239    
  0.22815930657606182    0.22087450121745208    0.21464834634649937    0.2097146958167002    0.20627743279798397    
  0.20450743691546114    0.2045074369154612    0.20627743279798397    0.20971469581670013    0.21464834634649937    
  0.2208745012174522    0.22815930657606182    0.23620812038493233    0.2446271182470099    0.23330979313179898    
  0.23620812038493227    0.2390533428351581    0.2415762086279671    0.24355220880577294    0.2448666952687806    
  0.24550997733442342    0.24550997733442342    0.2448666952687806    0.24355220880577289    0.2415762086279671    
  0.2390533428351581    0.23620812038493233    0.23330979313179898    0.23058415699200904    0.22815930657606187    
  0.22607372757681585    0.22433417521385107    0.22297894099957694    0.2220973272259043    0.22178886921347565    
  0.22209732722590442    0.22297894099957694    0.22433417521385107    0.2260737275768159    0.22815930657606182    
  0.23058415699200904    0.23330979313179898    0.23330979313179898    0.23058415699200904    0.22815930657606187    
  0.2260737275768159    0.22433417521385116    0.22297894099957688    0.22209732722590442    0.22178886921347565    
  0.22209732722590442    0.22297894099957694    0.22433417521385107    0.2260737275768159    0.22815930657606182    
  0.23058415699200904    0.23330979313179898    0.23620812038493233    0.23905334283515808    0.2415762086279671    
  0.24355220880577286    0.2448666952687806    0.24550997733442348    0.24550997733442342    0.2448666952687806    
  0.24355220880577289    0.24157620862796716    0.2390533428351581    0.23620812038493227    0.23330979313179898    
  0.2446271182470099    0.23620812038493239    0.22815930657606187    0.2208745012174522    0.21464834634649943    
  0.20971469581670013    0.20627743279798394    0.2045074369154612    0.2045074369154612    0.20627743279798397    
  0.2097146958167002    0.21464834634649937    0.22087450121745208    0.22815930657606182    0.23620812038493239    
  0.24462711824700983    0.25291173846142945    0.2604889599226098    0.26681626066648    0.27149600741853874    
  0.274330625626072    0.2752746210767596    0.274330625626072    0.2714960074185388    0.26681626066648    
  0.2604889599226098    0.25291173846142945    0.2446271182470099    0.2668236002840605    0.2529117384614295    
  0.23905334283515808    0.2260737275768159    0.21464834634649946    0.20529418945374697    0.1983789146205002    
  0.1941413465935378    0.19271457248730267    0.19414134659353785    0.19837891462050009    0.20529418945374694    
  0.21464834634649937    0.22607372757681585    0.2390533428351581    0.25291173846142945    0.26682360028406055    
  0.2798612644116054    0.2911133380663931    0.29986296047377653    0.3057265479789663    0.3086313272784748    
  0.3086313272784748    0.3057265479789663    0.2998629604737766    0.2911133380663931    0.2798612644116054    
  0.2668236002840605    0.29829835157019763    0.2798612644116054    0.26048895992260973    0.24157620862796716    
  0.22433417521385107    0.2097146958167002    0.19837891462050009    0.1907038194994273    0.18684650160299546    
  0.18684650160299546    0.19070381949942736    0.19837891462050009    0.20971469581670013    0.22433417521385107    
  0.2415762086279671    0.2604889599226097    0.2798612644116054    0.2982983515701977    0.31440336462756757    
  0.3270851921008357    0.33584914193805665    0.34082132403927895    0.3424086667062983    0.3408213240392789    
  0.33584914193805665    0.3270851921008357    0.3144033646275675    0.29829835157019763    0.334559702002439    
  0.3144033646275675    0.29111333806639317    0.26681626066648    0.24355220880577289    0.22297894099957694    
  0.2062774327979839    0.1941413465935378    0.18684650160299543    0.18442159535146763    0.18684650160299546    
  0.1941413465935378    0.2062774327979839    0.22297894099957688    0.24355220880577286    0.26681626066647995    
  0.2911133380663931    0.31440336462756757    0.33455970200243895    0.34993820398610936    0.3599848174812308    
  0.3653976279114531    0.36756505540420054    0.3675650554042005    0.3653976279114531    0.35998481748123073    
  0.3499382039861094    0.334559702002439    0.36584551331343157    0.3499382039861094    0.32708519210083575    
  0.2998629604737766    0.27149600741853885    0.24486669526878055    0.22209732722590442    0.2045074369154612    
  0.19271457248730273    0.18684650160299546    0.18684650160299546    0.19271457248730273    0.2045074369154612    
  0.22209732722590442    0.24486669526878055    0.27149600741853874    0.29986296047377653    0.32708519210083575    
  0.3499382039861094    0.36584551331343157    0.374077310853132    0.3762497253496546    0.3755217674730008    
  0.37487729721900026    0.37552176747300087    0.3762497253496547    0.374077310853132    0.36584551331343157    
  0.37685532006827105    0.3740773108531319    0.3599848174812308    0.3358491419380567    0.3057265479789663    
  0.274330625626072    0.24550997733442342    0.22178886921347557    0.20450743691546114    0.19414134659353785    
  0.1907038194994273    0.19414134659353777    0.2045074369154612    0.22178886921347563    0.24550997733442342    
  0.27433062562607197    0.30572654797896626    0.33584914193805665    0.3599848174812308    0.3740773108531319    
  0.3768553200682711    0.37097807545101075    0.36199268379301397    0.3557137647698615    0.3557137647698615    
  0.36199268379301386    0.3709780754510107    0.37685532006827105    0.35311697782522217    0.3709780754510107    
  0.37624972534965473    0.3653976279114531    0.34082132403927895    0.3086313272784748    0.2752746210767596    
  0.24550997733442342    0.22209732722590436    0.20627743279798397    0.19837891462050009    0.19837891462050009    
  0.20627743279798397    0.22209732722590442    0.24550997733442342    0.2752746210767596    0.3086313272784748    
  0.34082132403927895    0.3653976279114531    0.3762497253496546    0.3709780754510107    0.35311697782522217    
  0.3308783228457648    0.31327963817234145    0.30667877372792435    0.3132796381723415    0.3308783228457648    
  0.35311697782522217    0.2930650000873562    0.3308783228457648    0.36199268379301397    0.37552176747300087    
  0.3675650554042005    0.3424086667062984    0.3086313272784748    0.274330625626072    0.2448666952687806    
  0.22297894099957694    0.2097146958167002    0.20529418945374694    0.20971469581670013    0.22297894099957688    
  0.24486669526878055    0.274330625626072    0.3086313272784748    0.3424086667062984    0.3675650554042005    
  0.37552176747300076    0.36199268379301397    0.33087832284576485    0.2930650000873562    0.2607860260245278    
  0.2426930816523203    0.24269308165232023    0.26078602602452783    0.2930650000873562    0.21384391979512016    
  0.26078602602452783    0.3132796381723416    0.3557137647698615    0.37487729721900037    0.3675650554042005    
  0.34082132403927895    0.30572654797896637    0.2714960074185388    0.24355220880577289    0.22433417521385107    
  0.21464834634649943    0.21464834634649943    0.22433417521385107    0.24355220880577286    0.27149600741853874    
  0.30572654797896626    0.34082132403927895    0.3675650554042005    0.3748772972190003    0.3557137647698615    
  0.31327963817234156    0.26078602602452783    0.21384391979512016    0.18299162195939392    0.1724370018366487    
  0.18299162195939386    0.21384391979512016    0.14065202956437375    0.1829916219593939    0.24269308165232037    
  0.3066787737279244    0.3557137647698615    0.3755217674730008    0.3653976279114531    0.33584914193805665    
  0.29986296047377653    0.26681626066648    0.2415762086279671    0.2260737275768159    0.22087450121745208    
  0.2260737275768159    0.2415762086279671    0.26681626066647995    0.29986296047377653    0.3358491419380567    
  0.3653976279114531    0.37552176747300076    0.3557137647698615    0.3066787737279243    0.2426930816523203    
  0.18299162195939392    0.14065202956437375    0.11967235366247884    0.11967235366247876    0.14065202956437375    
  0.08957807328595624    0.11967235366247879    0.17243700183664867    0.24269308165232037    0.31327963817234156    
  0.36199268379301397    0.3762497253496547    0.35998481748123073    0.3270851921008357    0.29111333806639317    
  0.26048895992260973    0.23905334283515808    0.2281593065760618    0.22815930657606182    0.23905334283515808    
  0.26048895992260973    0.2911133380663931    0.3270851921008357    0.35998481748123073    0.3762497253496546    
  0.36199268379301386    0.3132796381723415    0.24269308165232029    0.17243700183664865    0.11967235366247884    
  0.08957807328595628    0.08011367745009097    0.08957807328595624    0.062353613275207845    0.08011367745009092    
  0.11967235366247884    0.18299162195939392    0.26078602602452783    0.3308783228457648    0.3709780754510107    
  0.3740773108531319    0.3499382039861094    0.3144033646275675    0.27986126441160547    0.25291173846142945    
  0.23620812038493233    0.23058415699200904    0.23620812038493239    0.25291173846142945    0.27986126441160536    
  0.3144033646275675    0.3499382039861094    0.3740773108531319    0.3709780754510107    0.3308783228457648    
  0.2607860260245278    0.1829916219593939    0.11967235366247884    0.08011367745009099    0.062353613275207796    
  0.062353613275207845    0.05415545126701028    0.062353613275207796    0.08957807328595628    0.14065202956437378    
  0.21384391979512016    0.2930650000873562    0.35311697782522217    0.3768553200682711    0.3658455133134316    
  0.3345597020024389    0.2982983515701977    0.26682360028406055    0.24462711824700983    0.23330979313179898    
  0.23330979313179898    0.24462711824700983    0.2668236002840605    0.29829835157019763    0.3345597020024389    
  0.36584551331343157    0.3768553200682711    0.35311697782522217    0.2930650000873562    0.21384391979512016    
  0.14065202956437378    0.08957807328595625    0.062353613275207845    0.05415545126701028    0.06291393013727994    
  0.07159930818837444    0.09996190348360835    0.15181775495911506    0.22411412236606904    0.3002516452205232    
  0.3560552675442918    0.3760901752500084    0.3628940683537539    0.3308107614241719    0.2945351255020307    
  0.26332542749881    0.2414038656027861    0.2302491476970258    0.2302491476970258    0.2414038656027861    
  0.26332542749880994    0.2945351255020307    0.3308107614241719    0.36289406835375376    0.3760901752500084    
  0.35605526754429173    0.3002516452205232    0.22411412236606904    0.15181775495911506    0.09996190348360835    
  0.07159930818837447    0.06291393013727994    0.07159930818837447    0.07159930818837444    0.09017383963646557    
  0.13068833048844158    0.19388070087864978    0.2694937281053557    0.33568717113779317    0.37170310318332656    
  0.37192338014539195    0.34643257181150666    0.3106027855349822    0.2762416357219455    0.24958267639821902    
  0.23310461032447405    0.2275636829977859    0.233104610324474    0.24958267639821896    0.2762416357219455    
  0.31060278553498216    0.34643257181150666    0.3719233801453919    0.3717031031833265    0.3356871711377932    
  0.2694937281053557    0.19388070087864978    0.1306883304884415    0.0901738396364656    0.07159930818837447    
  0.09996190348360835    0.09017383963646555    0.0999619034836084    0.1306883304884415    0.18345993707807412    
  0.2520883046172747    0.3192816721704114    0.3639412930008011    0.3749293349405907    0.35685107291270335    
  0.3233549063207483    0.287437873542771    0.25708555931105337    0.2359138779771557    0.22517328804324266    
  0.22517328804324266    0.2359138779771556    0.2570855593110533    0.28743787354277106    0.3233549063207483    
  0.35685107291270335    0.3749293349405908    0.36394129300080114    0.31928167217041137    0.25208830461727477    
  0.18345993707807412    0.1306883304884415    0.09996190348360835    0.15181775495911506    0.13068833048844153    
  0.1306883304884416    0.15181775495911506    0.19388070087864978    0.2520883046172749    0.31308276235462507    
  0.3583407977159871    0.37482603400630143    0.36263557520336603    0.33225432997354926    0.29619364373952645    
  0.2633794644963027    0.23841834047326066    0.22311984435679966    0.21799437583885645    0.22311984435679966    
  0.23841834047326066    0.2633794644963027    0.29619364373952645    0.33225432997354926    0.36263557520336603    
  0.37482603400630143    0.3583407977159871    0.3130827623546251    0.25208830461727477    0.19388070087864978    
  0.15181775495911506    0.22411412236606904    0.19388070087864973    0.18345993707807426    0.19388070087864978    
  0.22411412236606904    0.2694937281053558    0.3192816721704114    0.35834079771598715    0.3744121537860668    
  0.36503376128148357    0.33735430603325217    0.30209733570231107    0.268060752552969    0.24039717510001157    
  0.22141458436631792    0.21185950832361314    0.21185950832361308    0.22141458436631792    0.24039717510001157    
  0.268060752552969    0.30209733570231107    0.33735430603325217    0.36503376128148357    0.37441215378606674    
  0.3583407977159871    0.31928167217041137    0.26949372810535577    0.22411412236606904    0.30025164522052317    
  0.26949372810535577    0.25208830461727477    0.2520883046172748    0.2694937281053558    0.3002516452205232    
  0.3356871711377932    0.3639412930008012    0.37482603400630143    0.36503376128148357    0.33899349371578563    
  0.30503650219651796    0.270911727840284    0.24172796183886608    0.22009492629923721    0.20700134796620429    
  0.20264053201198265    0.20700134796620429    0.22009492629923733    0.24172796183886605    0.27091172784028406    
  0.30503650219651796    0.3389934937157857    0.36503376128148357    0.37482603400630143    0.36394129300080114    
  0.3356871711377931    0.30025164522052317    0.3560552675442918    0.33568717113779317    0.3192816721704114    
  0.3130827623546251    0.3192816721704114    0.3356871711377931    0.35605526754429173    0.3717031031833265    
  0.3749293349405907    0.3626355752033661    0.33735430603325217    0.30503650219651796    0.27186443441578023    
  0.2423855888268778    0.21924196853803454    0.2036201967835902    0.19582534142037147    0.19582534142037156    
  0.2036201967835902    0.21924196853803452    0.2423855888268778    0.27186443441578023    0.30503650219651796    
  0.33735430603325217    0.3626355752033661    0.3749293349405907    0.3717031031833265    0.3560552675442918    
  0.3760901752500084    0.37170310318332656    0.36394129300080114    0.35834079771598715    0.35834079771598715    
  0.36394129300080114    0.3717031031833266    0.3760901752500084    0.3719233801453919    0.35685107291270335    
  0.33225432997354926    0.30209733570231107    0.27091172784028394    0.2423855888268778    0.21894467462019274    
  0.20188076166007565    0.19164934109369777    0.18825709326822201    0.1916493410936978    0.20188076166007565    
  0.21894467462019274    0.2423855888268778    0.27091172784028394    0.30209733570231107    0.3322543299735493    
  0.35685107291270335    0.3719233801453919    0.3760901752500084    0.36289406835375376    0.37192338014539195    
  0.3749293349405907    0.37482603400630143    0.37441215378606685    0.3748260340063015    0.3749293349405907    
  0.3719233801453919    0.3628940683537539    0.34643257181150666    0.3233549063207483    0.29619364373952645    
  0.268060752552969    0.24172796183886605    0.21924196853803454    0.20188076166007565    0.1902433641397065    
  0.18445270038897865    0.1844527003889786    0.1902433641397065    0.2018807616600757    0.21924196853803454    
  0.24172796183886605    0.268060752552969    0.29619364373952645    0.3233549063207483    0.34643257181150666    
  0.36289406835375376    0.330810761424172    0.3464325718115067    0.35685107291270346    0.3626355752033661    
  0.3650337612814837    0.36503376128148357    0.36263557520336603    0.35685107291270335    0.34643257181150666    
  0.3308107614241719    0.3106027855349822    0.287437873542771    0.2633794644963027    0.24039717510001157    
  0.22009492629923727    0.2036201967835902    0.19164934109369774    0.1844527003889786    0.18206006736444855    
  0.1844527003889786    0.19164934109369777    0.20362019678359025    0.22009492629923727    0.24039717510001157    
  0.2633794644963027    0.287437873542771    0.31060278553498216    0.330810761424172    0.29453512550203065    
  0.3106027855349822    0.32335490632074837    0.3322543299735493    0.3373543060332522    0.3389934937157856    
  0.33735430603325217    0.33225432997354926    0.3233549063207483    0.3106027855349822    0.29453512550203076    
  0.27624163572194554    0.2570855593110533    0.23841834047326066    0.22141458436631792    0.20700134796620429    
  0.19582534142037156    0.18825709326822204    0.1844527003889786    0.1844527003889786    0.18825709326822196    
  0.19582534142037158    0.2070013479662043    0.2214145843663179    0.23841834047326063    0.2570855593110533    
  0.27624163572194543    0.29453512550203065    0.26332542749880994    0.2762416357219455    0.2874378735427711    
  0.29619364373952645    0.30209733570231107    0.3050365021965179    0.30503650219651796    0.30209733570231107    
  0.29619364373952645    0.28743787354277106    0.2762416357219455    0.26332542749881    0.24958267639821896    
  0.2359138779771557    0.22311984435679966    0.21185950832361308    0.20264053201198265    0.19582534142037153    
  0.19164934109369777    0.19024336413970644    0.19164934109369777    0.19582534142037167    0.20264053201198268    
  0.21185950832361314    0.22311984435679977    0.23591387797715566    0.24958267639821904    0.26332542749880994    
  0.24140386560278612    0.24958267639821896    0.2570855593110534    0.2633794644963027    0.26806075255296913    
  0.270911727840284    0.27186443441578023    0.27091172784028394    0.268060752552969    0.2633794644963027    
  0.25708555931105337    0.24958267639821896    0.2414038656027861    0.23310461032447405    0.22517328804324271    
  0.21799437583885645    0.21185950832361308    0.2070013479662043    0.20362019678359025    0.20188076166007562    
  0.2018807616600757    0.20362019678359025    0.20700134796620426    0.21185950832361308    0.21799437583885647    
  0.22517328804324271    0.233104610324474    0.24140386560278612    0.2302491476970258    0.23310461032447394    
  0.2359138779771557    0.23841834047326066    0.2403971751000116    0.24172796183886608    0.2423855888268778    
  0.2423855888268778    0.24172796183886608    0.2403971751000116    0.23841834047326066    0.2359138779771557    
  0.233104610324474    0.23024914769702576    0.2275636829977859    0.22517328804324271    0.22311984435679966    
  0.22141458436631792    0.22009492629923733    0.21924196853803452    0.21894467462019285    0.2192419685380346    
  0.22009492629923727    0.22141458436631792    0.2231198443567997    0.22517328804324266    0.2275636829977859    
  0.2302491476970258    0.23024914769702576    0.2275636829977859    0.22517328804324271    0.2231198443567997    
  0.22141458436631797    0.22009492629923727    0.2192419685380346    0.2189446746201928    0.21924196853803454    
  0.22009492629923733    0.22141458436631792    0.2231198443567997    0.22517328804324266    0.2275636829977859    
  0.23024914769702576    0.233104610324474    0.23591387797715566    0.23841834047326066    0.24039717510001157    
  0.24172796183886608    0.24238558882687786    0.2423855888268778    0.24172796183886613    0.2403971751000116    
  0.23841834047326066    0.2359138779771557    0.23310461032447394    0.23024914769702576    0.24140386560278612    
  0.23310461032447405    0.22517328804324271    0.21799437583885653    0.21185950832361314    0.20700134796620429    
  0.20362019678359025    0.20188076166007565    0.20188076166007568    0.20362019678359025    0.2070013479662043    
  0.21185950832361308    0.21799437583885645    0.22517328804324271    0.23310461032447405    0.2414038656027861    
  0.24958267639821896    0.2570855593110534    0.2633794644963027    0.26806075255296896    0.270911727840284    
  0.27186443441578023    0.27091172784028406    0.2680607525529691    0.2633794644963027    0.25708555931105337    
  0.24958267639821896    0.24140386560278612    0.26332542749880994    0.24958267639821904    0.2359138779771557    
  0.2231198443567997    0.21185950832361317    0.20264053201198268    0.19582534142037167    0.19164934109369777    
  0.1902433641397065    0.19164934109369783    0.19582534142037156    0.20264053201198265    0.21185950832361308    
  0.22311984435679966    0.2359138779771557    0.24958267639821902    0.26332542749881    0.2762416357219455    
  0.287437873542771    0.2961936437395264    0.30209733570231107    0.30503650219651796    0.30503650219651796    
  0.30209733570231107    0.29619364373952645    0.287437873542771    0.2762416357219455    0.26332542749880994    
  0.29453512550203065    0.2762416357219455    0.25708555931105337    0.23841834047326066    0.22141458436631797    
  0.2070013479662043    0.19582534142037153    0.18825709326822196    0.1844527003889786    0.1844527003889786    