#     DFTpy    
  CRYSTAL 
    
  PRIMVEC    
  1.7530527796302304    -3.0363764826694006    0.0    
  1.7530527796302304    3.0363764826694006    0.0    
  0.0    0.0    3.2998120804137905    
  PRIMCOORD    
  1    1    
  Si    0.0    0.0    0.0    
  BEGIN_BLOCK_DATAGRID_3D    
  3d_datagrid_density    
  BEGIN_DATAGRID_3D#0    
  37    37    33    
  0.0    0.0    0.0    
  1.7530527861691507    -3.0363764939951428    0.0    
  1.7530527861691507    3.0363764939951428    0.0    
  0.0    0.0    3.299812092722153    
  0.05987159966807663    0.06716007911168453    0.09086949797989262    0.13451569427984528    0.1974433648734634    
  0.2686888823456087    0.32825921164561384    0.3581248874248193    0.3531947316645059    0.3218199755984992    
  0.27763895979160896    0.2318920149395598    0.19090825937453612    0.15715816074894978    0.13098535957192606    
  0.11180528060618948    0.09879262086454732    0.09125715977686084    0.08878865846376886    0.09125715977686084    
  0.09879262086454732    0.11180528060618944    0.13098535957192606    0.15715816074894973    0.19090825937453612    
  0.23189201493955983    0.27763895979160896    0.3218199755984992    0.3531947316645059    0.35812488742481924    
  0.32825921164561384    0.26868888234560884    0.1974433648734634    0.13451569427984528    0.09086949797989266    
  0.06716007911168452    0.05987159966807663    0.06716007911168452    0.06716007911168449    0.08269151959457981    
  0.11663997726801446    0.1707443993774402    0.23909366323830164    0.30528193818464877    0.34923158121060444    
  0.3593911384158682    0.338516630995141    0.29871678940989815    0.2527622011297333    0.20916908239832036    
  0.17195864799070995    0.14228757960076605    0.11990757929363834    0.1040507847075057    0.09393415646650802    
  0.08900719677401067    0.08900719677401067    0.09393415646650803    0.10405078470750571    0.11990757929363834    
  0.14228757960076605    0.17195864799070995    0.20916908239832036    0.25276220112973335    0.2987167894098981    
  0.33851663099514107    0.3593911384158682    0.34923158121060444    0.3052819381846487    0.2390936632383017    
  0.17074439937744018    0.11663997726801452    0.08269151959457981    0.06716007911168452    0.09086949797989267    
  0.08269151959457983    0.09086949797989259    0.11663997726801446    0.16169372387885225    0.22294142519364651    
  0.28814220770110033    0.3386808179526158    0.3597547994472031    0.3488797872507734    0.3149320446079617    
  0.27054993578967024    0.22571523405983224    0.18592908704157604    0.1532861158421639    0.12800602839447375    
  0.10948450299470296    0.09691412065332336    0.08963092137476962    0.08724421709019053    0.08963092137476962    
  0.09691412065332339    0.10948450299470294    0.12800602839447373    0.15328611584216392    0.18592908704157604    
  0.2257152340598323    0.27054993578967024    0.31493204460796165    0.34887978725077345    0.3597547994472031    
  0.33868081795261573    0.28814220770110033    0.22294142519364654    0.16169372387885234    0.11663997726801446    
  0.09086949797989267    0.13451569427984528    0.11663997726801446    0.11663997726801453    0.13451569427984528    
  0.17074439937744024    0.22294142519364651    0.28187354763982225    0.3318684288575001    0.3579335597001698    
  0.35422406242931104    0.32600363340215804    0.2843445127320604    0.23958976823869463    0.19828170689601204    
  0.16339820865367288    0.13569486527451383    0.11482152617940074    0.10002496702376594    0.09057388655531867    
  0.08596638150452436    0.08596638150452435    0.09057388655531867    0.10002496702376594    0.11482152617940071    
  0.13569486527451383    0.1633982086536729    0.1982817068960121    0.23958976823869463    0.2843445127320604    
  0.326003633402158    0.3542240624293111    0.3579335597001698    0.3318684288575002    0.2818735476398222    
  0.2229414251936466    0.17074439937744024    0.13451569427984528    0.19744336487346334    0.1707443993774402    
  0.16169372387885225    0.17074439937744026    0.1974433648734634    0.2390936632383017    0.2881422077011004    
  0.3318684288575001    0.356942902296395    0.3562982134853227    0.33228097914493343    0.29364968711995704    
  0.2500196107855103    0.2082813060213265    0.1720377372458816    0.142548100100414    0.11976772285855378    
  0.10307052169842597    0.09171737850456596    0.08512660826099408    0.08296432561970482    0.08512660826099408    
  0.09171737850456593    0.10307052169842597    0.11976772285855382    0.142548100100414    0.1720377372458816    
  0.20828130602132647    0.2500196107855103    0.29364968711995704    0.33228097914493343    0.3562982134853227    
  0.3569429022963951    0.3318684288575001    0.2881422077011004    0.23909366323830175    0.19744336487346334    
  0.2686888823456088    0.23909366323830175    0.2229414251936466    0.22294142519364654    0.23909366323830175    
  0.2686888823456087    0.3052819381846488    0.3386808179526158    0.3579335597001698    0.3562982134853227    
  0.3342930362870292    0.2983056757136394    0.2564732928256816    0.21531552240114799    0.17866573916604575    
  0.14815100648815102    0.1240279177711082    0.10584863108177983    0.09292824119718254    0.08464994269221242    
  0.08060528670906603    0.08060528670906607    0.08464994269221242    0.09292824119718254    0.10584863108177983    
  0.12402791777110822    0.14815100648815105    0.17866573916604575    0.21531552240114799    0.2564732928256816    
  0.29830567571363953    0.3342930362870292    0.3562982134853227    0.35793355970016966    0.33868081795261573    
  0.3052819381846487    0.2686888823456088    0.32825921164561384    0.3052819381846487    0.2881422077011004    
  0.28187354763982225    0.28814220770110033    0.3052819381846487    0.3282592116456139    0.34923158121060444    
  0.35975479944720323    0.35422406242931104    0.33228097914493343    0.2983056757136395    0.25865541719388924    
  0.2189467047696373    0.18284010098779205    0.15213199159769142    0.12732274676383895    0.10816138630065981    
  0.09406880912498988    0.08444441834447103    0.07883818228721035    0.07699584385199389    0.07883818228721035    
  0.08444441834447104    0.09406880912498988    0.10816138630065986    0.12732274676383895    0.1521319915976914    
  0.18284010098779213    0.2189467047696372    0.25865541719388924    0.29830567571363953    0.33228097914493343    
  0.35422406242931104    0.3597547994472031    0.3492315812106044    0.32825921164561384    0.3581248874248193    
  0.3492315812106044    0.33868081795261584    0.3318684288575001    0.33186842885750023    0.33868081795261573    
  0.34923158121060444    0.3581248874248193    0.3593911384158683    0.34887978725077345    0.32600363340215804    
  0.2936496871199571    0.2564732928256816    0.2189467047696373    0.18426623553770197    0.15420258304166085    
  0.12941198009949492    0.10982692510578952    0.09500510355224957    0.08440969327699463    0.07758931255624953    
  0.07424874985872645    0.07424874985872645    0.07758931255624954    0.08440969327699466    0.09500510355224959    
  0.10982692510578958    0.12941198009949492    0.15420258304166085    0.18426623553770197    0.2189467047696373    
  0.2564732928256816    0.29364968711995715    0.32600363340215804    0.34887978725077345    0.3593911384158682    
  0.3581248874248193    0.3531947316645059    0.3593911384158683    0.3597547994472031    0.3579335597001697    
  0.356942902296395    0.3579335597001697    0.3597547994472031    0.3593911384158683    0.3531947316645059    
  0.33851663099514095    0.31493204460796165    0.2843445127320604    0.2500196107855103    0.21531552240114796    
  0.1828401009877921    0.15420258304166085    0.13012853597153265    0.11070047530063594    0.09562077233794614    
  0.08445001279251549    0.07677540694147124    0.0722910203074624    0.07081600358908274    0.0722910203074624    
  0.07677540694147124    0.0844500127925155    0.09562077233794615    0.11070047530063597    0.13012853597153265    
  0.15420258304166085    0.18284010098779213    0.21531552240114799    0.2500196107855103    0.28434451273206046    
  0.3149320446079617    0.338516630995141    0.3531947316645059    0.3218199755984992    0.33851663099514107    
  0.34887978725077345    0.3542240624293111    0.3562982134853227    0.3562982134853227    0.3542240624293111    
  0.34887978725077345    0.338516630995141    0.3218199755984992    0.2987167894098981    0.27054993578967024    
  0.23958976823869463    0.20828130602132647    0.17866573916604575    0.15213199159769142    0.12941198009949492    
  0.11070047530063594    0.09583556499078914    0.08449051530019135    0.07632129816570847    0.07104300402972102    
  0.06845584404806987    0.06845584404806986    0.07104300402972101    0.07632129816570848    0.08449051530019137    
  0.09583556499078917    0.11070047530063597    0.12941198009949498    0.15213199159769145    0.17866573916604578    
  0.20828130602132652    0.23958976823869466    0.2705499357896703    0.2987167894098981    0.3218199755984992    
  0.2776389597916089    0.29871678940989815    0.3149320446079617    0.326003633402158    0.33228097914493343    
  0.3342930362870292    0.33228097914493343    0.326003633402158    0.3149320446079617    0.2987167894098981    
  0.27763895979160885    0.2527622011297333    0.22571523405983224    0.19828170689601204    0.1720377372458816    
  0.14815100648815102    0.12732274676383895    0.1098269251057895    0.09562077233794614    0.08449051530019133    
  0.0761758929380013    0.07043787702399103    0.06708315407939311    0.06598069613991693    0.06708315407939311    
  0.07043787702399103    0.07617589293800135    0.08449051530019137    0.09562077233794611    0.10982692510578952    
  0.12732274676383898    0.14815100648815102    0.17203773724588164    0.19828170689601204    0.22571523405983224    
  0.2527622011297333    0.2776389597916089    0.23189201493955988    0.2527622011297333    0.2705499357896703    
  0.28434451273206046    0.2936496871199571    0.2983056757136395    0.29830567571363953    0.2936496871199571    
  0.2843445127320604    0.27054993578967024    0.2527622011297333    0.23189201493955983    0.20916908239832036    
  0.18592908704157604    0.16339820865367286    0.142548100100414    0.1240279177711082    0.10816138630065984    
  0.09500510355224955    0.08445001279251547    0.07632129816570847    0.070437877023991    0.06663361399394017    
  0.06477183844850697    0.06477183844850697    0.06663361399394017    0.07043787702399104    0.07632129816570848    
  0.08445001279251547    0.09500510355224959    0.10816138630065988    0.12402791777110828    0.14254810010041402    
  0.1633982086536729    0.18592908704157599    0.20916908239832036    0.23189201493955988    0.19090825937453612    
  0.20916908239832036    0.2257152340598323    0.23958976823869466    0.2500196107855104    0.2564732928256816    
  0.25865541719388924    0.2564732928256816    0.2500196107855103    0.23958976823869457    0.22571523405983224    
  0.20916908239832033    0.19090825937453612    0.17195864799070992    0.1532861158421639    0.13569486527451383    
  0.11976772285855378    0.10584863108177983    0.09406880912498988    0.08440969327699463    0.07677540694147124    
  0.07104300402972102    0.0670831540793931    0.06477183844850697    0.06401360380305496    0.06477183844850697    
  0.06708315407939314    0.07104300402972102    0.07677540694147121    0.08440969327699463    0.09406880912498986    
  0.10584863108177989    0.11976772285855382    0.13569486527451385    0.15328611584216392    0.1719586479907099    
  0.19090825937453612    0.15715816074894978    0.17195864799070995    0.18592908704157599    0.1982817068960121    
  0.2082813060213265    0.21531552240114799    0.2189467047696373    0.21894670476963723    0.21531552240114799    
  0.20828130602132647    0.19828170689601204    0.18592908704157604    0.17195864799070995    0.15715816074894978    
  0.14228757960076605    0.12800602839447373    0.11482152617940074    0.10307052169842597    0.09292824119718254    
  0.08444441834447103    0.07758931255624953    0.0722910203074624    0.06845584404806986    0.06598069613991694    
  0.06477183844850698    0.06477183844850698    0.06598069613991696    0.06845584404806986    0.07229102030746241    
  0.0775893125562496    0.08444441834447106    0.0929282411971826    0.10307052169842601    0.11482152617940074    
  0.12800602839447375    0.1422875796007661    0.15715816074894978    0.13098535957192614    0.14228757960076605    
  0.15328611584216392    0.1633982086536729    0.17203773724588167    0.17866573916604575    0.18284010098779213    
  0.18426623553770197    0.1828401009877921    0.17866573916604575    0.1720377372458816    0.16339820865367286    
  0.15328611584216392    0.14228757960076607    0.13098535957192609    0.11990757929363834    0.10948450299470291    
  0.10002496702376594    0.09171737850456596    0.0846499426922124    0.07883818228721029    0.07424874985872645    
  0.07081600358908274    0.06845584404806988    0.06708315407939311    0.06663361399394019    0.06708315407939311    
  0.06845584404806986    0.07081600358908276    0.07424874985872645    0.07883818228721037    0.08464994269221245    
  0.091717378504566    0.100024967023766    0.10948450299470296    0.11990757929363835    0.13098535957192614    
  0.11180528060618948    0.11990757929363834    0.12800602839447373    0.13569486527451383    0.142548100100414    
  0.14815100648815102    0.15213199159769142    0.15420258304166087    0.15420258304166087    0.15213199159769142    
  0.14815100648815102    0.142548100100414    0.1356948652745138    0.12800602839447375    0.11990757929363835    
  0.11180528060618945    0.1040507847075057    0.09691412065332339    0.09057388655531867    0.08512660826099408    
  0.08060528670906603    0.07699584385199391    0.07424874985872647    0.07229102030746239    0.07104300402972101    
  0.070437877023991    0.07043787702399104    0.07104300402972101    0.07229102030746241    0.07424874985872647    
  0.07699584385199393    0.08060528670906605    0.0851266082609941    0.09057388655531866    0.09691412065332339    
  0.10405078470750573    0.11180528060618948    0.09879262086454733    0.10405078470750574    0.10948450299470298    
  0.11482152617940075    0.11976772285855382    0.12402791777110825    0.127322746763839    0.12941198009949498    
  0.13012853597153268    0.12941198009949492    0.12732274676383895    0.1240279177711082    0.11976772285855378    
  0.11482152617940075    0.10948450299470294    0.10405078470750573    0.0987926208645473    0.09393415646650803    
  0.08963092137476962    0.08596638150452435    0.08296432561970483    0.08060528670906605    0.07883818228721032    
  0.07758931255624953    0.07677540694147122    0.07632129816570848    0.07617589293800132    0.07632129816570847    
  0.0767754069414712    0.07758931255624953    0.07883818228721036    0.08060528670906612    0.08296432561970489    
  0.08596638150452433    0.08963092137476965    0.09393415646650806    0.09879262086454733    0.09125715977686087    
  0.09393415646650803    0.0969141206533234    0.10002496702376597    0.10307052169842604    0.10584863108177983    
  0.10816138630065986    0.10982692510578952    0.11070047530063597    0.11070047530063597    0.10982692510578952    
  0.10816138630065984    0.10584863108177983    0.10307052169842601    0.10002496702376594    0.0969141206533234    
  0.09393415646650802    0.09125715977686087    0.08900719677401067    0.08724421709019053    0.08596638150452435    
  0.08512660826099408    0.0846499426922124    0.08444441834447101    0.08440969327699463    0.08445001279251547    
  0.08449051530019135    0.08449051530019135    0.08445001279251554    0.08440969327699466    0.08444441834447107    
  0.08464994269221247    0.08512660826099412    0.08596638150452438    0.08724421709019049    0.08900719677401071    
  0.09125715977686087    0.0887886584637689    0.08900719677401067    0.08963092137476962    0.09057388655531869    
  0.09171737850456597    0.09292824119718254    0.09406880912498992    0.09500510355224959    0.09562077233794614    
  0.09583556499078912    0.09562077233794614    0.09500510355224956    0.09406880912498988    0.09292824119718257    
  0.09171737850456595    0.09057388655531867    0.08963092137476962    0.08900719677401069    0.08878865846376886    
  0.08900719677401069    0.08963092137476962    0.09057388655531869    0.09171737850456595    0.09292824119718253    
  0.0940688091249899    0.09500510355224956    0.09562077233794614    0.09583556499078912    0.09562077233794614    
  0.09500510355224959    0.09406880912498992    0.09292824119718257    0.09171737850456597    0.09057388655531871    
  0.08963092137476962    0.0890071967740107    0.0887886584637689    0.09125715977686086    0.0890071967740107    
  0.08724421709019053    0.08596638150452435    0.0851266082609941    0.08464994269221242    0.08444441834447106    
  0.08440969327699463    0.08445001279251547    0.08449051530019133    0.08449051530019133    0.08445001279251549    
  0.0844096932769946    0.08444441834447104    0.08464994269221242    0.0851266082609941    0.08596638150452436    
  0.08724421709019052    0.08900719677401067    0.09125715977686084    0.09393415646650803    0.09691412065332339    
  0.10002496702376594    0.10307052169842598    0.10584863108177983    0.10816138630065986    0.10982692510578952    
  0.11070047530063597    0.11070047530063597    0.10982692510578952    0.10816138630065986    0.10584863108177989    
  0.10307052169842601    0.10002496702376598    0.09691412065332339    0.09393415646650803    0.09125715977686086    
  0.09879262086454733    0.09393415646650806    0.08963092137476965    0.08596638150452432    0.08296432561970489    
  0.08060528670906608    0.07883818228721032    0.07758931255624954    0.0767754069414712    0.07632129816570847    
  0.07617589293800132    0.07632129816570846    0.07677540694147124    0.07758931255624955    0.07883818228721032    
  0.08060528670906605    0.08296432561970483    0.08596638150452435    0.08963092137476962    0.09393415646650802    
  0.0987926208645473    0.10405078470750573    0.10948450299470296    0.11482152617940071    0.1197677228585538    
  0.12402791777110822    0.12732274676383898    0.12941198009949492    0.13012853597153268    0.12941198009949492    
  0.12732274676383895    0.12402791777110828    0.11976772285855382    0.11482152617940078    0.10948450299470298    
  0.10405078470750574    0.09879262086454733    0.11180528060618952    0.10405078470750573    0.09691412065332339    
  0.09057388655531867    0.08512660826099415    0.08060528670906608    0.07699584385199391    0.07424874985872647    
  0.07229102030746239    0.07104300402972102    0.070437877023991    0.070437877023991    0.07104300402972102    
  0.07229102030746243    0.07424874985872647    0.0769958438519939    0.08060528670906604    0.08512660826099407    
  0.09057388655531867    0.09691412065332337    0.1040507847075057    0.11180528060618945    0.11990757929363831    
  0.12800602839447373    0.1356948652745138    0.142548100100414    0.14815100648815102    0.1521319915976914    
  0.1542025830416609    0.15420258304166085    0.15213199159769142    0.14815100648815105    0.142548100100414    
  0.13569486527451385    0.12800602839447373    0.11990757929363838    0.11180528060618952    0.13098535957192614    
  0.11990757929363834    0.10948450299470296    0.100024967023766    0.091717378504566    0.08464994269221245    
  0.07883818228721036    0.0742487498587265    0.07081600358908276    0.06845584404806988    0.06708315407939311    
  0.06663361399394017    0.06708315407939311    0.0684558440480699    0.07081600358908274    0.07424874985872647    
  0.07883818228721029    0.0846499426922124    0.09171737850456596    0.10002496702376594    0.10948450299470291    
  0.11990757929363835    0.13098535957192609    0.142287579600766    0.1532861158421639    0.16339820865367288    
  0.1720377372458816    0.17866573916604575    0.1828401009877921    0.18426623553770194    0.18284010098779213    
  0.1786657391660458    0.17203773724588167    0.1633982086536729    0.15328611584216392    0.14228757960076605    
  0.13098535957192614    0.15715816074894975    0.14228757960076605    0.12800602839447373    0.11482152617940075    
  0.10307052169842604    0.09292824119718252    0.08444441834447106    0.07758931255624955    0.07229102030746246    
  0.06845584404806988    0.06598069613991696    0.06477183844850697    0.06477183844850697    0.06598069613991696    
  0.06845584404806988    0.0722910203074624    0.07758931255624953    0.08444441834447103    0.09292824119718254    
  0.10307052169842598    0.11482152617940071    0.12800602839447373    0.14228757960076605    0.15715816074894973    
  0.1719586479907099    0.18592908704157599    0.19828170689601204    0.20828130602132647    0.21531552240114799    
  0.21894670476963723    0.2189467047696373    0.21531552240114799    0.20828130602132647    0.19828170689601204    
  0.18592908704157599    0.17195864799070992    0.15715816074894975    0.19090825937453612    0.1719586479907099    
  0.15328611584216392    0.13569486527451385    0.11976772285855382    0.10584863108177983    0.09406880912498988    
  0.08440969327699464    0.07677540694147121    0.07104300402972104    0.06708315407939314    0.06477183844850697    
  0.06401360380305496    0.06477183844850698    0.0670831540793931    0.07104300402972104    0.07677540694147124    
  0.08440969327699463    0.09406880912498988    0.10584863108177983    0.11976772285855378    0.13569486527451383    
  0.1532861158421639    0.1719586479907099    0.19090825937453612    0.20916908239832038    0.22571523405983224    
  0.23958976823869457    0.2500196107855103    0.25647329282568154    0.25865541719388924    0.2564732928256816    
  0.2500196107855104    0.23958976823869466    0.2257152340598323    0.20916908239832036    0.19090825937453612    
  0.23189201493955983    0.20916908239832038    0.185929087041576    0.1633982086536729    0.142548100100414    
  0.12402791777110822    0.10816138630065988    0.09500510355224959    0.08445001279251545    0.07632129816570847    
  0.07043787702399101    0.06663361399394015    0.06477183844850697    0.06477183844850698    0.06663361399394017    
  0.070437877023991    0.07632129816570847    0.08445001279251547    0.09500510355224957    0.10816138630065984    
  0.12402791777110822    0.14254810010041394    0.16339820865367286    0.18592908704157599    0.20916908239832036    
  0.23189201493955983    0.2527622011297333    0.27054993578967024    0.28434451273206046    0.2936496871199571    
  0.29830567571363953    0.29830567571363953    0.2936496871199571    0.28434451273206046    0.2705499357896703    
  0.2527622011297333    0.23189201493955983    0.2776389597916089    0.25276220112973335    0.2257152340598323    
  0.19828170689601207    0.17203773724588164    0.14815100648815102    0.127322746763839    0.10982692510578955    
  0.09562077233794611    0.08449051530019135    0.07617589293800135    0.070437877023991    0.06708315407939311    
  0.06598069613991696    0.06708315407939311    0.07043787702399101    0.0761758929380013    0.08449051530019132    
  0.09562077233794614    0.10982692510578952    0.12732274676383895    0.14815100648815102    0.1720377372458816    
  0.198281706896012    0.22571523405983224    0.2527622011297333    0.27763895979160885    0.2987167894098981    
  0.3149320446079617    0.326003633402158    0.33228097914493343    0.3342930362870292    0.33228097914493343    
  0.32600363340215804    0.3149320446079617    0.2987167894098981    0.2776389597916089    0.3218199755984992    
  0.2987167894098981    0.27054993578967035    0.2395897682386947    0.20828130602132652    0.17866573916604575    
  0.15213199159769145    0.12941198009949495    0.11070047530063593    0.09583556499078914    0.08449051530019136    
  0.07632129816570848    0.07104300402972101    0.06845584404806988    0.06845584404806986    0.07104300402972104    
  0.07632129816570847    0.08449051530019132    0.09583556499078914    0.11070047530063597    0.12941198009949492    
  0.15213199159769142    0.17866573916604572    0.20828130602132647    0.23958976823869463    0.27054993578967024    
  0.29871678940989815    0.3218199755984992    0.33851663099514107    0.34887978725077345    0.3542240624293111    
  0.35629821348532276    0.3562982134853227    0.3542240624293111    0.3488797872507734    0.338516630995141    
  0.3218199755984992    0.3531947316645059    0.338516630995141    0.31493204460796165    0.28434451273206046    
  0.2500196107855103    0.21531552240114799    0.18284010098779213    0.15420258304166085    0.13012853597153265    
  0.11070047530063597    0.09562077233794615    0.08445001279251547    0.07677540694147124    0.07229102030746241    
  0.07081600358908274    0.07229102030746239    0.07677540694147124    0.08445001279251547    0.09562077233794614    
  0.11070047530063597    0.13012853597153265    0.15420258304166085    0.1828401009877921    0.2153155224011479    
  0.2500196107855103    0.2843445127320604    0.3149320446079617    0.338516630995141    0.3531947316645059    
  0.3593911384158682    0.3597547994472031    0.3579335597001698    0.356942902296395    0.35793355970016977    
  0.3597547994472031    0.3593911384158682    0.3531947316645059    0.35812488742481935    0.3593911384158683    
  0.34887978725077345    0.326003633402158    0.2936496871199571    0.25647329282568154    0.21894670476963723    
  0.18426623553770197    0.15420258304166085    0.12941198009949492    0.10982692510578952    0.09500510355224956    
  0.08440969327699463    0.07758931255624954    0.07424874985872645    0.07424874985872647    0.07758931255624953    
  0.08440969327699462    0.09500510355224955    0.10982692510578952    0.12941198009949492    0.15420258304166085    
  0.18426623553770197    0.2189467047696372    0.25647329282568154    0.2936496871199571    0.32600363340215804    
  0.34887978725077345    0.3593911384158683    0.3581248874248193    0.34923158121060444    0.33868081795261584    
  0.3318684288575002    0.3318684288575001    0.33868081795261584    0.34923158121060444    0.35812488742481935    
  0.32825921164561384    0.3492315812106044    0.3597547994472031    0.35422406242931104    0.33228097914493343    
  0.29830567571363953    0.25865541719388924    0.21894670476963723    0.18284010098779213    0.1521319915976914    
  0.12732274676383895    0.10816138630065984    0.09406880912498988    0.08444441834447106    0.07883818228721035    
  0.07699584385199389    0.07883818228721033    0.08444441834447101    0.09406880912498988    0.10816138630065986    
  0.12732274676383898    0.15213199159769142    0.18284010098779205    0.2189467047696372    0.25865541719388924    
  0.29830567571363953    0.33228097914493343    0.35422406242931104    0.35975479944720323    0.34923158121060444    
  0.3282592116456139    0.3052819381846487    0.28814220770110033    0.2818735476398222    0.2881422077011004    
  0.3052819381846487    0.32825921164561384    0.26868888234560884    0.3052819381846487    0.33868081795261584    
  0.3579335597001697    0.3562982134853227    0.3342930362870292    0.29830567571363953    0.2564732928256816    
  0.21531552240114796    0.17866573916604575    0.14815100648815105    0.1240279177711082    0.10584863108177983    
  0.09292824119718257    0.0846499426922124    0.08060528670906604    0.08060528670906603    0.08464994269221239    
  0.09292824119718254    0.10584863108177983    0.12402791777110822    0.148151006488151    0.17866573916604575    
  0.2153155224011479    0.2564732928256816    0.29830567571363953    0.3342930362870292    0.3562982134853227    
  0.3579335597001698    0.33868081795261573    0.3052819381846487    0.2686888823456088    0.23909366323830175    
  0.22294142519364651    0.2229414251936466    0.23909366323830175    0.26868888234560884    0.19744336487346334    
  0.23909366323830175    0.2881422077011004    0.3318684288575001    0.3569429022963951    0.3562982134853227    
  0.33228097914493343    0.2936496871199571    0.2500196107855103    0.20828130602132647    0.1720377372458816    
  0.14254810010041394    0.11976772285855382    0.103070521698426    0.09171737850456596    0.08512660826099408    
  0.08296432561970482    0.08512660826099405    0.09171737850456596    0.10307052169842598    0.11976772285855378    
  0.14254810010041394    0.17203773724588162    0.20828130602132647    0.2500196107855103    0.2936496871199571    
  0.33228097914493343    0.3562982134853227    0.356942902296395    0.3318684288575001    0.2881422077011004    
  0.2390936632383017    0.1974433648734634    0.17074439937744024    0.16169372387885225    0.1707443993774402    
  0.19744336487346334    0.13451569427984528    0.1707443993774402    0.2229414251936466    0.28187354763982214    
  0.3318684288575001    0.3579335597001697    0.3542240624293111    0.32600363340215804    0.28434451273206046    
  0.23958976823869466    0.19828170689601204    0.16339820865367286    0.1356948652745138    0.11482152617940074    
  0.10002496702376594    0.09057388655531867    0.08596638150452435    0.08596638150452432    0.09057388655531867    
  0.10002496702376594    0.11482152617940074    0.13569486527451383    0.16339820865367288    0.198281706896012    
  0.23958976823869463    0.2843445127320604    0.32600363340215804    0.35422406242931104    0.3579335597001698    
  0.3318684288575002    0.28187354763982225    0.2229414251936466    0.1707443993774402    0.1345156942798453    
  0.11663997726801452    0.11663997726801446    0.13451569427984528    0.09086949797989267    0.11663997726801446    