#     DFTpy    
  CRYSTAL 
    
  PRIMVEC    
  1.5361802708099903    -2.66074227862783    0.0    
  1.5361802708099903    2.66074227862783    0.0    
  0.0    0.0    2.8915879055172407    
  PRIMCOORD    
  1    1    
  Si    0.0    0.0    0.0    
  BEGIN_BLOCK_DATAGRID_3D    
  3d_datagrid_density    
  BEGIN_DATAGRID_3D#0    
  31    31    28    
  0.0    0.0    0.0    
  1.536180276539972    -2.66074228855245    0.0    
  1.536180276539972    2.66074228855245    0.0    
  0.0    0.0    2.891587916302919    
  0.0568306815966054    0.06468810475035405    0.09053984592338969    0.1385990913474124    0.2074858699069518    
  0.28308024157996986    0.3420732068582397    0.3667533179723946    0.3560789741236286    0.32238274582359766    
  0.2805401139897083    0.2409336271214537    0.2087078992790645    0.1856811985761389    0.17208009152882223    
  0.16760603047357286    0.17208009152882223    0.18568119857613893    0.2087078992790645    0.2409336271214537    
  0.2805401139897083    0.32238274582359766    0.3560789741236286    0.3667533179723945    0.3420732068582397    
  0.28308024157996986    0.20748586990695186    0.1385990913474124    0.09053984592338964    0.06468810475035398    
  0.0568306815966054    0.06468810475035393    0.06468810475035398    0.08158516561834178    0.11889586236858758    
  0.1784148193947249    0.2521388733240343    0.3200530240963022    0.36050117606197346    0.3645626089391504    
  0.3394324104492809    0.29978235268621717    0.25828260301941564    0.2222519425591124    0.19477995401193735    
  0.1766693545060268    0.16776452606245743    0.16776452606245743    0.17666935450602683    0.19477995401193735    
  0.2222519425591124    0.25828260301941564    0.2997823526862173    0.33943241044928085    0.3645626089391503    
  0.3605011760619734    0.3200530240963022    0.2521388733240343    0.1784148193947249    0.11889586236858758    
  0.08158516561834173    0.06468810475035393    0.09053984592338966    0.08158516561834178    0.09053984592338969    
  0.11889586236858767    0.16850564512465604    0.23497683593808094    0.3029966506372997    0.35153430549532566    
  0.3669106432298563    0.35062211137617394    0.3149142286134495    0.2732217493034814    0.23459785156081006    
  0.20344745550158033    0.1812800923095864    0.16821415663325956    0.16392020405322555    0.1682141566332596    
  0.18128009230958644    0.20344745550158033    0.23459785156081003    0.2732217493034814    0.31491422861344953    
  0.35062211137617394    0.36691064322985617    0.35153430549532566    0.30299665063729975    0.23497683593808094    
  0.16850564512465604    0.11889586236858762    0.09053984592338966    0.1385990913474124    0.11889586236858765    
  0.11889586236858762    0.13859909134741244    0.17841481939472492    0.23497683593808086    0.2966617881005056    
  0.34541344009260616    0.366389836123454    0.3568390472024034    0.32551012908246457    0.28495692420401575    
  0.24503055701320742    0.2111843166865369    0.18564225584208285    0.1688869302594669    0.16066797214431675    
  0.16066797214431675    0.16888693025946688    0.18564225584208277    0.2111843166865369    0.24503055701320745    
  0.28495692420401575    0.32551012908246457    0.35683904720240334    0.3663898361234539    0.3454134400926061    
  0.2966617881005056    0.23497683593808089    0.17841481939472484    0.1385990913474124    0.20748586990695186    
  0.17841481939472492    0.16850564512465607    0.17841481939472495    0.2074858699069518    0.2521388733240343    
  0.3029966506372997    0.34541344009260616    0.3658469898276996    0.3594594291617644    0.33167193671114636    
  0.29299542054707145    0.25296486139849417    0.2175337012285542    0.18948649619947452    0.16968797397732524    
  0.15805917155759952    0.15424228214982602    0.15805917155759952    0.1696879739773252    0.18948649619947455    
  0.2175337012285543    0.25296486139849417    0.29299542054707145    0.33167193671114636    0.3594594291617643    
  0.3658469898276996    0.34541344009260605    0.3029966506372997    0.2521388733240343    0.20748586990695186    
  0.2830802415799698    0.2521388733240343    0.23497683593808086    0.23497683593808094    0.2521388733240343    
  0.28308024157996986    0.3200530240963022    0.35153430549532566    0.366389836123454    0.3594594291617644    
  0.33368060195664806    0.2970720999554056    0.2579390641523303    0.22207651738467457    0.19253740839145117    
  0.1704977919839905    0.15609655837055203    0.14903728199251098    0.14903728199251093    0.15609655837055197    
  0.17049779198399057    0.19253740839145117    0.22207651738467463    0.2579390641523303    0.29707209995540557    
  0.33368060195664806    0.3594594291617644    0.36638983612345394    0.3515343054953256    0.32005302409630215    
  0.2830802415799698    0.3420732068582398    0.3200530240963022    0.30299665063729975    0.2966617881005056    
  0.3029966506372997    0.32005302409630226    0.3420732068582398    0.36050117606197346    0.3669106432298563    
  0.3568390472024034    0.33167193671114636    0.2970720999554057    0.2596359353613888    0.22445610086614592    
  0.1945189301613716    0.1711703909887432    0.15475092381028632    0.14509542972646083    0.14191987235619702    
  0.1450954297264608    0.15475092381028632    0.17117039098874315    0.19451893016137162    0.22445610086614592    
  0.2596359353613888    0.29707209995540557    0.3316719367111463    0.3568390472024034    0.3669106432298562    
  0.3605011760619734    0.3420732068582398    0.3667533179723946    0.3605011760619734    0.3515343054953256    
  0.3454134400926061    0.3454134400926061    0.35153430549532566    0.3605011760619734    0.3667533179723946    
  0.3645626089391503    0.35062211137617394    0.3255101290824646    0.29299542054707145    0.2579390641523303    
  0.22445610086614592    0.1952085910532131    0.17155623151011634    0.15397464595381866    0.1424438159755958    
  0.13675939759037326    0.13675939759037326    0.14244381597559577    0.15397464595381866    0.17155623151011634    
  0.1952085910532131    0.22445610086614595    0.2579390641523303    0.29299542054707145    0.32551012908246457    
  0.35062211137617394    0.3645626089391503    0.3667533179723946    0.35607897412362854    0.3645626089391503    
  0.3669106432298562    0.36638983612345394    0.3658469898276996    0.36638983612345394    0.36691064322985617    
  0.36456260893915027    0.35607897412362854    0.33943241044928085    0.3149142286134495    0.28495692420401575    
  0.25296486139849417    0.22207651738467457    0.1945189301613716    0.1715562315101163    0.15372221435389227    
  0.14110875744108153    0.13361801735775397    0.1311361562010458    0.13361801735775392    0.14110875744108156    
  0.1537222143538923    0.1715562315101164    0.1945189301613716    0.22207651738467457    0.2529648613984941    
  0.2849569242040157    0.3149142286134495    0.33943241044928074    0.35607897412362854    0.32238274582359766    
  0.33943241044928085    0.35062211137617394    0.35683904720240334    0.3594594291617644    0.35945942916176427    
  0.35683904720240334    0.350622111376174    0.33943241044928085    0.32238274582359766    0.29978235268621717    
  0.2732217493034814    0.24503055701320745    0.21753370122855425    0.19253740839145123    0.17117039098874318    
  0.15397464595381868    0.14110875744108156    0.1325612118425226    0.12829501325493814    0.12829501325493814    
  0.13256121184252262    0.14110875744108153    0.15397464595381866    0.17117039098874318    0.19253740839145117    
  0.2175337012285542    0.24503055701320745    0.2732217493034814    0.29978235268621717    0.32238274582359766    
  0.2805401139897083    0.29978235268621717    0.31491422861344953    0.3255101290824646    0.33167193671114636    
  0.3336806019566481    0.33167193671114636    0.3255101290824646    0.31491422861344953    0.2997823526862173    
  0.2805401139897083    0.25828260301941575    0.23459785156081006    0.2111843166865369    0.18948649619947455    
  0.17049779198399054    0.15475092381028627    0.14244381597559577    0.13361801735775397    0.12829501325493814    
  0.12651351084970786    0.12829501325493817    0.13361801735775397    0.14244381597559577    0.15475092381028632    
  0.1704977919839905    0.18948649619947455    0.21118431668653687    0.23459785156080998    0.25828260301941564    
  0.2805401139897083    0.2409336271214537    0.25828260301941575    0.2732217493034813    0.2849569242040157    
  0.29299542054707145    0.29707209995540557    0.2970720999554057    0.29299542054707145    0.28495692420401575    
  0.2732217493034814    0.2582826030194157    0.2409336271214537    0.2222519425591124    0.20344745550158036    
  0.1856422558420828    0.16968797397732524    0.156096558370552    0.1450954297264608    0.13675939759037328    
  0.13113615620104574    0.12829501325493817    0.1282950132549382    0.1311361562010458    0.1367593975903733    
  0.1450954297264608    0.156096558370552    0.1696879739773252    0.18564225584208277    0.20344745550158028    
  0.22225194255911238    0.2409336271214537    0.20870789927906447    0.2222519425591124    0.23459785156080998    
  0.24503055701320736    0.2529648613984941    0.2579390641523303    0.2596359353613888    0.2579390641523303    
  0.2529648613984941    0.24503055701320742    0.23459785156081006    0.2222519425591124    0.2087078992790645    
  0.19477995401193737    0.18128009230958644    0.16888693025946688    0.15805917155759955    0.14903728199251098    
  0.14191987235619702    0.13675939759037326    0.13361801735775397    0.13256121184252262    0.13361801735775392    
  0.13675939759037328    0.14191987235619702    0.14903728199251096    0.15805917155759952    0.16888693025946686    
  0.18128009230958642    0.19477995401193732    0.20870789927906447    0.18568119857613882    0.19477995401193735    
  0.20344745550158028    0.2111843166865369    0.21753370122855425    0.22207651738467463    0.22445610086614592    
  0.22445610086614595    0.22207651738467457    0.21753370122855425    0.2111843166865369    0.20344745550158036    
  0.19477995401193737    0.18568119857613893    0.1766693545060268    0.1682141566332595    0.1606679721443167    
  0.15424228214982605    0.14903728199251093    0.14509542972646075    0.14244381597559572    0.14110875744108156    
  0.14110875744108153    0.14244381597559577    0.14509542972646078    0.14903728199251093    0.154242282149826    
  0.16066797214431672    0.16821415663325953    0.1766693545060268    0.18568119857613882    0.17208009152882217    
  0.1766693545060268    0.18128009230958642    0.18564225584208274    0.18948649619947455    0.19253740839145117    
  0.1945189301613716    0.1952085910532131    0.1945189301613716    0.19253740839145117    0.1894864961994745    
  0.18564225584208283    0.18128009230958642    0.1766693545060268    0.1720800915288222    0.16776452606245743    
  0.16392020405322552    0.16066797214431677    0.15805917155759952    0.156096558370552    0.15475092381028624    
  0.15397464595381868    0.15372221435389227    0.1539746459538187    0.15475092381028632    0.15609655837055206    
  0.15805917155759952    0.16066797214431675    0.16392020405322555    0.1677645260624574    0.17208009152882217    
  0.1676060304735728    0.16776452606245745    0.16821415663325953    0.1688869302594669    0.1696879739773252    
  0.17049779198399054    0.17117039098874315    0.17155623151011634    0.1715562315101163    0.17117039098874315    
  0.1704977919839905    0.16968797397732524    0.16888693025946688    0.16821415663325956    0.16776452606245748    
  0.16760603047357286    0.16776452606245748    0.1682141566332596    0.16888693025946688    0.1696879739773252    
  0.1704977919839905    0.17117039098874315    0.1715562315101163    0.17155623151011634    0.17117039098874318    
  0.1704977919839905    0.16968797397732527    0.16888693025946688    0.16821415663325956    0.16776452606245743    
  0.1676060304735728    0.17208009152882217    0.16776452606245745    0.16392020405322555    0.16066797214431675    
  0.1580591715575995    0.15609655837055206    0.15475092381028632    0.15397464595381868    0.1537222143538923    
  0.15397464595381866    0.1547509238102863    0.15609655837055206    0.15805917155759952    0.16066797214431675    
  0.16392020405322552    0.16776452606245743    0.1720800915288222    0.17666935450602686    0.1812800923095864    
  0.18564225584208277    0.1894864961994745    0.19253740839145117    0.1945189301613716    0.19520859105321303    
  0.1945189301613716    0.19253740839145117    0.18948649619947452    0.18564225584208277    0.18128009230958647    
  0.17666935450602678    0.17208009152882217    0.18568119857613888    0.17666935450602686    0.1682141566332595    
  0.16066797214431675    0.154242282149826    0.14903728199251093    0.1450954297264608    0.1424438159755958    
  0.14110875744108153    0.14110875744108153    0.14244381597559572    0.1450954297264608    0.14903728199251096    
  0.154242282149826    0.16066797214431675    0.1682141566332596    0.1766693545060268    0.18568119857613893    
  0.19477995401193735    0.20344745550158033    0.21118431668653695    0.21753370122855425    0.22207651738467457    
  0.22445610086614592    0.22445610086614587    0.22207651738467463    0.21753370122855425    0.21118431668653695    
  0.20344745550158022    0.19477995401193732    0.18568119857613888    0.20870789927906447    0.19477995401193737    
  0.18128009230958636    0.16888693025946688    0.1580591715575995    0.14903728199251093    0.14191987235619702    
  0.13675939759037328    0.13361801735775394    0.1325612118425226    0.13361801735775397    0.1367593975903733    
  0.14191987235619702    0.14903728199251096    0.15805917155759958    0.16888693025946688    0.18128009230958642    
  0.19477995401193737    0.2087078992790645    0.2222519425591124    0.23459785156081006    0.24503055701320745    
  0.2529648613984941    0.2579390641523303    0.2596359353613888    0.2579390641523303    0.2529648613984941    
  0.24503055701320736    0.23459785156081003    0.2222519425591124    0.20870789927906447    0.24093362712145366    
  0.22225194255911246    0.2034474555015803    0.1856422558420828    0.16968797397732524    0.15609655837055206    
  0.1450954297264608    0.13675939759037334    0.1311361562010458    0.12829501325493814    0.1282950132549382    
  0.1311361562010458    0.13675939759037328    0.1450954297264608    0.15609655837055203    0.1696879739773252    
  0.18564225584208277    0.2034474555015804    0.2222519425591124    0.2409336271214537    0.25828260301941564    
  0.2732217493034814    0.2849569242040157    0.2929954205470714    0.29707209995540557    0.29707209995540557    
  0.2929954205470714    0.2849569242040157    0.2732217493034814    0.2582826030194157    0.24093362712145366    
  0.2805401139897083    0.2582826030194157    0.23459785156081003    0.21118431668653695    0.18948649619947455    
  0.17049779198399054    0.15475092381028632    0.14244381597559577    0.13361801735775397    0.12829501325493817    
  0.12651351084970788    0.1282950132549382    0.13361801735775397    0.14244381597559577    0.15475092381028632    
  0.1704977919839905    0.1894864961994745    0.21118431668653695    0.23459785156081003    0.25828260301941564    
  0.28054011398970824    0.2997823526862173    0.3149142286134495    0.3255101290824646    0.3316719367111463    
  0.33368060195664806    0.33167193671114625    0.3255101290824646    0.3149142286134495    0.2997823526862171    
  0.2805401139897083    0.32238274582359766    0.2997823526862172    0.2732217493034814    0.24503055701320745    
  0.21753370122855425    0.19253740839145117    0.17117039098874315    0.15397464595381866    0.1411087574410815    
  0.13256121184252262    0.12829501325493817    0.1282950132549382    0.13256121184252262    0.14110875744108153    
  0.1539746459538187    0.17117039098874315    0.1925374083914512    0.2175337012285543    0.24503055701320745    
  0.2732217493034814    0.2997823526862172    0.32238274582359766    0.33943241044928085    0.35062211137617394    
  0.3568390472024034    0.3594594291617644    0.3594594291617644    0.35683904720240334    0.35062211137617394    
  0.33943241044928074    0.32238274582359766    0.35607897412362854    0.33943241044928085    0.3149142286134495    
  0.2849569242040157    0.2529648613984941    0.22207651738467457    0.1945189301613716    0.17155623151011637    
  0.1537222143538923    0.14110875744108153    0.13361801735775397    0.1311361562010458    0.13361801735775394    
  0.14110875744108153    0.15372221435389233    0.1715562315101163    0.1945189301613716    0.22207651738467463    
  0.25296486139849417    0.2849569242040157    0.31491422861344953    0.33943241044928085    0.35607897412362854    
  0.3645626089391503    0.36691064322985617    0.36638983612345394    0.36584698982769953    0.3663898361234539    
  0.3669106432298562    0.36456260893915027    0.35607897412362854    0.3667533179723946    0.3645626089391504    
  0.35062211137617394    0.32551012908246457    0.2929954205470714    0.2579390641523303    0.22445610086614592    
  0.1952085910532131    0.17155623151011637    0.1539746459538187    0.14244381597559577    0.13675939759037328    
  0.13675939759037328    0.14244381597559577    0.15397464595381866    0.17155623151011637    0.1952085910532131    
  0.22445610086614595    0.2579390641523303    0.29299542054707145    0.3255101290824646    0.35062211137617394    
  0.3645626089391503    0.3667533179723946    0.3605011760619734    0.3515343054953256    0.3454134400926061    
  0.3454134400926061    0.3515343054953256    0.36050117606197335    0.3667533179723946    0.3420732068582398    
  0.3605011760619734    0.3669106432298563    0.35683904720240334    0.3316719367111463    0.2970720999554057    
  0.25963593536138885    0.22445610086614595    0.1945189301613716    0.17117039098874315    0.15475092381028635    
  0.1450954297264608    0.14191987235619702    0.1450954297264608    0.15475092381028632    0.1711703909887432    
  0.1945189301613716    0.22445610086614595    0.2596359353613888    0.2970720999554056    0.33167193671114636    
  0.35683904720240334    0.3669106432298563    0.3605011760619734    0.3420732068582398    0.32005302409630215    
  0.3029966506372997    0.2966617881005056    0.3029966506372997    0.3200530240963022    0.3420732068582398    
  0.2830802415799698    0.32005302409630215    0.3515343054953256    0.366389836123454    0.3594594291617644    
  0.33368060195664806    0.2970720999554057    0.2579390641523303    0.22207651738467463    0.1925374083914512    
  0.17049779198399057    0.15609655837055203    0.1490372819925109    0.14903728199251096    0.15609655837055206    
  0.1704977919839905    0.19253740839145117    0.22207651738467463    0.2579390641523303    0.2970720999554056    
  0.3336806019566481    0.3594594291617643    0.36638983612345394    0.3515343054953256    0.3200530240963022    
  0.2830802415799698    0.2521388733240343    0.23497683593808089    0.2349768359380808    0.2521388733240343    
  0.2830802415799698    0.20748586990695192    0.25213887332403434    0.3029966506372997    0.34541344009260616    
  0.3658469898276996    0.35945942916176427    0.33167193671114636    0.29299542054707145    0.25296486139849417    
  0.2175337012285543    0.18948649619947455    0.16968797397732527    0.15805917155759952    0.154242282149826    
  0.15805917155759955    0.16968797397732524    0.18948649619947455    0.21753370122855425    0.2529648613984941    
  0.2929954205470714    0.33167193671114636    0.3594594291617643    0.3658469898276996    0.3454134400926061    
  0.3029966506372997    0.2521388733240343    0.2074858699069518    0.17841481939472495    0.16850564512465602    
  0.17841481939472484    0.20748586990695192    0.13859909134741236    0.1784148193947249    0.23497683593808094    
  0.2966617881005056    0.3454134400926061    0.36638983612345394    0.3568390472024034    0.3255101290824646    
  0.2849569242040157    0.24503055701320745    0.21118431668653687    0.1856422558420828    0.1688869302594669    
  0.16066797214431672    0.16066797214431675    0.16888693025946688    0.18564225584208285    0.21118431668653695    
  0.24503055701320742    0.2849569242040157    0.32551012908246457    0.35683904720240334    0.36638983612345394    
  0.3454134400926062    0.2966617881005056    0.23497683593808089    0.17841481939472492    0.13859909134741236    
  0.1188958623685876    0.11889586236858755    0.13859909134741236    0.09053984592338969    0.11889586236858762    
  0.16850564512465604    0.23497683593808089    0.3029966506372997    0.3515343054953256    0.3669106432298562    
  0.350622111376174    0.31491422861344953    0.2732217493034815    0.23459785156081003    0.20344745550158033    
  0.18128009230958644    0.16821415663325956    0.16392020405322555    0.1682141566332596    0.18128009230958644    
  0.20344745550158036    0.23459785156081006    0.2732217493034814    0.31491422861344953    0.35062211137617394    
  0.3669106432298562    0.3515343054953257    0.30299665063729975    0.23497683593808089    0.16850564512465604    
  0.11889586236858762    0.09053984592338969    0.08158516561834171    0.09053984592338969    0.06468810475035393    
  0.08158516561834182    0.11889586236858762    0.17841481939472492    0.2521388733240343    0.3200530240963022    
  0.3605011760619734    0.36456260893915027    0.33943241044928085    0.2997823526862173    0.25828260301941564    
  0.2222519425591124    0.19477995401193735    0.1766693545060268    0.16776452606245748    0.16776452606245743    
  0.1766693545060268    0.19477995401193737    0.2222519425591124    0.25828260301941564    0.2997823526862173    
  0.3394324104492808    0.3645626089391503    0.3605011760619734    0.32005302409630215    0.2521388733240343    
  0.17841481939472492    0.11889586236858758    0.08158516561834175    0.0646881047503539    0.06468810475035393    
  0.0568306815966054    0.06468810475035405    0.09053984592338969    0.1385990913474124    0.2074858699069518    
  0.28308024157996986    0.3420732068582397    0.3667533179723946    0.3560789741236286    0.32238274582359766    
  0.2805401139897083    0.2409336271214537    0.2087078992790645    0.1856811985761389    0.17208009152882223    
  0.16760603047357286    0.17208009152882223    0.18568119857613893    0.2087078992790645    0.2409336271214537    
  0.2805401139897083    0.32238274582359766    0.3560789741236286    0.3667533179723945    0.3420732068582397    
  0.28308024157996986    0.20748586990695186    0.1385990913474124    0.09053984592338964    0.06468810475035398    
  0.0568306815966054    0.0656341463270313    0.07393810751839382    0.1008410686110945    0.14966017774369894    
  0.21781078993211558    0.29061764039412913    0.345587552580147    0.3665918268151951    0.35364305618512804    
  0.31908892953000373    0.27725117785055187    0.23798191287551462    0.20612968570477616    0.18339573814326732    
  0.1699730722544505    0.1655582865231533    0.1699730722544505    0.18339573814326735    0.2061296857047762    
  0.23798191287551462    0.27725117785055187    0.31908892953000373    0.3536430561851281    0.36659182681519503    
  0.345587552580147    0.2906176403941291    0.21781078993211564    0.14966017774369894    0.10084106861109444    
  0.07393810751839372    0.0656341463270313    0.07393810751839366    0.07393810751839379    0.09158551519529233    
  0.12979852256461888    0.1892710986210366    0.26106558308460714    0.3253534809683675    0.3618258432421623    
  0.3629490656750694    0.3363811814949872    0.2964227334141745    0.2551610200826822    0.21951218455069132    
  0.19238015784457468    0.17450516995476403    0.1657180637176222    0.1657180637176222    0.17450516995476406    
  0.1923801578445747    0.21951218455069132    0.2551610200826822    0.2964227334141746    0.3363811814949872    
  0.36294906567506935    0.3618258432421623    0.3253534809683675    0.26106558308460714    0.1892710986210366    
  0.12979852256461888    0.09158551519529232    0.07393810751839366    0.10084106861109444    0.09158551519529233    
  0.1008410686110945    0.12979852256461896    0.17947160121749217    0.24451923313076027    0.3094094187790705    
  0.3540394824893185    0.3661159324871141    0.34791654102142916    0.3115725280319217    0.26998004985095225    
  0.23172072478669462    0.20094514380064402    0.1790646130314718    0.16617134781105453    0.16193438264312898    
  0.16617134781105455    0.1790646130314718    0.20094514380064402    0.23172072478669456    0.2699800498509523    
  0.3115725280319217    0.34791654102142916    0.36611593248711405    0.3540394824893185    0.3094094187790705    
  0.24451923313076027    0.17947160121749217    0.1297985225646189    0.10084106861109444    0.14966017774369894    
  0.12979852256461896    0.12979852256461893    0.14966017774369894    0.1892710986210366    0.24451923313076027    
  0.3034447709069427    0.3485604454468555    0.36619015613465605    0.3544643033380444    0.3222384177505094    
  0.28164179261165934    0.24204376444266412    0.2085939347765757    0.18338237002471716    0.1668495290730358    
  0.15873987627415553    0.1587398762741555    0.16684952907303577    0.18338237002471708    0.2085939347765757    
  0.24204376444266412    0.28164179261165934    0.32223841775050943    0.35446430333804435    0.366190156134656    
  0.34856044544685544    0.3034447709069427    0.24451923313076024    0.18927109862103655    0.14966017774369894    
  0.21781078993211558    0.1892710986210366    0.1794716012174922    0.18927109862103664    0.21781078993211564    
  0.2610655830846072    0.3094094187790705    0.3485604454468555    0.3658636813809988    0.35728497362037753    
  0.32847142179472416    0.2896425622156399    0.24989771179819023    0.2148717106486039    0.18718927875679336    
  0.1676566945360996    0.1561837238403851    0.15241751743560758    0.15618372384038515    0.1676566945360996    
  0.18718927875679336    0.21487171064860391    0.24989771179819023    0.2896425622156399    0.32847142179472416    
  0.3572849736203775    0.3658636813809988    0.3485604454468554    0.3094094187790705    0.2610655830846071    
  0.21781078993211558    0.2906176403941291    0.2610655830846072    0.24451923313076024    0.24451923313076027    
  0.2610655830846072    0.2906176403941291    0.3253534809683675    0.3540394824893185    0.36619015613465605    
  0.3572849736203775    0.3305093912359921    0.2937044844805061    0.25482244698772966    0.21936265389738857    
  0.1902107146370395    0.16847213381516896    0.15426685125992928    0.14730190169834934    0.14730190169834928    
  0.15426685125992926    0.16847213381516898    0.1902107146370395    0.21936265389738857    0.25482244698772966    
  0.29370448448050607    0.3305093912359921    0.3572849736203775    0.366190156134656    0.35403948248931844    
  0.32535348096836747    0.2906176403941291    0.345587552580147    0.3253534809683675    0.3094094187790705    
  0.3034447709069427    0.3094094187790705    0.3253534809683676    0.34558755258014706    0.3618258432421623    
  0.3661159324871141    0.3544643033380444    0.32847142179472416    0.2937044844805061    0.2565025443424416    
  0.22171458773421585    0.19217275493975527    0.16914887142766324    0.1529576378726354    0.14343326388112895    
  0.1402999154593434    0.14343326388112893    0.1529576378726354    0.16914887142766322    0.1921727549397553    
  0.22171458773421585    0.25650254434244163    0.29370448448050607    0.3284714217947241    0.3544643033380444    
  0.3661159324871141    0.36182584324216227    0.345587552580147    0.36659182681519503    0.36182584324216227    
  0.3540394824893185    0.34856044544685544    0.34856044544685544    0.3540394824893185    0.36182584324216227    
  0.3665918268151951    0.36294906567506935    0.34791654102142916    0.3222384177505095    0.2896425622156399    
  0.25482244698772966    0.22171458773421585    0.19285552657385865    0.1695368548653369    0.15220525656434616    
  0.1408349777680997    0.13522749469920392    0.13522749469920392    0.14083497776809964    0.1522052565643462    
  0.1695368548653369    0.19285552657385865    0.22171458773421585    0.25482244698772966    0.2896425622156399    
  0.3222384177505094    0.3479165410214291    0.36294906567506935    0.36659182681519503    0.35364305618512804    
  0.36294906567506935    0.3661159324871141    0.366190156134656    0.3658636813809988    0.366190156134656    
  0.36611593248711405    0.3629490656750693    0.35364305618512804    0.3363811814949872    0.3115725280319217    
  0.28164179261165934    0.24989771179819023    0.21936265389738857    0.19217275493975527    0.1695368548653369    
  0.1519612047617657    0.13952842304940938    0.1321423175419456    0.12969443741562642    0.13214231754194558    
  0.1395284230494094    0.1519612047617657    0.16953685486533698    0.19217275493975527    0.21936265389738857    
  0.24989771179819023    0.28164179261165934    0.31157252803192165    0.3363811814949871    0.35364305618512804    
  0.31908892953000373    0.3363811814949872    0.34791654102142916    0.35446430333804435    0.3572849736203775    
  0.3572849736203775    0.3544643033380444    0.3479165410214292    0.3363811814949872    0.31908892953000373    
  0.2964227334141745    0.26998004985095225    0.24204376444266412    0.2148717106486039    0.19021071463703954    
  0.16914887142766324    0.1522052565643462    0.1395284230494094    0.13110497007555763    0.12689980663279096    
  0.12689980663279096    0.13110497007555766    0.13952842304940938    0.15220525656434616    0.16914887142766322    
  0.1902107146370395    0.2148717106486039    0.24204376444266412    0.26998004985095225    0.2964227334141745    