#     DFTpy    
  CRYSTAL 
    
  PRIMVEC    
  1.2921986983872302    -2.2381537990810503    0.0    
  1.2921986983872302    2.2381537990810503    0.0    
  0.0    0.0    2.4323357087586204    
  PRIMCOORD    
  1    1    
  Si    0.0    0.0    0.0    
  BEGIN_BLOCK_DATAGRID_3D    
  3d_datagrid_density    
  BEGIN_DATAGRID_3D#0    
  26    26    25    
  0.0    0.0    0.0    
  1.292198703207156    -2.2381538074294065    0.0    
  1.292198703207156    2.2381538074294065    0.0    
  0.0    0.0    2.432335717831279    
  0.04941905118291541    0.05702956144693297    0.08251813828659088    0.1313337312745026    0.20407292481406122    
  0.28841308600156845    0.36144766898810265    0.4042114509514199    0.41366820840578356    0.4005408342341849    
  0.3790599588891722    0.3599102220489031    0.34907062205999356    0.34907062205999356    0.3599102220489031    
  0.3790599588891722    0.4005408342341849    0.41366820840578356    0.4042114509514199    0.36144766898810265    
  0.28841308600156845    0.20407292481406122    0.1313337312745026    0.08251813828659088    0.05702956144693297    
  0.04941905118291541    0.05702956144693302    0.05702956144693288    0.07361901525459508    0.11112043817682193    
  0.17297763731073953    0.25314536339228694    0.3326983324304655    0.38943119551349126    0.4126808998271226    
  0.4078165880199545    0.388421419774323    0.36704257269006696    0.3516195225381506    0.34609003126954596    
  0.35161952253815043    0.367042572690067    0.3884214197743229    0.4078165880199545    0.4126808998271226    
  0.38943119551349126    0.3326983324304655    0.253145363392287    0.17297763731073962    0.11112043817682189    
  0.07361901525459498    0.05702956144693302    0.08251813828659092    0.07361901525459505    0.0825181382865909    
  0.11112043817682189    0.16251503532238115    0.23405713275099266    0.31177042894802104    0.37463258378434594    
  0.40767539812359277    0.4106860636452071    0.3946291245308114    0.3724547555633558    0.3535013839644588    
  0.342928604986006    0.342928604986006    0.3535013839644588    0.3724547555633557    0.3946291245308113    
  0.4106860636452071    0.4076753981235928    0.374632583784346    0.31177042894802093    0.2340571327509927    
  0.1625150353223812    0.11112043817682189    0.08251813828659092    0.13133373127450257    0.11112043817682185    
  0.11112043817682185    0.13133373127450257    0.17297763731073953    0.23405713275099266    0.3041887289253546    
  0.3655866758980759    0.40251893507484987    0.4108083564195017    0.39799076827000596    0.3759778971115464    
  0.35460425158593134    0.33983093507086404    0.3346106772009564    0.339830935070864    0.3546042515859311    
  0.3759778971115464    0.397990768270006    0.4108083564195018    0.40251893507485    0.36558667589807586    
  0.3041887289253546    0.23405713275099266    0.17297763731073953    0.13133373127450257    0.2040729248140613    
  0.17297763731073953    0.16251503532238123    0.17297763731073962    0.20407292481406128    0.25314536339228694    
  0.31177042894802104    0.36558667589807586    0.40039625685416985    0.4101997574400176    0.39938920084229124    
  0.3778759023791497    0.35503514658767227    0.3370752937111237    0.32736381170114154    0.3273638117011417    
  0.3370752937111236    0.3550351465876722    0.3778759023791497    0.3993892008422913    0.41019975744001763    
  0.40039625685416985    0.3655866758980759    0.3117704289480211    0.25314536339228694    0.2040729248140613    
  0.2884130860015684    0.253145363392287    0.23405713275099266    0.23405713275099266    0.253145363392287    
  0.28841308600156845    0.3326983324304655    0.37463258378434594    0.40251893507484987    0.41019975744001763    
  0.3997296866444627    0.37863868887445057    0.3550850352053825    0.33498133888788895    0.32176851698682196    
  0.31718431505923106    0.3217685169868219    0.3349813388878888    0.35508503520538237    0.3786386888744506    
  0.3997296866444626    0.41019975744001763    0.4025189350748499    0.37463258378434594    0.3326983324304655    
  0.2884130860015684    0.36144766898810254    0.3326983324304654    0.31177042894802104    0.3041887289253546    
  0.311770428948021    0.3326983324304654    0.3614476689881026    0.38943119551349126    0.40767539812359277    
  0.4108083564195017    0.39938920084229124    0.37863868887445057    0.3550587981395392    0.3338450685475279    
  0.3182485076851072    0.31004961445504164    0.3100496144550416    0.31824850768510726    0.3338450685475279    
  0.3550587981395392    0.3786386888744505    0.39938920084229124    0.4108083564195019    0.4076753981235928    
  0.38943119551349126    0.36144766898810254    0.40421145095141986    0.3894311955134913    0.374632583784346    
  0.3655866758980759    0.3655866758980759    0.37463258378434594    0.3894311955134913    0.4042114509514199    
  0.4126808998271226    0.4106860636452071    0.397990768270006    0.3778759023791497    0.3550850352053825    
  0.3338450685475279    0.31704923425999926    0.3063926905479217    0.3027494677648306    0.30639269054792156    
  0.31704923425999926    0.33384506854752793    0.35508503520538237    0.3778759023791497    0.397990768270006    
  0.4106860636452071    0.4126808998271227    0.40421145095141986    0.41366820840578356    0.41268089982712264    
  0.4076753981235928    0.40251893507485    0.40039625685416985    0.4025189350748499    0.4076753981235928    
  0.41268089982712264    0.41366820840578356    0.4078165880199544    0.3946291245308114    0.3759778971115464    
  0.3550351465876722    0.33498133888788884    0.31824850768510715    0.3063926905479217    0.3002770479051836    
  0.30027704790518367    0.3063926905479216    0.3182485076851073    0.3349813388878888    0.3550351465876721    
  0.3759778971115464    0.3946291245308113    0.4078165880199546    0.41366820840578356    0.400540834234185    
  0.40781658801995446    0.4106860636452072    0.4108083564195019    0.4101997574400175    0.4101997574400176    
  0.41080835641950186    0.4106860636452071    0.4078165880199545    0.4005408342341849    0.388421419774323    
  0.3724547555633558    0.3546042515859313    0.3370752937111236    0.32176851698682196    0.31004961445504176    
  0.3027494677648306    0.3002770479051837    0.3027494677648306    0.3100496144550417    0.3217685169868219    
  0.33707529371112355    0.3546042515859313    0.3724547555633559    0.3884214197743228    0.400540834234185    
  0.37905995888917204    0.3884214197743229    0.39462912453081134    0.39799076827000596    0.39938920084229124    
  0.39972968664446257    0.39938920084229124    0.39799076827000596    0.3946291245308113    0.3884214197743229    
  0.37905995888917215    0.3670425726900669    0.3535013839644588    0.339830935070864    0.32736381170114154    
  0.31718431505923106    0.3100496144550416    0.30639269054792156    0.30639269054792156    0.3100496144550417    
  0.31718431505923095    0.32736381170114165    0.339830935070864    0.3535013839644588    0.36704257269006696    
  0.37905995888917204    0.3599102220489031    0.36704257269006696    0.3724547555633558    0.37597789711154644    
  0.3778759023791497    0.3786386888744505    0.37863868887445057    0.3778759023791497    0.3759778971115464    
  0.3724547555633557    0.367042572690067    0.3599102220489031    0.3516195225381506    0.3429286049860061    
  0.3346106772009564    0.32736381170114165    0.3217685169868219    0.31824850768510715    0.31704923425999926    
  0.3182485076851072    0.32176851698682196    0.32736381170114154    0.3346106772009565    0.34292860498600597    
  0.35161952253815043    0.3599102220489031    0.34907062205999345    0.35161952253815054    0.35350138396445874    
  0.35460425158593123    0.3550351465876722    0.3550850352053824    0.3550587981395392    0.3550850352053825    
  0.3550351465876721    0.35460425158593123    0.3535013839644588    0.3516195225381505    0.34907062205999356    
  0.3460900312695459    0.342928604986006    0.3398309350708639    0.3370752937111235    0.3349813388878888    
  0.33384506854752793    0.3338450685475279    0.33498133888788884    0.33707529371112366    0.3398309350708639    
  0.3429286049860059    0.346090031269546    0.34907062205999345    0.34907062205999345    0.346090031269546    
  0.3429286049860059    0.3398309350708639    0.33707529371112366    0.33498133888788884    0.3338450685475279    
  0.33384506854752793    0.3349813388878888    0.3370752937111235    0.3398309350708639    0.342928604986006    
  0.3460900312695459    0.34907062205999356    0.3516195225381505    0.3535013839644588    0.35460425158593123    
  0.3550351465876721    0.3550850352053825    0.3550587981395392    0.3550850352053824    0.3550351465876722    
  0.35460425158593123    0.35350138396445874    0.35161952253815054    0.34907062205999345    0.3599102220489031    
  0.35161952253815043    0.34292860498600597    0.3346106772009565    0.32736381170114154    0.32176851698682196    
  0.3182485076851072    0.31704923425999926    0.31824850768510715    0.3217685169868219    0.32736381170114165    
  0.3346106772009564    0.3429286049860061    0.3516195225381506    0.3599102220489031    0.367042572690067    
  0.3724547555633557    0.3759778971115464    0.3778759023791497    0.37863868887445057    0.3786386888744505    
  0.3778759023791497    0.37597789711154644    0.3724547555633558    0.36704257269006696    0.3599102220489031    
  0.37905995888917204    0.36704257269006696    0.3535013839644588    0.339830935070864    0.32736381170114165    
  0.31718431505923095    0.3100496144550417    0.30639269054792156    0.30639269054792156    0.3100496144550416    
  0.31718431505923106    0.32736381170114154    0.339830935070864    0.3535013839644588    0.3670425726900669    
  0.37905995888917215    0.3884214197743229    0.3946291245308113    0.39799076827000596    0.39938920084229124    
  0.39972968664446257    0.39938920084229124    0.39799076827000596    0.39462912453081134    0.3884214197743229    
  0.37905995888917204    0.400540834234185    0.3884214197743228    0.3724547555633559    0.3546042515859313    
  0.33707529371112355    0.3217685169868219    0.3100496144550417    0.3027494677648306    0.3002770479051837    
  0.3027494677648306    0.31004961445504176    0.32176851698682196    0.3370752937111236    0.3546042515859313    
  0.3724547555633558    0.388421419774323    0.4005408342341849    0.4078165880199545    0.4106860636452071    
  0.41080835641950186    0.4101997574400176    0.4101997574400175    0.4108083564195019    0.4106860636452072    
  0.40781658801995446    0.400540834234185    0.41366820840578356    0.4078165880199546    0.3946291245308113    
  0.3759778971115464    0.3550351465876721    0.3349813388878888    0.3182485076851073    0.3063926905479216    
  0.30027704790518367    0.3002770479051836    0.3063926905479217    0.31824850768510715    0.33498133888788884    
  0.3550351465876722    0.3759778971115464    0.3946291245308114    0.4078165880199544    0.41366820840578356    
  0.41268089982712264    0.4076753981235928    0.4025189350748499    0.40039625685416985    0.40251893507485    
  0.4076753981235928    0.41268089982712264    0.41366820840578356    0.40421145095141986    0.4126808998271227    
  0.4106860636452071    0.397990768270006    0.3778759023791497    0.35508503520538237    0.33384506854752793    
  0.31704923425999926    0.30639269054792156    0.3027494677648306    0.3063926905479217    0.31704923425999926    
  0.3338450685475279    0.3550850352053825    0.3778759023791497    0.397990768270006    0.4106860636452071    
  0.4126808998271226    0.4042114509514199    0.3894311955134913    0.37463258378434594    0.3655866758980759    
  0.3655866758980759    0.374632583784346    0.3894311955134913    0.40421145095141986    0.36144766898810254    
  0.38943119551349126    0.4076753981235928    0.4108083564195019    0.39938920084229124    0.3786386888744505    
  0.3550587981395392    0.3338450685475279    0.31824850768510726    0.3100496144550416    0.31004961445504164    
  0.3182485076851072    0.3338450685475279    0.3550587981395392    0.37863868887445057    0.39938920084229124    
  0.4108083564195017    0.40767539812359277    0.38943119551349126    0.3614476689881026    0.3326983324304654    
  0.311770428948021    0.3041887289253546    0.31177042894802104    0.3326983324304654    0.36144766898810254    
  0.2884130860015684    0.3326983324304655    0.374632583784346    0.4025189350748499    0.41019975744001763    
  0.3997296866444626    0.3786386888744506    0.35508503520538237    0.3349813388878888    0.3217685169868219    
  0.31718431505923106    0.32176851698682196    0.33498133888788895    0.3550850352053825    0.37863868887445057    
  0.3997296866444627    0.41019975744001763    0.40251893507484987    0.37463258378434594    0.3326983324304655    
  0.28841308600156845    0.253145363392287    0.23405713275099266    0.23405713275099266    0.253145363392287    
  0.2884130860015684    0.2040729248140613    0.25314536339228694    0.3117704289480211    0.3655866758980759    
  0.40039625685416985    0.41019975744001763    0.3993892008422913    0.3778759023791497    0.3550351465876722    
  0.3370752937111236    0.3273638117011417    0.32736381170114154    0.3370752937111237    0.35503514658767227    
  0.3778759023791497    0.39938920084229124    0.4101997574400176    0.40039625685416985    0.36558667589807586    
  0.31177042894802104    0.25314536339228694    0.20407292481406128    0.17297763731073962    0.16251503532238123    
  0.17297763731073953    0.2040729248140613    0.13133373127450257    0.17297763731073953    0.23405713275099266    
  0.3041887289253546    0.36558667589807586    0.40251893507485    0.4108083564195018    0.397990768270006    
  0.3759778971115464    0.3546042515859311    0.339830935070864    0.3346106772009564    0.33983093507086404    
  0.35460425158593134    0.3759778971115464    0.39799076827000596    0.4108083564195017    0.40251893507484987    
  0.3655866758980759    0.3041887289253546    0.23405713275099266    0.17297763731073953    0.13133373127450257    
  0.11112043817682185    0.11112043817682185    0.13133373127450257    0.08251813828659092    0.11112043817682189    
  0.1625150353223812    0.2340571327509927    0.31177042894802093    0.374632583784346    0.4076753981235928    
  0.4106860636452071    0.3946291245308113    0.3724547555633557    0.3535013839644588    0.342928604986006    
  0.342928604986006    0.3535013839644588    0.3724547555633558    0.3946291245308114    0.4106860636452071    
  0.40767539812359277    0.37463258378434594    0.31177042894802104    0.23405713275099266    0.16251503532238115    
  0.11112043817682189    0.0825181382865909    0.07361901525459505    0.08251813828659092    0.05702956144693302    
  0.07361901525459498    0.11112043817682189    0.17297763731073962    0.253145363392287    0.3326983324304655    
  0.38943119551349126    0.4126808998271226    0.4078165880199545    0.3884214197743229    0.367042572690067    
  0.35161952253815043    0.34609003126954596    0.3516195225381506    0.36704257269006696    0.388421419774323    
  0.4078165880199545    0.4126808998271226    0.38943119551349126    0.3326983324304655    0.25314536339228694    
  0.17297763731073953    0.11112043817682193    0.07361901525459508    0.05702956144693288    0.05702956144693302    
  0.04941905118291541    0.05702956144693297    0.08251813828659088    0.1313337312745026    0.20407292481406122    
  0.28841308600156845    0.36144766898810265    0.4042114509514199    0.41366820840578356    0.4005408342341849    
  0.3790599588891722    0.3599102220489031    0.34907062205999356    0.34907062205999356    0.3599102220489031    
  0.3790599588891722    0.4005408342341849    0.41366820840578356    0.4042114509514199    0.36144766898810265    
  0.28841308600156845    0.20407292481406122    0.1313337312745026    0.08251813828659088    0.05702956144693297    
  0.04941905118291541    0.05717645817465425    0.06523635572329314    0.09181904256180828    0.14155331751999575    
  0.2138662092858154    0.2957887628104191    0.36503809263953996    0.4040848927229136    0.4109577836885724    
  0.3965240522074189    0.3745899852661406    0.35537121545694633    0.34455700569108294    0.34455700569108294    
  0.35537121545694633    0.3745899852661407    0.3965240522074189    0.4109577836885724    0.4040848927229136    
  0.36503809263953996    0.2957887628104191    0.2138662092858154    0.14155331751999575    0.09181904256180828    
  0.06523635572329312    0.05717645817465425    0.06523635572329319    0.06523635572329302    0.08259947802468873    
  0.12110802494561317    0.18316538819300168    0.26176222659361564    0.3380051750780228    0.39085414363010024    
  0.4109686058342035    0.40426607334128756    0.3840988771388832    0.36252626431396906    0.3471122254076328    
  0.3416037717184409    0.34711222540763265    0.3625262643139691    0.3840988771388831    0.40426607334128756    
  0.4109686058342035    0.39085414363010024    0.33800517507802275    0.26176222659361564    0.18316538819300174    
  0.12110802494561311    0.08259947802468863    0.06523635572329319    0.09181904256180834    0.0825994780246887    
  0.09181904256180828    0.1211080249456131    0.17276808552833797    0.24320765589025703    0.3181250318704524    
  0.3772541456437763    0.40690244506682044    0.4076692664266947    0.3905294439372125    0.36801012254624255    
  0.34903000937925566    0.33849621474283936    0.33849621474283936    0.34903000937925566    0.36801012254624255    
  0.39052944393721245    0.4076692664266947    0.4069024450668205    0.3772541456437763    0.31812503187045227    
  0.24320765589025709    0.17276808552833806    0.1211080249456131    0.09181904256180834    0.14155331751999575    
  0.121108024945613    0.12110802494561304    0.14155331751999575    0.18316538819300168    0.24320765589025703    
  0.3108883299595161    0.3688505744812064    0.4024089784706735    0.4082573611609606    0.39413029790801546    
  0.3716314306360739    0.35018495709674236    0.3354635497147924    0.33027465200101497    0.3354635497147924    
  0.35018495709674224    0.37163143063607385    0.39413029790801546    0.40825736116096073    0.4024089784706736    
  0.3688505744812064    0.3108883299595161    0.24320765589025703    0.18316538819300165    0.14155331751999575    
  0.21386620928581548    0.18316538819300165    0.17276808552833808    0.18316538819300177    0.2138662092858154    
  0.26176222659361564    0.3181250318704524    0.3688505744812064    0.4005243123284867    0.4079192152121095    
  0.39571168252707145    0.373621564892053    0.3506670540266215    0.33276716863464306    0.3231218194651016    
  0.3231218194651017    0.33276716863464295    0.3506670540266214    0.373621564892053    0.39571168252707145    
  0.4079192152121095    0.4005243123284867    0.36885057448120645    0.3181250318704524    0.26176222659361564    
  0.21386620928581548    0.295788762810419    0.26176222659361564    0.24320765589025703    0.24320765589025703    
  0.26176222659361564    0.29578876281041905    0.33800517507802275    0.37725414564377624    0.4024089784706734    
  0.4079192152121095    0.39612052299665573    0.3744395982630918    0.350753044599664    0.33071518301254127    
  0.3176001638718969    0.31305778447869603    0.3176001638718968    0.3307151830125412    0.3507530445996639    
  0.3744395982630918    0.39612052299665573    0.40791921521210955    0.4024089784706735    0.3772541456437763    
  0.3380051750780228    0.295788762810419    0.3650380926395399    0.3380051750780227    0.3181250318704523    
  0.31088832995951615    0.3181250318704523    0.3380051750780227    0.3650380926395399    0.39085414363010024    
  0.40690244506682044    0.4082573611609606    0.39571168252707145    0.3744395982630918    0.35073965639345506    
  0.32959971423428086    0.3141248869510048    0.30600815793407654    0.30600815793407643    0.3141248869510048    
  0.3295997142342808    0.35073965639345506    0.3744395982630918    0.3957116825270714    0.4082573611609608    
  0.4069024450668205    0.3908541436301002    0.3650380926395399    0.4040848927229136    0.39085414363010024    
  0.3772541456437763    0.3688505744812064    0.36885057448120634    0.37725414564377624    0.39085414363010035    
  0.40408489272291365    0.4109686058342036    0.4076692664266947    0.39413029790801546    0.373621564892053    
  0.35075304459966394    0.32959971423428086    0.312940315574474    0.3023955927266891    0.29879487769087437    
  0.302395592726689    0.312940315574474    0.3295997142342809    0.3507530445996639    0.373621564892053    
  0.39413029790801546    0.40766926642669477    0.41096860583420364    0.4040848927229136    0.4109577836885724    
  0.41096860583420364    0.4069024450668205    0.4024089784706736    0.4005243123284867    0.4024089784706735    
  0.4069024450668205    0.41096860583420364    0.4109577836885724    0.40426607334128745    0.39052944393721256    
  0.3716314306360739    0.3506670540266214    0.3307151830125412    0.31412488695100477    0.3023955927266891    
  0.29635324025956505    0.2963532402595651    0.30239559272668903    0.3141248869510048    0.3307151830125412    
  0.35066705402662135    0.3716314306360739    0.39052944393721245    0.4042660733412876    0.4109577836885724    
  0.396524052207419    0.4042660733412875    0.4076692664266948    0.4082573611609608    0.40791921521210944    
  0.4079192152121095    0.4082573611609608    0.40766926642669477    0.40426607334128756    0.3965240522074189    
  0.3840988771388832    0.36801012254624255    0.35018495709674236    0.33276716863464295    0.3176001638718969    
  0.30600815793407654    0.2987948776908744    0.2963532402595651    0.29879487769087437    0.30600815793407654    
  0.3176001638718968    0.33276716863464284    0.3501849570967424    0.3680101225462427    0.384098877138883    
  0.396524052207419    0.37458998526614057    0.38409887713888313    0.3905294439372125    0.39413029790801546    
  0.3957116825270714    0.3961205229966556    0.3957116825270714    0.3941302979080154    0.39052944393721245    
  0.3840988771388831    0.3745899852661406    0.362526264313969    0.34903000937925566    0.3354635497147924    
  0.3231218194651016    0.31305778447869603    0.30600815793407643    0.302395592726689    0.30239559272668903    
  0.30600815793407654    0.3130577844786959    0.32312181946510166    0.3354635497147924    0.34903000937925566    
  0.36252626431396906    0.37458998526614057    0.35537121545694633    0.36252626431396895    0.36801012254624255    
  0.37163143063607396    0.373621564892053    0.3744395982630918    0.3744395982630918    0.373621564892053    
  0.37163143063607385    0.36801012254624255    0.3625262643139691    0.35537121545694633    0.34711222540763276    
  0.3384962147428395    0.33027465200101497    0.3231218194651017    0.3176001638718968    0.31412488695100477    
  0.312940315574474    0.3141248869510048    0.3176001638718968    0.3231218194651016    0.330274652001015    
  0.33849621474283936    0.34711222540763265    0.35537121545694633    0.3445570056910828    0.3471122254076328    
  0.3490300093792556    0.3501849570967423    0.3506670540266214    0.35075304459966394    0.35073965639345506    
  0.350753044599664    0.3506670540266213    0.35018495709674224    0.34903000937925566    0.3471122254076327    
  0.34455700569108294    0.3416037717184408    0.33849621474283936    0.3354635497147924    0.3327671686346429    
  0.33071518301254116    0.3295997142342809    0.32959971423428086    0.3307151830125412    0.33276716863464306    
  0.33546354971479236    0.33849621474283936    0.34160377171844086    0.3445570056910828    0.3445570056910828    
  0.34160377171844086    0.33849621474283936    0.33546354971479236    0.33276716863464306    0.3307151830125412    
  0.32959971423428086    0.3295997142342809    0.33071518301254116    0.3327671686346429    0.3354635497147924    
  0.33849621474283936    0.3416037717184408    0.34455700569108294    0.3471122254076327    0.34903000937925566    
  0.35018495709674224    0.3506670540266213    0.35075304459966394    0.35073965639345506    0.35075304459966394    
  0.3506670540266214    0.3501849570967423    0.34903000937925555    0.3471122254076328    0.3445570056910828    
  0.35537121545694633    0.34711222540763265    0.33849621474283936    0.330274652001015    0.3231218194651016    
  0.3176001638718969    0.3141248869510048    0.312940315574474    0.31412488695100477    0.3176001638718968    
  0.3231218194651017    0.33027465200101497    0.3384962147428395    0.34711222540763276    0.35537121545694633    
  0.3625262643139691    0.36801012254624255    0.37163143063607385    0.373621564892053    0.3744395982630918    
  0.3744395982630918    0.373621564892053    0.37163143063607396    0.36801012254624255    0.36252626431396895    
  0.35537121545694633    0.37458998526614057    0.36252626431396906    0.34903000937925566    0.3354635497147924    
  0.32312181946510166    0.3130577844786959    0.30600815793407654    0.30239559272668903    0.302395592726689    
  0.30600815793407643    0.31305778447869603    0.3231218194651016    0.3354635497147924    0.34903000937925566    
  0.362526264313969    0.3745899852661406    0.3840988771388831    0.39052944393721245    0.3941302979080154    
  0.3957116825270714    0.3961205229966556    0.3957116825270714    0.39413029790801546    0.3905294439372125    
  0.38409887713888313    0.37458998526614057    0.396524052207419    0.384098877138883    0.36801012254624266    
  0.3501849570967424    0.3327671686346429    0.3176001638718968    0.30600815793407654    0.29879487769087437    
  0.2963532402595651    0.2987948776908744    0.30600815793407654    0.3176001638718968    0.33276716863464295    
  0.35018495709674236    0.36801012254624255    0.3840988771388832    0.3965240522074189    0.40426607334128756    
  0.40766926642669477    0.4082573611609608    0.4079192152121095    0.40791921521210944    0.4082573611609608    
  0.4076692664266948    0.4042660733412875    0.396524052207419    0.4109577836885724    0.4042660733412876    
  0.39052944393721245    0.3716314306360739    0.35066705402662135    0.3307151830125412    0.3141248869510048    
  0.30239559272668903    0.2963532402595651    0.29635324025956505    0.3023955927266891    0.31412488695100477    
  0.3307151830125412    0.3506670540266214    0.3716314306360739    0.39052944393721256    0.40426607334128745    
  0.4109577836885724    0.41096860583420364    0.4069024450668205    0.4024089784706735    0.4005243123284867    
  0.4024089784706736    0.4069024450668205    0.41096860583420364    0.4109577836885724    0.4040848927229136    
  0.41096860583420364    0.40766926642669477    0.39413029790801546    0.373621564892053    0.3507530445996639    
  0.3295997142342809    0.312940315574474    0.302395592726689    0.29879487769087437    0.3023955927266891    
  0.312940315574474    0.32959971423428086    0.35075304459966394    0.373621564892053    0.39413029790801546    
  0.4076692664266947    0.4109686058342036    0.40408489272291365    0.39085414363010035    0.37725414564377624    
  0.36885057448120634    0.3688505744812064    0.3772541456437763    0.3908541436301003    0.4040848927229136    
  0.3650380926395399    0.3908541436301002    0.4069024450668205    0.4082573611609608    0.3957116825270714    
  0.3744395982630918    0.35073965639345506    0.3295997142342808    0.3141248869510048    0.30600815793407643    
  0.30600815793407654    0.3141248869510048    0.32959971423428086    0.35073965639345506    0.3744395982630918    
  0.39571168252707145    0.4082573611609606    0.40690244506682044    0.39085414363010024    0.3650380926395399    
  0.3380051750780227    0.3181250318704523    0.31088832995951615    0.3181250318704523    0.3380051750780227    
  0.3650380926395399    0.29578876281041905    0.3380051750780228    0.3772541456437763    0.4024089784706735    
  0.40791921521210955    0.39612052299665573    0.3744395982630918    0.3507530445996639    0.3307151830125412    
  0.3176001638718968    0.31305778447869603    0.3176001638718969    0.33071518301254127    0.350753044599664    
  0.3744395982630918    0.39612052299665573    0.4079192152121095    0.4024089784706734    0.37725414564377624    
  0.33800517507802275    0.29578876281041905    0.26176222659361564    0.24320765589025703    0.24320765589025703    
  0.26176222659361564    0.29578876281041905    0.21386620928581548    0.26176222659361564    0.3181250318704524    
  0.36885057448120645    0.4005243123284867    0.4079192152121095    0.39571168252707145    0.373621564892053    
  0.3506670540266214    0.33276716863464295    0.3231218194651017    0.3231218194651016    0.33276716863464306    
  0.3506670540266215    0.373621564892053    0.39571168252707145    0.4079192152121095    0.4005243123284867    
  0.3688505744812064    0.3181250318704524    0.26176222659361564    0.2138662092858154    0.18316538819300177    
  0.17276808552833808    0.18316538819300165    0.21386620928581548    0.14155331751999575    0.18316538819300165    
  0.24320765589025703    0.3108883299595161    0.3688505744812064    0.4024089784706736    0.40825736116096073    
  0.39413029790801546    0.37163143063607385    0.3501849570967422    0.3354635497147924    0.33027465200101497    
  0.3354635497147924    0.35018495709674236    0.3716314306360739    0.39413029790801546    0.4082573611609606    
  0.4024089784706735    0.3688505744812064    0.3108883299595161    0.24320765589025703    0.18316538819300168    
  0.14155331751999575    0.12110802494561304    0.12110802494561303    0.14155331751999575    0.09181904256180834    
  0.12110802494561311    0.17276808552833806    0.24320765589025709    0.31812503187045227    0.3772541456437763    