#     DFTpy    
  CRYSTAL 
    
  PRIMVEC    
  1.5903983980150505    -2.7546508296382206    0.0    
  1.5903983980150505    2.7546508296382206    0.0    
  0.0    0.0    2.9936439492413807    
  PRIMCOORD    
  1    1    
  Si    0.0    0.0    0.0    
  BEGIN_BLOCK_DATAGRID_3D    
  3d_datagrid_density    
  BEGIN_DATAGRID_3D#0    
  31    31    28    
  0.0    0.0    0.0    
  1.5903984039472667    -2.754650839913121    0.0    
  1.5903984039472667    2.754650839913121    0.0    
  0.0    0.0    2.99364396040773    
  0.05787643668417216    0.06637218730350478    0.09442805757719991    0.14647449633687798    0.21965497697766592    
  0.29620420380505197    0.3499367113298072    0.36445962422082095    0.34315527787745675    0.30181068108528053    
  0.2559245378188051    0.2148239614480418    0.18245350999945087    0.1598166503176065    0.14664051148373178    
  0.14233999377803785    0.14664051148373178    0.15981665031760653    0.18245350999945087    0.2148239614480418    
  0.2559245378188051    0.30181068108528053    0.34315527787745675    0.36445962422082095    0.3499367113298072    
  0.29620420380505197    0.21965497697766587    0.14647449633687795    0.09442805757719987    0.06637218730350478    
  0.05787643668417216    0.06637218730350478    0.06637218730350478    0.08470183511980989    0.12519787297886947    
  0.18907085545870325    0.26554906078141155    0.3310000272187122    0.3630540895085929    0.3561933822404895    
  0.32187756544823204    0.2766548780013459    0.23268729514139827    0.19603818703266124    0.16879963465467987    
  0.15115320677766603    0.14257136339721355    0.14257136339721357    0.151153206777666    0.16879963465467984    
  0.1960381870326613    0.23268729514139824    0.2766548780013459    0.32187756544823215    0.35619338224048946    
  0.3630540895085929    0.3310000272187122    0.2655490607814115    0.1890708554587032    0.12519787297886947    
  0.08470183511980992    0.06637218730350478    0.09442805757719987    0.08470183511980992    0.09442805757719987    
  0.12519787297886947    0.17854986825478886    0.24814551863837514    0.31533558482660645    0.35725343724790104    
  0.36224207943532716    0.3359713599792028    0.29347218269823167    0.2483915265641136    0.20866275161225517    
  0.17756127901964677    0.15585640400373232    0.14322743752151607    0.13910484220277672    0.14322743752151607    
  0.15585640400373232    0.17756127901964674    0.20866275161225523    0.24839152656411354    0.29347218269823167    
  0.33597135997920285    0.3622420794353272    0.35725343724790104    0.31533558482660645    0.2481455186383752    
  0.17854986825478886    0.12519787297886953    0.09442805757719987    0.146474496336878    0.12519787297886947    
  0.1251978729788695    0.1464744963368779    0.18907085545870322    0.2481455186383752    0.3093722419545219    
  0.3526435315701863    0.36407443450680277    0.3444277316511373    0.30556931712106766    0.26090345751162375    
  0.21945103805748212    0.1854978607057625    0.16042088997778323    0.14419965035764354    0.13630785514715116    
  0.13630785514715113    0.14419965035764357    0.16042088997778323    0.1854978607057625    0.21945103805748212    
  0.26090345751162375    0.3055693171210676    0.3444277316511374    0.36407443450680277    0.3526435315701863    
  0.3093722419545219    0.2481455186383752    0.18907085545870325    0.146474496336878    0.21965497697766587    
  0.1890708554587032    0.17854986825478883    0.18907085545870325    0.21965497697766592    0.26554906078141155    
  0.3153355848266064    0.3526435315701863    0.3643311059319264    0.3482510788332252    0.3127401242692784    
  0.2695264444228695    0.2276638227510075    0.19202171007746216    0.16447651640459346    0.14532406373610032    
  0.1341744480468404    0.13052953691070934    0.1341744480468404    0.14532406373610038    0.1644765164045935    
  0.19202171007746216    0.2276638227510075    0.2695264444228695    0.31274012426927833    0.3482510788332252    
  0.3643311059319264    0.3526435315701863    0.3153355848266065    0.26554906078141155    0.21965497697766587    
  0.29620420380505197    0.26554906078141155    0.2481455186383752    0.2481455186383752    0.2655490607814115    
  0.29620420380505197    0.33100002721871213    0.357253437247901    0.36407443450680277    0.3482510788332252    
  0.31510039000416495    0.27390147704852325    0.23278086830012154    0.19664422908949883    0.1676646359721653    
  0.14640579920720048    0.13265072952476362    0.12593899982785056    0.12593899982785056    0.1326507295247636    
  0.1464057992072005    0.1676646359721652    0.19664422908949883    0.23278086830012162    0.27390147704852325    
  0.3151003900041649    0.3482510788332252    0.36407443450680277    0.35725343724790104    0.3310000272187122    
  0.29620420380505197    0.3499367113298072    0.3310000272187122    0.3153355848266065    0.3093722419545219    
  0.31533558482660645    0.3310000272187122    0.3499367113298071    0.3630540895085929    0.36224207943532716    
  0.3444277316511374    0.31274012426927833    0.2739014770485232    0.23451574603011993    0.1990349352641363    
  0.16969664865918177    0.1472536607819677    0.1316563031817095    0.1225361563491802    0.11954200213496109    
  0.12253615634918023    0.13165630318170957    0.1472536607819677    0.16969664865918177    0.19903493526413635    
  0.23451574603011993    0.27390147704852325    0.31274012426927833    0.3444277316511374    0.3622420794353273    
  0.3630540895085929    0.3499367113298072    0.36445962422082095    0.3630540895085929    0.35725343724790104    
  0.3526435315701863    0.3526435315701863    0.35725343724790115    0.3630540895085928    0.36445962422082095    
  0.3561933822404896    0.33597135997920285    0.30556931712106766    0.2695264444228695    0.23278086830012154    
  0.19903493526413632    0.1703936849363258    0.14771794722974732    0.13110507475910466    0.12029741698583955    
  0.11498627232529188    0.11498627232529188    0.1202974169858396    0.13110507475910466    0.1477179472297474    
  0.17039368493632576    0.19903493526413635    0.23278086830012154    0.2695264444228695    0.3055693171210676    
  0.33597135997920297    0.3561933822404895    0.36445962422082095    0.3431552778774567    0.35619338224048946    
  0.3622420794353271    0.36407443450680277    0.3643311059319264    0.3640744345068027    0.3622420794353271    
  0.35619338224048946    0.3431552778774567    0.32187756544823204    0.29347218269823167    0.2609034575116237    
  0.2276638227510075    0.19664422908949883    0.16969664865918174    0.14771794722974732    0.13092984808288866    
  0.11919007991345641    0.11226090262050574    0.1099704383014233    0.1122609026205058    0.11919007991345644    
  0.13092984808288868    0.14771794722974738    0.16969664865918177    0.19664422908949883    0.22766382275100752    
  0.2609034575116237    0.29347218269823167    0.3218775654482321    0.3431552778774567    0.30181068108528064    
  0.32187756544823215    0.33597135997920285    0.3444277316511374    0.3482510788332252    0.3482510788332252    
  0.3444277316511374    0.33597135997920285    0.32187756544823215    0.30181068108528053    0.2766548780013459    
  0.2483915265641136    0.21945103805748212    0.1920217100774622    0.1676646359721653    0.1472536607819677    
  0.13110507475910468    0.11919007991345641    0.11135412725616445    0.10746638401636897    0.10746638401636897    
  0.11135412725616438    0.11919007991345645    0.13110507475910468    0.14725366078196775    0.1676646359721652    
  0.1920217100774622    0.21945103805748212    0.2483915265641136    0.2766548780013459    0.30181068108528064    
  0.2559245378188051    0.27665487800134586    0.29347218269823167    0.3055693171210676    0.31274012426927833    
  0.3151003900041649    0.31274012426927833    0.3055693171210676    0.29347218269823167    0.2766548780013459    
  0.2559245378188052    0.23268729514139827    0.20866275161225517    0.18549786070576255    0.16447651640459346    
  0.1464057992072005    0.1316563031817095    0.12029741698583958    0.11226090262050574    0.107466384016369    
  0.10587165515137353    0.10746638401636895    0.11226090262050574    0.12029741698583962    0.1316563031817095    
  0.1464057992072005    0.16447651640459351    0.1854978607057625    0.2086627516122552    0.23268729514139824    
  0.2559245378188051    0.21482396144804186    0.23268729514139824    0.24839152656411365    0.2609034575116237    
  0.2695264444228695    0.27390147704852325    0.27390147704852325    0.2695264444228695    0.26090345751162375    
  0.2483915265641136    0.23268729514139824    0.21482396144804186    0.19603818703266127    0.17756127901964677    
  0.16042088997778323    0.14532406373610032    0.1326507295247636    0.1225361563491802    0.11498627232529182    
  0.10997043830142328    0.10746638401636902    0.10746638401636897    0.1099704383014233    0.11498627232529188    
  0.12253615634918023    0.13265072952476356    0.14532406373610038    0.16042088997778323    0.1775612790196468    
  0.1960381870326613    0.21482396144804186    0.18245350999945087    0.19603818703266127    0.2086627516122552    
  0.21945103805748215    0.22766382275100752    0.23278086830012157    0.23451574603011993    0.23278086830012157    
  0.2276638227510075    0.21945103805748206    0.20866275161225517    0.1960381870326613    0.18245350999945087    
  0.16879963465467993    0.15585640400373235    0.1441996503576435    0.1341744480468404    0.12593899982785056    
  0.11954200213496108    0.11498627232529188    0.1122609026205058    0.11135412725616439    0.11226090262050574    
  0.11498627232529185    0.11954200213496108    0.12593899982785053    0.13417444804684042    0.14419965035764357    
  0.15585640400373238    0.16879963465467987    0.18245350999945087    0.1598166503176065    0.1687996346546799    
  0.17756127901964674    0.1854978607057625    0.1920217100774622    0.19664422908949883    0.1990349352641363    
  0.1990349352641363    0.19664422908949886    0.19202171007746216    0.18549786070576252    0.1775612790196468    
  0.16879963465467987    0.15981665031760653    0.15115320677766603    0.14322743752151604    0.13630785514715113    
  0.13052953691070934    0.12593899982785056    0.12253615634918026    0.1202974169858396    0.11919007991345644    
  0.11919007991345648    0.1202974169858396    0.1225361563491802    0.12593899982785053    0.13052953691070937    
  0.13630785514715113    0.14322743752151612    0.15115320677766597    0.1598166503176065    0.14664051148373178    
  0.15115320677766597    0.15585640400373232    0.16042088997778323    0.16447651640459351    0.16766463597216527    
  0.16969664865918171    0.1703936849363257    0.1696966486591818    0.16766463597216524    0.1644765164045935    
  0.16042088997778325    0.15585640400373232    0.15115320677766603    0.14664051148373175    0.14257136339721355    
  0.13910484220277672    0.13630785514715113    0.13417444804684037    0.13265072952476362    0.13165630318170957    
  0.13110507475910468    0.13092984808288868    0.13110507475910468    0.1316563031817095    0.13265072952476356    
  0.1341744480468404    0.13630785514715116    0.13910484220277675    0.14257136339721355    0.14664051148373178    
  0.1423399937780379    0.14257136339721357    0.14322743752151607    0.14419965035764357    0.14532406373610032    
  0.1464057992072005    0.14725366078196772    0.14771794722974735    0.14771794722974738    0.1472536607819677    
  0.14640579920720057    0.1453240637361004    0.14419965035764354    0.1432274375215161    0.14257136339721355    
  0.14233999377803785    0.14257136339721355    0.14322743752151607    0.14419965035764357    0.14532406373610038    
  0.14640579920720054    0.1472536607819677    0.14771794722974738    0.14771794722974738    0.14725366078196772    
  0.1464057992072005    0.14532406373610038    0.14419965035764354    0.14322743752151612    0.14257136339721355    
  0.1423399937780379    0.14664051148373178    0.14257136339721352    0.13910484220277675    0.13630785514715113    
  0.13417444804684042    0.13265072952476356    0.1316563031817095    0.1311050747591046    0.13092984808288868    
  0.13110507475910468    0.13165630318170954    0.13265072952476364    0.1341744480468404    0.13630785514715113    
  0.13910484220277675    0.14257136339721355    0.14664051148373172    0.15115320677766597    0.15585640400373232    
  0.16042088997778323    0.1644765164045935    0.16766463597216524    0.16969664865918174    0.17039368493632576    
  0.16969664865918171    0.16766463597216524    0.16447651640459351    0.16042088997778323    0.15585640400373232    
  0.15115320677766603    0.14664051148373178    0.15981665031760653    0.15115320677766603    0.14322743752151612    
  0.13630785514715113    0.13052953691070937    0.1259389998278506    0.1225361563491802    0.12029741698583955    
  0.11919007991345648    0.11919007991345641    0.1202974169858396    0.12253615634918026    0.1259389998278506    
  0.13052953691070934    0.13630785514715116    0.14322743752151607    0.15115320677766603    0.15981665031760653    
  0.16879963465467987    0.17756127901964677    0.18549786070576255    0.19202171007746216    0.19664422908949886    
  0.19903493526413632    0.1990349352641363    0.1966442290894988    0.1920217100774622    0.18549786070576246    
  0.1775612790196468    0.16879963465467987    0.15981665031760653    0.18245350999945087    0.1687996346546799    
  0.15585640400373235    0.14419965035764357    0.13417444804684042    0.12593899982785056    0.11954200213496108    
  0.11498627232529182    0.1122609026205058    0.11135412725616442    0.11226090262050574    0.11498627232529188    
  0.11954200213496108    0.12593899982785056    0.1341744480468404    0.14419965035764354    0.15585640400373232    
  0.16879963465467987    0.18245350999945087    0.1960381870326613    0.2086627516122552    0.21945103805748212    
  0.22766382275100752    0.23278086830012162    0.23451574603011993    0.23278086830012157    0.22766382275100752    
  0.21945103805748215    0.20866275161225523    0.19603818703266124    0.18245350999945087    0.2148239614480418    
  0.1960381870326613    0.17756127901964674    0.16042088997778323    0.14532406373610038    0.13265072952476362    
  0.1225361563491802    0.11498627232529182    0.10997043830142333    0.10746638401636895    0.10746638401636897    
  0.10997043830142333    0.11498627232529185    0.1225361563491802    0.13265072952476362    0.14532406373610032    
  0.16042088997778323    0.17756127901964672    0.19603818703266127    0.2148239614480418    0.23268729514139824    
  0.2483915265641136    0.26090345751162375    0.26952644442286955    0.27390147704852325    0.27390147704852325    
  0.2695264444228695    0.26090345751162375    0.2483915265641136    0.23268729514139827    0.2148239614480418    
  0.2559245378188051    0.2326872951413982    0.2086627516122552    0.18549786070576252    0.1644765164045935    
  0.14640579920720057    0.13165630318170954    0.12029741698583955    0.1122609026205058    0.10746638401636897    
  0.10587165515137352    0.10746638401636902    0.11226090262050574    0.1202974169858396    0.1316563031817095    
  0.1464057992072005    0.16447651640459343    0.1854978607057625    0.20866275161225517    0.23268729514139827    
  0.2559245378188051    0.2766548780013459    0.2934721826982316    0.3055693171210676    0.31274012426927833    
  0.31510039000416484    0.31274012426927833    0.3055693171210676    0.29347218269823167    0.2766548780013459    
  0.2559245378188051    0.3018106810852806    0.2766548780013459    0.2483915265641136    0.21945103805748215    
  0.19202171007746216    0.16766463597216524    0.14725366078196772    0.13110507475910466    0.11919007991345645    
  0.11135412725616439    0.107466384016369    0.107466384016369    0.11135412725616445    0.11919007991345644    
  0.13110507475910468    0.1472536607819677    0.16766463597216524    0.19202171007746216    0.21945103805748212    
  0.24839152656411354    0.2766548780013459    0.3018106810852806    0.3218775654482321    0.3359713599792029    
  0.3444277316511374    0.3482510788332252    0.3482510788332252    0.3444277316511373    0.3359713599792029    
  0.3218775654482321    0.3018106810852806    0.3431552778774567    0.3218775654482321    0.29347218269823167    
  0.2609034575116237    0.22766382275100752    0.19664422908949877    0.16969664865918177    0.14771794722974732    
  0.13092984808288868    0.11919007991345641    0.11226090262050577    0.10997043830142333    0.11226090262050574    
  0.11919007991345641    0.13092984808288868    0.14771794722974732    0.16969664865918174    0.19664422908949883    
  0.2276638227510075    0.2609034575116237    0.29347218269823167    0.3218775654482321    0.34315527787745675    
  0.3561933822404895    0.3622420794353272    0.3640744345068027    0.3643311059319264    0.3640744345068027    
  0.3622420794353272    0.3561933822404895    0.3431552778774567    0.36445962422082095    0.3561933822404895    
  0.33597135997920285    0.3055693171210676    0.2695264444228695    0.23278086830012162    0.19903493526413635    
  0.17039368493632576    0.1477179472297474    0.13110507475910466    0.1202974169858396    0.11498627232529189    
  0.11498627232529188    0.1202974169858396    0.13110507475910468    0.14771794722974732    0.17039368493632576    
  0.1990349352641363    0.23278086830012154    0.2695264444228695    0.30556931712106766    0.3359713599792028    
  0.3561933822404895    0.36445962422082095    0.3630540895085928    0.35725343724790104    0.3526435315701863    
  0.3526435315701863    0.35725343724790104    0.3630540895085928    0.36445962422082095    0.3499367113298072    
  0.3630540895085929    0.3622420794353273    0.3444277316511374    0.31274012426927833    0.27390147704852325    
  0.23451574603011993    0.1990349352641363    0.1696966486591818    0.1472536607819677    0.13165630318170954    
  0.1225361563491802    0.11954200213496109    0.1225361563491802    0.13165630318170957    0.1472536607819677    
  0.16969664865918174    0.1990349352641363    0.23451574603011993    0.27390147704852325    0.31274012426927833    
  0.3444277316511374    0.36224207943532716    0.3630540895085929    0.3499367113298071    0.3310000272187122    
  0.3153355848266064    0.3093722419545219    0.3153355848266065    0.3310000272187122    0.3499367113298072    
  0.29620420380505197    0.3310000272187122    0.35725343724790104    0.36407443450680277    0.3482510788332252    
  0.31510039000416495    0.27390147704852325    0.23278086830012162    0.19664422908949883    0.16766463597216524    
  0.1464057992072005    0.13265072952476364    0.12593899982785056    0.1259389998278506    0.13265072952476362    
  0.14640579920720048    0.16766463597216524    0.19664422908949877    0.23278086830012154    0.27390147704852325    
  0.31510039000416484    0.3482510788332252    0.36407443450680277    0.35725343724790104    0.3310000272187122    
  0.29620420380505197    0.26554906078141155    0.24814551863837514    0.2481455186383752    0.2655490607814115    
  0.29620420380505197    0.21965497697766587    0.2655490607814115    0.3153355848266064    0.3526435315701863    
  0.3643311059319264    0.3482510788332252    0.31274012426927833    0.2695264444228695    0.2276638227510075    
  0.19202171007746213    0.1644765164045935    0.14532406373610038    0.1341744480468404    0.13052953691070937    
  0.13417444804684042    0.14532406373610032    0.16447651640459346    0.19202171007746213    0.22766382275100744    
  0.2695264444228695    0.31274012426927833    0.3482510788332252    0.3643311059319264    0.3526435315701863    
  0.31533558482660645    0.26554906078141144    0.21965497697766592    0.1890708554587033    0.17854986825478886    
  0.18907085545870325    0.21965497697766587    0.146474496336878    0.18907085545870325    0.2481455186383752    
  0.30937224195452184    0.3526435315701863    0.36407443450680277    0.3444277316511374    0.3055693171210676    
  0.26090345751162375    0.21945103805748212    0.18549786070576252    0.16042088997778325    0.14419965035764357    
  0.13630785514715113    0.13630785514715116    0.1441996503576435    0.16042088997778323    0.1854978607057625    
  0.21945103805748212    0.26090345751162375    0.3055693171210676    0.3444277316511373    0.36407443450680277    
  0.3526435315701863    0.3093722419545219    0.24814551863837514    0.18907085545870325    0.1464744963368779    
  0.1251978729788695    0.1251978729788695    0.146474496336878    0.09442805757719987    0.12519787297886947    
  0.17854986825478886    0.24814551863837514    0.3153355848266065    0.35725343724790104    0.3622420794353271    
  0.33597135997920285    0.2934721826982316    0.24839152656411354    0.2086627516122552    0.1775612790196468    
  0.15585640400373232    0.14322743752151607    0.13910484220277675    0.14322743752151607    0.15585640400373235    
  0.17756127901964674    0.20866275161225517    0.2483915265641136    0.2934721826982316    0.33597135997920285    
  0.36224207943532716    0.35725343724790104    0.31533558482660645    0.24814551863837514    0.17854986825478886    
  0.12519787297886947    0.09442805757719987    0.08470183511980986    0.09442805757719987    0.06637218730350478    
  0.08470183511980989    0.1251978729788695    0.18907085545870328    0.2655490607814115    0.3310000272187122    
  0.3630540895085929    0.3561933822404895    0.3218775654482321    0.2766548780013459    0.23268729514139824    
  0.19603818703266132    0.1687996346546799    0.151153206777666    0.14257136339721355    0.14257136339721355    
  0.15115320677766603    0.16879963465467987    0.19603818703266124    0.23268729514139827    0.2766548780013459    
  0.32187756544823204    0.35619338224048946    0.36305408950859286    0.3310000272187122    0.26554906078141155    
  0.18907085545870325    0.12519787297886947    0.08470183511980986    0.06637218730350478    0.06637218730350478    
  0.05787643668417216    0.06637218730350478    0.09442805757719991    0.14647449633687798    0.21965497697766592    
  0.29620420380505197    0.3499367113298072    0.36445962422082095    0.34315527787745675    0.30181068108528053    
  0.2559245378188051    0.2148239614480418    0.18245350999945087    0.1598166503176065    0.14664051148373178    
  0.14233999377803785    0.14664051148373178    0.15981665031760653    0.18245350999945087    0.2148239614480418    
  0.2559245378188051    0.30181068108528053    0.34315527787745675    0.36445962422082095    0.3499367113298072    
  0.29620420380505197    0.21965497697766587    0.14647449633687795    0.09442805757719987    0.06637218730350478    
  0.05787643668417216    0.06737522655971026    0.07637660818489406    0.10559115450958202    0.15834810716084954    
  0.23038810294466527    0.3034902921400749    0.3526872709577845    0.36345162665425157    0.34012437522095657    
  0.29824653751244506    0.25261170088017376    0.21200455186276312    0.18010536656034487    0.15782120340287403    
  0.14485488186419823    0.1406230785988163    0.14485488186419823    0.15782120340287403    0.18010536656034487    
  0.21200455186276312    0.25261170088017376    0.29824653751244506    0.34012437522095657    0.36345162665425157    
  0.3526872709577845    0.3034902921400749    0.23038810294466527    0.15834810716084954    0.10559115450958202    
  0.07637660818489406    0.06737522655971026    0.07637660818489406    0.07637660818489406    0.0955402070032299    
  0.1369646078558102    0.20054070084089712    0.27450898467883883    0.33571544013517574    0.3635165970765992    
  0.353850444094451    0.31841523951404843    0.27317148188509494    0.22963334850567096    0.19348466946307766    
  0.16666018548980696    0.14929214409588729    0.1408467908288315    0.14084679082883153    0.14929214409588726    
  0.16666018548980696    0.19348466946307769    0.22963334850567088    0.2731714818850949    0.31841523951404854    
  0.35385044409445093    0.3635165970765992    0.33571544013517574    0.2745089846788388    0.20054070084089712    
  0.1369646078558102    0.09554020700322993    0.07637660818489406    0.10559115450958197    0.09554020700322993    
  0.10559115450958197    0.1369646078558102    0.19018957851043572    0.2578737160819582    0.321318099956186    
  0.3589400607561904    0.3606452700163168    0.3327430402140588    0.28991460701430677    0.24515344565935474    
  0.20592436983470697    0.17528100060854712    0.1539133919900932    0.14148313997451945    0.137425285640853    
  0.14148313997451945    0.15391339199009318    0.1752810006085471    0.20592436983470697    0.24515344565935465    
  0.28991460701430666    0.33274304021405887    0.3606452700163168    0.35894006075619034    0.321318099956186    
  0.2578737160819582    0.19018957851043572    0.13696460785581022    0.10559115450958197    0.1583481071608496    
  0.1369646078558102    0.1369646078558102    0.15834810716084952    0.2005407008408971    0.2578737160819582    
  0.31578427455989355    0.35501391901008544    0.3630458456195894    0.3414584526824817    0.3020107142465109    
  0.25753901740362567    0.21656199625321787    0.1830929595677639    0.15839989468194293    0.14243115929279587    
  0.13466151987669994    0.13466151987669991    0.14243115929279587    0.15839989468194293    0.1830929595677639    
  0.21656199625321787    0.25753901740362567    0.3020107142465109    0.3414584526824817    0.3630458456195894    
  0.35501391901008544    0.31578427455989355    0.2578737160819582    0.20054070084089715    0.1583481071608496    
  0.23038810294466527    0.20054070084089706    0.19018957851043572    0.20054070084089712    0.23038810294466527    
  0.27450898467883883    0.32131809995618593    0.35501391901008544    0.36351362789630653    0.3454485981490056    
  0.3092093712281871    0.26608831608036076    0.22466583224031036    0.1895179836597808    0.16239020515260633    
  0.14353429011663096    0.13255572394163603    0.12896592015903166    0.13255572394163603    0.143534290116631    
  0.16239020515260633    0.1895179836597808    0.2246658322403103    0.26608831608036076    0.30920937122818704    
  0.3454485981490056    0.36351362789630653    0.35501391901008544    0.32131809995618604    0.27450898467883883    
  0.23038810294466527    0.3034902921400749    0.27450898467883883    0.2578737160819582    0.2578737160819582    
  0.2745089846788388    0.3034902921400749    0.33571544013517574    0.35894006075619034    0.3630458456195894    
  0.3454485981490056    0.3115845568464643    0.27043090086802335    0.2297178088266484    0.19407279782585377    
  0.16553048685390212    0.14460144098297156    0.1310576577418261    0.12444664403049124    0.12444664403049124    
  0.1310576577418261    0.14460144098297162    0.16553048685390204    0.19407279782585374    0.2297178088266485    
  0.2704309008680233    0.3115845568464643    0.3454485981490056    0.3630458456195894    0.3589400607561904    
  0.33571544013517574    0.3034902921400749    0.3526872709577845    0.33571544013517574    0.32131809995618604    
  0.31578427455989355    0.32131809995618593    0.33571544013517574    0.3526872709577845    0.3635165970765992    
  0.3606452700163168    0.3414584526824817    0.3092093712281871    0.2704309008680233    0.23143113718941286    
  0.1964292476087933    0.16753373409994318    0.14544136662054216    0.13008618817292333    0.12110392650960994    
  0.11815399432083697    0.12110392650960998    0.13008618817292336    0.14544136662054213    0.16753373409994315    
  0.19642924760879332    0.23143113718941286    0.2704309008680233    0.30920937122818704    0.3414584526824817    
  0.36064527001631697    0.3635165970765992    0.3526872709577845    0.36345162665425157    0.3635165970765992    
  0.3589400607561904    0.3550139190100855    0.35501391901008544    0.35894006075619045    0.3635165970765992    
  0.36345162665425157    0.353850444094451    0.33274304021405887    0.30201071424651094    0.26608831608036076    
  0.2297178088266484    0.1964292476087933    0.16822120944907834    0.14590246340177063    0.12955143048524234    
  0.11891037739343784    0.11367891711815416    0.11367891711815416    0.11891037739343785    0.12955143048524234    
  0.1459024634017707    0.16822120944907828    0.19642924760879332    0.2297178088266484    0.26608831608036076    
  0.3020107142465109    0.332743040214059    0.353850444094451    0.36345162665425157    0.34012437522095657    
  0.35385044409445093    0.36064527001631674    0.36304584561958947    0.3635136278963066    0.3630458456195894    
  0.36064527001631674    0.35385044409445093    0.34012437522095657    0.31841523951404843    0.28991460701430677    
  0.25753901740362567    0.2246658322403103    0.19407279782585377    0.16753373409994315    0.14590246340177063    
  0.12938223685323608    0.11782765407498115    0.11100562317719354    0.10875006127219289    0.1110056231771936    
  0.11782765407498118    0.1293822368532361    0.14590246340177068    0.16753373409994315    0.19407279782585374    
  0.22466583224031036    0.25753901740362567    0.28991460701430677    0.3184152395140485    0.34012437522095657    
  0.2982465375124451    0.31841523951404854    0.3327430402140589    0.3414584526824817    0.34544859814900564    
  0.3454485981490056    0.34145845268248176    0.33274304021405887    0.31841523951404854    0.298246537512445    
  0.27317148188509494    0.24515344565935468    0.21656199625321793    0.18951798365978081    0.16553048685390215    
  0.14544136662054213    0.12955143048524234    0.11782765407498114    0.11011698037127209    0.10629115703682927    
  0.10629115703682927    0.11011698037127202    0.11782765407498118    0.12955143048524234    0.1454413666205422    