#     DFTpy    
  CRYSTAL 
    
  PRIMVEC    
  1.8072709068352901    -3.1302850336798005    0.0    
  1.8072709068352901    3.1302850336798005    0.0    
  0.0    0.0    3.4018681241379305    
  PRIMCOORD    
  1    1    
  Si    0.0    0.0    0.0    
  BEGIN_BLOCK_DATAGRID_3D    
  3d_datagrid_density    
  BEGIN_DATAGRID_3D#0    
  37    37    33    
  0.0    0.0    0.0    
  1.807270913576445    -3.1302850453558233    0.0    
  1.807270913576445    3.1302850453558233    0.0    
  0.0    0.0    3.401868136826964    
  0.060367032822645536    0.06814839101378194    0.09354657046661764    0.1402840123443695    0.20681446528743394    
  0.2796621255608634    0.33637906378609034    0.3591519151733607    0.34586071797386164    0.30793965686655816    
  0.26019136709956764    0.21335334111888973    0.1727779219886685    0.14016729439718142    0.11537001952522088    
  0.0974792579261625    0.08547219366946023    0.07856183266044936    0.07630398170674693    0.07856183266044935    
  0.08547219366946023    0.0974792579261625    0.11537001952522088    0.14016729439718145    0.17277792198866848    
  0.21335334111888973    0.26019136709956764    0.30793965686655816    0.34586071797386164    0.3591519151733607    
  0.33637906378609034    0.2796621255608634    0.20681446528743394    0.1402840123443695    0.09354657046661762    
  0.068148391013782    0.060367032822645536    0.06814839101378195    0.06814839101378195    0.08477801148110443    
  0.12117508580452425    0.17877565824349242    0.24985600355477247    0.31527766032517757    0.35379675798564564    
  0.35576536906934214    0.3272733090674802    0.2825428853415433    0.23447848987624814    0.19071928288903187    
  0.15439081790765155    0.12603924211024023    0.10502383291206593    0.0903259740817212    0.0810250079004187    
  0.07651379875302344    0.07651379875302344    0.08102500790041867    0.09032597408172123    0.10502383291206595    
  0.1260392421102402    0.15439081790765158    0.19071928288903187    0.23447848987624814    0.2825428853415433    
  0.3272733090674802    0.3557653690693421    0.3537967579856455    0.3152776603251775    0.24985600355477247    
  0.1787756582434924    0.1211750858045243    0.0847780114811044    0.06814839101378195    0.09354657046661762    
  0.0847780114811044    0.09354657046661757    0.1211750858045243    0.16921062773796702    0.23332730251617848    
  0.2988874005662318    0.34547450109097066    0.3590813616261916    0.3401653353335866    0.3002488250309564    
  0.2527853593001661    0.20716376434399938    0.16795199441169786    0.13652609837105067    0.11263987176026329    
  0.09539097078796305    0.08379850401928393    0.07711892049028005    0.07493515888806786    0.07711892049028006    
  0.08379850401928393    0.09539097078796305    0.11263987176026329    0.13652609837105067    0.16795199441169786    
  0.20716376434399938    0.25278535930016605    0.30024882503095635    0.3401653353335866    0.3590813616261916    
  0.34547450109097066    0.29888740056623186    0.2333273025161786    0.169210627737967    0.12117508580452435    
  0.09354657046661762    0.1402840123443695    0.12117508580452428    0.1211750858045243    0.14028401234436946    
  0.1787756582434925    0.23332730251617853    0.29279656801745174    0.33970151464807236    0.3591252045519311    
  0.34748958468584185    0.3127362966183936    0.2672381941249978    0.2211149303102163    0.1800551457370847    
  0.14625603961085332    0.11994048651912416    0.1004173934006627    0.08673023958327443    0.07804769171044251    
  0.07382999619915012    0.07382999619915014    0.07804769171044253    0.08673023958327446    0.1004173934006627    
  0.11994048651912419    0.14625603961085326    0.18005514573708475    0.22111493031021628    0.2672381941249978    
  0.3127362966183935    0.3474895846858419    0.3591252045519311    0.33970151464807236    0.2927965680174518    
  0.23332730251617848    0.1787756582434924    0.1402840123443695    0.20681446528743389    0.1787756582434924    
  0.16921062773796694    0.1787756582434924    0.20681446528743389    0.24985600355477247    0.29888740056623186    
  0.33970151464807236    0.3587683065156383    0.35064887619236407    0.32003696806368487    0.27716068622208995    
  0.23172858475307498    0.18994334231914983    0.1546385943505791    0.12650298765430187    0.10511799370183253    
  0.08963109628560553    0.0791867915037906    0.07315430891709883    0.0711801108513959    0.07315430891709884    
  0.07918679150379065    0.0896310962856055    0.10511799370183256    0.1265029876543019    0.1546385943505791    
  0.18994334231914983    0.23172858475307492    0.27716068622208995    0.32003696806368487    0.3506488761923641    
  0.35876830651563835    0.33970151464807224    0.2988874005662318    0.24985600355477253    0.20681446528743389    
  0.2796621255608634    0.24985600355477247    0.23332730251617853    0.23332730251617845    0.24985600355477247    
  0.2796621255608634    0.31527766032517757    0.34547450109097066    0.3591252045519311    0.35064887619236407    
  0.3224233182266732    0.2821933526919701    0.23836543574802335    0.19695853640728353    0.16111654561264974    
  0.13190400189866142    0.10919167392754588    0.09229231829256954    0.08039417701295859    0.07282281024939133    
  0.06914011125603317    0.06914011125603316    0.07282281024939137    0.08039417701295858    0.09229231829256956    
  0.1091916739275459    0.13190400189866144    0.16111654561264968    0.19695853640728353    0.2383654357480233    
  0.2821933526919701    0.32242331822667325    0.3506488761923642    0.3591252045519311    0.34547450109097066    
  0.31527766032517757    0.2796621255608634    0.33637906378609034    0.3152776603251775    0.29888740056623186    
  0.29279656801745174    0.29888740056623175    0.3152776603251775    0.33637906378609034    0.35379675798564564    
  0.3590813616261916    0.3474895846858419    0.32003696806368487    0.2821933526919701    0.2406236629008796    
  0.20060243846795472    0.16521913123421478    0.1357588806142617    0.11235131487955441    0.09450762269215914    
  0.08151943694936581    0.07272529322496747    0.06763836535264897    0.06597366132431577    0.067638365352649    
  0.07272529322496747    0.08151943694936581    0.09450762269215912    0.11235131487955437    0.1357588806142617    
  0.1652191312342147    0.2006024384679547    0.2406236629008796    0.2821933526919701    0.32003696806368487    
  0.34748958468584196    0.3590813616261916    0.3537967579856455    0.33637906378609034    0.3591519151733607    
  0.3537967579856455    0.34547450109097066    0.3397015146480723    0.33970151464807224    0.34547450109097066    
  0.35379675798564564    0.3591519151733607    0.35576536906934214    0.3401653353335866    0.3127362966183936    
  0.27716068622208995    0.23836543574802335    0.20060243846795475    0.16662498176145882    0.1377688333824837    
  0.114355798158417    0.09609670787798462    0.08242669572057428    0.07275126437507962    0.06658158201765607    
  0.0635820315998812    0.06358203159988121    0.06658158201765607    0.07275126437507962    0.08242669572057425    
  0.09609670787798458    0.114355798158417    0.13776883338248366    0.16662498176145876    0.20060243846795472    
  0.2383654357480233    0.2771606862220899    0.3127362966183936    0.3401653353335866    0.35576536906934214    
  0.3591519151733607    0.34586071797386164    0.35576536906934214    0.3590813616261916    0.3591252045519311    
  0.35876830651563835    0.3591252045519311    0.3590813616261916    0.35576536906934214    0.34586071797386164    
  0.3272733090674802    0.30024882503095635    0.2672381941249978    0.23172858475307492    0.1969585364072835    
  0.16521913123421472    0.1377688333824837    0.11504305204056155    0.09692647674645938    0.08301259166324755    
  0.07281291662709664    0.06588301622209483    0.06187566858147047    0.06056614951304547    0.061875668581470436    
  0.06588301622209483    0.07281291662709663    0.08301259166324755    0.09692647674645938    0.11504305204056152    
  0.13776883338248366    0.16521913123421478    0.19695853640728353    0.23172858475307492    0.26723819412499783    
  0.30024882503095635    0.32727330906748026    0.34586071797386164    0.30793965686655816    0.32727330906748026    
  0.34016533533358667    0.34748958468584185    0.35064887619236407    0.3506488761923641    0.3474895846858419    
  0.3401653353335866    0.3272733090674802    0.30793965686655816    0.2825428853415433    0.2527853593001661    
  0.2211149303102163    0.18994334231914983    0.16111654561264968    0.1357588806142617    0.11435579815841702    
  0.09692647674645938    0.08321473652611733    0.07285574193439914    0.06548308736296847    0.060777288592714515    
  0.05849306092896107    0.05849306092896107    0.060777288592714515    0.06548308736296846    0.07285574193439916    
  0.08321473652611733    0.09692647674645934    0.11435579815841695    0.13575888061426172    0.16111654561264968    
  0.1899433423191498    0.2211149303102163    0.25278535930016616    0.2825428853415433    0.30793965686655816    
  0.2601913670995677    0.2825428853415433    0.30024882503095635    0.3127362966183936    0.32003696806368487    
  0.3224233182266732    0.32003696806368487    0.31273629661839364    0.30024882503095635    0.2825428853415433    
  0.26019136709956764    0.23447848987624814    0.20716376434399938    0.1800551457370847    0.15463859435057908    
  0.13190400189866142    0.11235131487955441    0.09609670787798459    0.08301259166324755    0.07285574193439914    
  0.06535242465812523    0.0602384080946779    0.057281982143883574    0.056316991482537354    0.05728198214388355    
  0.06023840809467788    0.06535242465812523    0.07285574193439914    0.08301259166324754    0.09609670787798462    
  0.11235131487955441    0.13190400189866147    0.1546385943505791    0.18005514573708478    0.20716376434399933    
  0.23447848987624814    0.2601913670995677    0.21335334111888973    0.23447848987624814    0.2527853593001661    
  0.26723819412499783    0.27716068622208995    0.28219335269197005    0.2821933526919701    0.27716068622209    
  0.2672381941249978    0.25278535930016616    0.23447848987624814    0.21335334111888973    0.19071928288903187    
  0.16795199441169784    0.1462560396108533    0.12650298765430187    0.1091916739275459    0.09450762269215912    
  0.08242669572057428    0.07281291662709664    0.06548308736296847    0.0602384080946779    0.05688361858870071    
  0.055254377336123144    0.05525437733612316    0.05688361858870068    0.06023840809467786    0.06548308736296846    
  0.07281291662709659    0.08242669572057422    0.09450762269215914    0.10919167392754588    0.12650298765430193    
  0.14625603961085332    0.16795199441169792    0.19071928288903184    0.21335334111888973    0.17277792198866845    
  0.19071928288903187    0.20716376434399938    0.2211149303102163    0.23172858475307498    0.2383654357480233    
  0.2406236629008796    0.23836543574802338    0.23172858475307492    0.2211149303102163    0.20716376434399936    
  0.19071928288903184    0.17277792198866848    0.15439081790765155    0.13652609837105067    0.11994048651912416    
  0.10511799370183253    0.09229231829256954    0.08151943694936581    0.07275126437507962    0.06588301622209483    
  0.0607772885927145    0.05728198214388356    0.05525437733612317    0.05459114409224823    0.05525437733612312    
  0.05728198214388352    0.06077728859271449    0.06588301622209483    0.07275126437507959    0.0815194369493658    
  0.09229231829256951    0.10511799370183253    0.11994048651912419    0.13652609837105067    0.15439081790765155    
  0.17277792198866845    0.14016729439718148    0.15439081790765155    0.16795199441169786    0.18005514573708473    
  0.18994334231914986    0.1969585364072835    0.20060243846795472    0.20060243846795475    0.19695853640728353    
  0.18994334231914983    0.18005514573708475    0.16795199441169784    0.15439081790765158    0.14016729439718142    
  0.1260392421102402    0.11263987176026329    0.10041739340066272    0.0896310962856055    0.08039417701295859    
  0.07272529322496747    0.06658158201765609    0.06187566858147046    0.05849306092896107    0.056316991482537375    
  0.05525437733612317    0.05525437733612317    0.056316991482537375    0.058493060928961095    0.061875668581470436    
  0.06658158201765604    0.07272529322496744    0.08039417701295858    0.08963109628560557    0.10041739340066268    
  0.11263987176026329    0.12603924211024023    0.14016729439718148    0.11537001952522088    0.1260392421102402    
  0.13652609837105067    0.14625603961085326    0.15463859435057906    0.16111654561264968    0.16521913123421478    
  0.16662498176145882    0.1652191312342147    0.16111654561264974    0.15463859435057906    0.14625603961085332    
  0.1365260983710507    0.1260392421102402    0.11537001952522086    0.1050238329120659    0.09539097078796305    
  0.08673023958327443    0.0791867915037906    0.07282281024939133    0.06763836535264897    0.06358203159988118    
  0.06056614951304547    0.05849306092896106    0.05728198214388356    0.05688361858870071    0.05728198214388354    
  0.05849306092896108    0.06056614951304542    0.0635820315998812    0.06763836535264897    0.07282281024939138    
  0.07918679150379063    0.0867302395832744    0.09539097078796305    0.10502383291206593    0.11537001952522088    
  0.09747925792616251    0.10502383291206592    0.11263987176026329    0.11994048651912415    0.12650298765430187    
  0.13190400189866142    0.1357588806142617    0.13776883338248375    0.13776883338248366    0.13575888061426172    
  0.13190400189866142    0.12650298765430187    0.11994048651912419    0.11263987176026329    0.10502383291206593    
  0.0974792579261625    0.09032597408172123    0.08379850401928393    0.07804769171044251    0.07315430891709883    
  0.06914011125603317    0.06597366132431576    0.06358203159988121    0.06187566858147042    0.0607772885927145    
  0.06023840809467789    0.06023840809467786    0.0607772885927145    0.0618756685814704    0.06358203159988114    
  0.06597366132431576    0.06914011125603316    0.07315430891709884    0.07804769171044248    0.0837985040192839    
  0.09032597408172116    0.09747925792616251    0.0854721936694602    0.09032597408172119    0.09539097078796305    
  0.1004173934006627    0.10511799370183254    0.10919167392754586    0.11235131487955441    0.11435579815841702    
  0.11504305204056149    0.114355798158417    0.11235131487955438    0.1091916739275459    0.10511799370183253    
  0.10041739340066269    0.09539097078796303    0.0903259740817212    0.08547219366946024    0.0810250079004187    
  0.07711892049028005    0.07382999619915012    0.07118011085139593    0.06914011125603316    0.06763836535264897    
  0.06658158201765607    0.06588301622209483    0.06548308736296846    0.06535242465812523    0.06548308736296846    
  0.0658830162220948    0.06658158201765606    0.06763836535264897    0.06914011125603316    0.07118011085139594    
  0.07382999619915012    0.07711892049028009    0.08102500790041867    0.0854721936694602    0.07856183266044935    
  0.08102500790041865    0.0837985040192839    0.0867302395832744    0.08963109628560553    0.09229231829256955    
  0.09450762269215914    0.09609670787798465    0.09692647674645939    0.09692647674645938    0.09609670787798462    
  0.09450762269215914    0.09229231829256954    0.0896310962856055    0.08673023958327443    0.08379850401928393    
  0.0810250079004187    0.07856183266044936    0.07651379875302344    0.07493515888806786    0.07382999619915014    
  0.07315430891709886    0.07282281024939134    0.07272529322496746    0.07275126437507963    0.07281291662709663    
  0.07285574193439914    0.07285574193439914    0.0728129166270966    0.07275126437507959    0.07272529322496753    
  0.07282281024939133    0.07315430891709884    0.07382999619915012    0.0749351588880678    0.07651379875302342    
  0.07856183266044935    0.07630398170674692    0.07651379875302342    0.07711892049028006    0.07804769171044251    
  0.07918679150379063    0.08039417701295855    0.08151943694936581    0.08242669572057428    0.08301259166324752    
  0.08321473652611733    0.08301259166324756    0.08242669572057425    0.08151943694936581    0.08039417701295859    
  0.07918679150379061    0.07804769171044251    0.07711892049028006    0.07651379875302344    0.07630398170674693    
  0.07651379875302344    0.07711892049028006    0.07804769171044251    0.07918679150379061    0.08039417701295859    
  0.08151943694936581    0.08242669572057425    0.08301259166324756    0.08321473652611733    0.08301259166324752    
  0.08242669572057422    0.08151943694936581    0.0803941770129586    0.07918679150379063    0.07804769171044251    
  0.07711892049028006    0.07651379875302343    0.07630398170674692    0.07856183266044935    0.07651379875302344    
  0.07493515888806784    0.07382999619915014    0.07315430891709884    0.0728228102493913    0.07272529322496746    
  0.07275126437507963    0.0728129166270966    0.07285574193439916    0.07285574193439914    0.07281291662709663    
  0.07275126437507963    0.07272529322496747    0.07282281024939134    0.07315430891709886    0.07382999619915014    
  0.07493515888806787    0.07651379875302344    0.07856183266044935    0.0810250079004187    0.08379850401928393    
  0.08673023958327443    0.0896310962856055    0.09229231829256954    0.0945076226921591    0.09609670787798459    
  0.09692647674645939    0.09692647674645938    0.09609670787798459    0.09450762269215911    0.09229231829256956    
  0.08963109628560553    0.0867302395832744    0.08379850401928386    0.08102500790041868    0.07856183266044935    
  0.0854721936694602    0.08102500790041867    0.07711892049028006    0.07382999619915012    0.07118011085139596    
  0.06914011125603313    0.06763836535264897    0.0665815820176561    0.0658830162220948    0.06548308736296847    
  0.06535242465812523    0.06548308736296846    0.06588301622209483    0.06658158201765606    0.06763836535264897    
  0.06914011125603316    0.07118011085139593    0.07382999619915014    0.07711892049028005    0.08102500790041868    
  0.08547219366946024    0.0903259740817212    0.09539097078796303    0.10041739340066268    0.10511799370183253    
  0.10919167392754588    0.11235131487955441    0.114355798158417    0.11504305204056149    0.114355798158417    
  0.11235131487955441    0.10919167392754588    0.10511799370183253    0.10041739340066272    0.09539097078796302    
  0.09032597408172116    0.0854721936694602    0.09747925792616247    0.09032597408172117    0.08379850401928392    
  0.0780476917104425    0.07315430891709887    0.06914011125603316    0.06597366132431574    0.06358203159988123    
  0.0618756685814704    0.0607772885927145    0.06023840809467786    0.06023840809467786    0.0607772885927145    
  0.06187566858147042    0.0635820315998812    0.06597366132431576    0.06914011125603317    0.07315430891709886    
  0.07804769171044251    0.08379850401928393    0.09032597408172122    0.09747925792616251    0.10502383291206593    
  0.11263987176026326    0.11994048651912419    0.12650298765430187    0.13190400189866142    0.13575888061426172    
  0.1377688333824837    0.1377688333824837    0.13575888061426172    0.13190400189866144    0.12650298765430187    
  0.11994048651912419    0.11263987176026329    0.1050238329120659    0.09747925792616247    0.11537001952522088    
  0.1050238329120659    0.09539097078796305    0.08673023958327442    0.07918679150379061    0.07282281024939131    
  0.06763836535264897    0.06358203159988123    0.06056614951304542    0.05849306092896108    0.05728198214388355    
  0.05688361858870071    0.05728198214388356    0.058493060928961046    0.06056614951304547    0.06358203159988117    
  0.06763836535264897    0.07282281024939134    0.0791867915037906    0.08673023958327443    0.09539097078796305    
  0.1050238329120659    0.11537001952522086    0.1260392421102402    0.1365260983710507    0.14625603961085332    
  0.15463859435057906    0.1611165456126497    0.1652191312342147    0.16662498176145876    0.16521913123421478    
  0.16111654561264974    0.1546385943505791    0.14625603961085326    0.13652609837105067    0.1260392421102402    
  0.11537001952522088    0.14016729439718145    0.1260392421102402    0.1126398717602633    0.10041739340066264    
  0.08963109628560552    0.08039417701295859    0.07272529322496746    0.06658158201765611    0.06187566858147045    
  0.058493060928961095    0.056316991482537375    0.05525437733612312    0.055254377336123144    0.05631699148253737    
  0.05849306092896108    0.061875668581470436    0.06658158201765609    0.07272529322496749    0.08039417701295859    
  0.08963109628560553    0.10041739340066272    0.11263987176026329    0.1260392421102402    0.1401672943971814    
  0.15439081790765158    0.16795199441169786    0.1800551457370847    0.1899433423191498    0.1969585364072835    
  0.20060243846795472    0.20060243846795472    0.19695853640728356    0.18994334231914983    0.1800551457370847    
  0.16795199441169786    0.15439081790765155    0.14016729439718145    0.17277792198866845    0.15439081790765155    
  0.13652609837105067    0.11994048651912419    0.10511799370183253    0.0922923182925695    0.08151943694936578    
  0.07275126437507963    0.06588301622209483    0.0607772885927145    0.05728198214388352    0.05525437733612312    
  0.05459114409224823    0.05525437733612316    0.05728198214388356    0.06077728859271449    0.06588301622209483    
  0.07275126437507962    0.08151943694936581    0.09229231829256952    0.10511799370183253    0.11994048651912419    
  0.13652609837105067    0.15439081790765155    0.17277792198866848    0.19071928288903187    0.20716376434399936    
  0.22111493031021628    0.23172858475307492    0.23836543574802335    0.2406236629008796    0.23836543574802335    
  0.23172858475307498    0.2211149303102163    0.20716376434399936    0.1907192828890318    0.17277792198866845    
  0.2133533411188898    0.19071928288903184    0.1679519944116978    0.14625603961085326    0.12650298765430187    
  0.10919167392754586    0.09450762269215912    0.08242669572057428    0.0728129166270966    0.06548308736296846    
  0.06023840809467786    0.056883618588700675    0.055254377336123144    0.05525437733612314    0.05688361858870071    
  0.06023840809467788    0.06548308736296847    0.07281291662709664    0.08242669572057428    0.09450762269215912    
  0.1091916739275459    0.12650298765430187    0.1462560396108533    0.1679519944116978    0.19071928288903184    
  0.2133533411188898    0.2344784898762481    0.2527853593001661    0.2672381941249978    0.2771606862220899    
  0.28219335269197005    0.28219335269197005    0.2771606862220899    0.2672381941249978    0.25278535930016605    
  0.23447848987624814    0.2133533411188898    0.2601913670995677    0.23447848987624814    0.20716376434399933    
  0.18005514573708475    0.1546385943505791    0.13190400189866142    0.11235131487955441    0.09609670787798466    
  0.08301259166324754    0.07285574193439914    0.06535242465812523    0.06023840809467789    0.05728198214388355    
  0.056316991482537354    0.057281982143883574    0.06023840809467788    0.06535242465812523    0.07285574193439916    
  0.08301259166324755    0.09609670787798459    0.11235131487955441    0.13190400189866142    0.15463859435057908    
  0.1800551457370847    0.20716376434399938    0.23447848987624814    0.26019136709956764    0.2825428853415433    
  0.30024882503095635    0.3127362966183935    0.32003696806368487    0.32242331822667325    0.32003696806368487    
  0.3127362966183936    0.30024882503095635    0.2825428853415433    0.2601913670995677    0.30793965686655816    
  0.2825428853415433    0.2527853593001661    0.22111493031021628    0.18994334231914983    0.16111654561264968    
  0.13575888061426172    0.11435579815841702    0.09692647674645938    0.08321473652611733    0.07285574193439916    
  0.06548308736296846    0.0607772885927145    0.05849306092896106    0.05849306092896108    0.0607772885927145    
  0.06548308736296847    0.07285574193439914    0.08321473652611733    0.09692647674645938    0.114355798158417    
  0.13575888061426172    0.16111654561264968    0.18994334231914978    0.2211149303102163    0.2527853593001661    
  0.2825428853415433    0.30793965686655816    0.3272733090674802    0.3401653353335866    0.34748958468584196    
  0.35064887619236407    0.3506488761923641    0.3474895846858419    0.3401653353335866    0.3272733090674802    
  0.30793965686655816    0.34586071797386164    0.32727330906748026    0.30024882503095635    0.26723819412499783    
  0.23172858475307492    0.1969585364072835    0.16521913123421478    0.13776883338248375    0.11504305204056149    
  0.09692647674645938    0.08301259166324755    0.07281291662709663    0.06588301622209483    0.061875668581470436    
  0.06056614951304548    0.06187566858147045    0.06588301622209483    0.07281291662709664    0.08301259166324755    
  0.09692647674645938    0.11504305204056152    0.13776883338248372    0.16521913123421472    0.1969585364072835    
  0.23172858475307492    0.2672381941249978    0.30024882503095635    0.3272733090674802    0.34586071797386164    
  0.3557653690693421    0.3590813616261916    0.3591252045519311    0.35876830651563835    0.3591252045519312    
  0.3590813616261916    0.35576536906934214    0.34586071797386164    0.35915191517336065    0.35576536906934214    
  0.34016533533358667    0.3127362966183936    0.27716068622208995    0.2383654357480233    0.20060243846795475    
  0.16662498176145882    0.1377688333824837    0.114355798158417    0.09609670787798462    0.08242669572057425    
  0.07275126437507962    0.06658158201765607    0.06358203159988121    0.06358203159988118    0.0665815820176561    
  0.07275126437507962    0.08242669572057428    0.09609670787798459    0.114355798158417    0.13776883338248372    
  0.16662498176145882    0.2006024384679547    0.23836543574802335    0.27716068622208995    0.3127362966183936    
  0.3401653353335866    0.3557653690693421    0.35915191517336065    0.3537967579856455    0.34547450109097066    
  0.33970151464807224    0.3397015146480723    0.3454745010909707    0.3537967579856455    0.35915191517336065    
  0.33637906378609034    0.3537967579856455    0.3590813616261916    0.3474895846858419    0.32003696806368487    
  0.28219335269197005    0.2406236629008796    0.20060243846795478    0.1652191312342147    0.1357588806142617    
  0.11235131487955437    0.09450762269215912    0.08151943694936581    0.07272529322496747    0.067638365352649    
  0.06597366132431576    0.06763836535264897    0.07272529322496749    0.08151943694936581    0.09450762269215912    
  0.11235131487955441    0.1357588806142617    0.16521913123421478    0.20060243846795472    0.2406236629008796    
  0.28219335269197005    0.32003696806368487    0.3474895846858419    0.3590813616261916    0.3537967579856454    
  0.33637906378609034    0.31527766032517757    0.29888740056623175    0.2927965680174518    0.2988874005662318    
  0.3152776603251775    0.33637906378609034    0.2796621255608634    0.31527766032517757    0.34547450109097066    
  0.3591252045519311    0.3506488761923642    0.32242331822667325    0.28219335269197005    0.23836543574802335    
  0.19695853640728353    0.16111654561264968    0.13190400189866142    0.1091916739275459    0.09229231829256954    
  0.08039417701295859    0.07282281024939137    0.06914011125603316    0.06914011125603316    0.07282281024939134    
  0.08039417701295859    0.09229231829256954    0.10919167392754588    0.13190400189866142    0.1611165456126497    
  0.19695853640728353    0.23836543574802335    0.2821933526919701    0.32242331822667325    0.35064887619236407    
  0.35912520455193114    0.34547450109097055    0.31527766032517757    0.2796621255608634    0.24985600355477247    
  0.23332730251617848    0.23332730251617848    0.24985600355477247    0.2796621255608634    0.20681446528743389    
  0.24985600355477242    0.2988874005662318    0.33970151464807224    0.35876830651563835    0.3506488761923641    
  0.32003696806368487    0.27716068622209    0.23172858475307492    0.18994334231914983    0.1546385943505791    
  0.12650298765430187    0.10511799370183256    0.0896310962856055    0.07918679150379065    0.07315430891709883    
  0.0711801108513959    0.07315430891709884    0.0791867915037906    0.0896310962856055    0.10511799370183253    
  0.12650298765430187    0.1546385943505791    0.18994334231914978    0.23172858475307498    0.27716068622208995    
  0.32003696806368487    0.35064887619236407    0.3587683065156383    0.3397015146480722    0.29888740056623186    
  0.24985600355477247    0.20681446528743389    0.17877565824349242    0.16921062773796694    0.1787756582434924    
  0.20681446528743389    0.14028401234436952    0.17877565824349245    0.2333273025161786    0.29279656801745163    
  0.33970151464807236    0.3591252045519311    0.34748958468584185    0.31273629661839364    0.2672381941249978    
  0.22111493031021628    0.18005514573708475    0.14625603961085326    0.11994048651912419    0.1004173934006627    
  0.08673023958327447    0.0780476917104425    0.07382999619915014    0.07382999619915012    0.07804769171044251    
  0.08673023958327443    0.10041739340066272    0.11994048651912419    0.14625603961085332    0.1800551457370847    
  0.2211149303102163    0.2672381941249978    0.3127362966183936    0.3474895846858419    0.3591252045519311    
  0.33970151464807224    0.29279656801745174    0.23332730251617848    0.17877565824349242    0.1402840123443695    
  0.1211750858045243    0.12117508580452425    0.14028401234436952    0.09354657046661762    0.12117508580452428    