#     DFTpy    
  CRYSTAL 
    
  PRIMVEC    
  1.8343799704378203    -3.177239309184991    0.0    
  1.8343799704378203    3.177239309184991    0.0    
  0.0    0.0    3.452896146000001    
  PRIMCOORD    
  1    1    
  Si    0.0    0.0    0.0    
  BEGIN_BLOCK_DATAGRID_3D    
  3d_datagrid_density    
  BEGIN_DATAGRID_3D#0    
  37    37    37    
  0.0    0.0    0.0    
  1.8343799772800926    -3.1772393210361543    0.0    
  1.8343799772800926    3.1772393210361543    0.0    
  0.0    0.0    3.452896158879369    
  0.06057685378811418    0.06861149127511802    0.09488249415919818    0.14321508206882036    0.21155353592163462    
  0.2850607865663961    0.3400818979061094    0.35912573682019994    0.3417431249683039    0.3008612990202002    
  0.2516806724582705    0.20456436818500603    0.16435988760180337    0.1324091757990394    0.10833412464904378    
  0.09108765459300731    0.07957223081635795    0.07296756986818004    0.07081353764237773    0.07296756986818001    
  0.07957223081635795    0.09108765459300733    0.10833412464904378    0.1324091757990394    0.16435988760180334    
  0.20456436818500603    0.2516806724582705    0.3008612990202002    0.3417431249683039    0.35912573682020005    
  0.3400818979061094    0.28506078656639616    0.21155353592163462    0.14321508206882036    0.0948824941591982    
  0.06861149127511802    0.06057685378811418    0.06861149127511801    0.06861149127511798    0.0858082311570143    
  0.12347176457937346    0.1828547533772555    0.2552302598589823    0.32003910365397703    0.35559121519147524    
  0.3534220508464849    0.32135227982342573    0.2745135423277654    0.2257086000277633    0.18207642623763065    
  0.14630919056206815    0.1186731530372334    0.09835185741684226    0.08422465636815807    0.07532238675416453    
  0.07101600453087628    0.07101600453087628    0.07532238675416453    0.08422465636815808    0.09835185741684226    
  0.1186731530372334    0.14630919056206818    0.18207642623763068    0.2257086000277633    0.2745135423277654    
  0.32135227982342573    0.3534220508464849    0.35559121519147524    0.32003910365397703    0.2552302598589823    
  0.18285475337725549    0.12347176457937345    0.08580823115701423    0.06861149127511801    0.09488249415919818    
  0.08580823115701426    0.09488249415919818    0.12347176457937345    0.17303141679557324    0.2385441700392995    
  0.30409891218977786    0.348444192880486    0.3581840246876851    0.3353876806639323    0.29282142644285014    
  0.2441650264768626    0.1984018151687265    0.15962522789563163    0.12888079715300252    0.10571450581051917    
  0.08909769802452198    0.07798468682889906    0.07160318338392913    0.06952079450350732    0.07160318338392915    
  0.07798468682889906    0.08909769802452197    0.10571450581051917    0.12888079715300252    0.15962522789563158    
  0.1984018151687265    0.2441650264768626    0.2928214264428501    0.33538768066393243    0.35818402468768523    
  0.3484441928804861    0.30409891218977797    0.23854417003929956    0.1730314167955733    0.12347176457937345    
  0.09488249415919818    0.1432150820688204    0.12347176457937342    0.12347176457937346    0.14321508206882036    
  0.1828547533772555    0.2385441700392995    0.2981214663564173    0.34322746543488913    0.35915197973670215    
  0.3436168902499643    0.3058901129545042    0.2588344782592915    0.21231668849430066    0.1715588861442753    
  0.13839154883576113    0.1128026830068221    0.09395559633064467    0.08081426587283583    0.07251172796640404    
  0.06848982294019451    0.06848982294019453    0.07251172796640407    0.08081426587283583    0.09395559633064465    
  0.11280268300682213    0.13839154883576107    0.17155888614427534    0.21231668849430066    0.2588344782592914    
  0.30589011295450413    0.3436168902499643    0.3591519797367022    0.34322746543488913    0.29812146635641723    
  0.23854417003929956    0.1828547533772555    0.1432150820688204    0.21155353592163456    0.1828547533772556    
  0.1730314167955733    0.18285475337725557    0.21155353592163456    0.25523025985898223    0.30409891218977786    
  0.34322746543488913    0.35911026000971225    0.3472723859869228    0.3136084038964581    0.2689616135453913    
  0.22294156459962905    0.18133949000394053    0.14661298876877846    0.11919839252119191    0.09851831030976135    
  0.08362918483716308    0.0736335935466395    0.06788087958055933    0.06600229501223617    0.06788087958055936    
  0.07363359354663951    0.08362918483716307    0.09851831030976135    0.11919839252119191    0.1466129887687785    
  0.18133949000394053    0.22294156459962905    0.26896161354539133    0.31360840389645817    0.34727238598692284    
  0.35911026000971236    0.3432274654348891    0.3040989121897779    0.25523025985898234    0.21155353592163456    
  0.28506078656639616    0.25523025985898234    0.23854417003929956    0.23854417003929956    0.25523025985898234    
  0.28506078656639605    0.3200391036539771    0.348444192880486    0.35915197973670215    0.3472723859869229    
  0.3161461730910955    0.2741166274714145    0.22960136151864313    0.1882920281162719    0.15297989234721918    
  0.1244752839902242    0.10248433135983948    0.08622117478742922    0.07482659859983985    0.06760588178442606    
  0.06410509081407025    0.06410509081407027    0.06760588178442607    0.07482659859983985    0.0862211747874292    
  0.10248433135983948    0.12447528399022427    0.1529798923472192    0.1882920281162719    0.22960136151864313    
  0.2741166274714145    0.3161461730910955    0.3472723859869229    0.3591519797367021    0.34844419288048606    
  0.320039103653977    0.28506078656639616    0.3400818979061094    0.32003910365397703    0.30409891218977797    
  0.2981214663564173    0.3040989121897779    0.320039103653977    0.3400818979061094    0.35559121519147524    
  0.3581840246876851    0.3436168902499643    0.31360840389645817    0.2741166274714145    0.2318699551871691    
  0.19190669926235995    0.15701582852411625    0.1282454770559177    0.1055642589168049    0.0883820611114581    
  0.07593845071127094    0.06755105591626355    0.06271920267292638    0.061142143202558195    0.06271920267292638    
  0.06755105591626355    0.07593845071127095    0.08838206111145806    0.10556425891680492    0.1282454770559177    
  0.15701582852411625    0.19190669926235993    0.23186995518716916    0.27411662747141446    0.31360840389645817    
  0.3436168902499642    0.3581840246876852    0.3555912151914752    0.3400818979061094    0.35912573682019994    
  0.3555912151914752    0.3484441928804861    0.343227465434889    0.34322746543488913    0.348444192880486    
  0.35559121519147524    0.35912573682019994    0.3534220508464849    0.3353876806639323    0.3058901129545042    
  0.26896161354539133    0.22960136151864313    0.19190669926235993    0.1583991357942382    0.13021147444064923    
  0.10751809948095561    0.0899319205506121    0.07683352742559155    0.06760576151702413    0.061748324952517905    
  0.058911310781875954    0.058911310781875954    0.061748324952517905    0.06760576151702413    0.07683352742559153    
  0.08993192055061211    0.10751809948095561    0.1302114744406493    0.1583991357942382    0.19190669926235995    
  0.2296013615186432    0.26896161354539133    0.30589011295450413    0.33538768066393243    0.3534220508464849    
  0.35912573682019994    0.34174312496830395    0.3534220508464849    0.3581840246876852    0.3591519797367021    
  0.3591102600097123    0.35915197973670215    0.3581840246876851    0.3534220508464849    0.3417431249683039    
  0.32135227982342573    0.2928214264428501    0.25883447825929146    0.22294156459962905    0.1882920281162719    
  0.15701582852411625    0.13021147444064923    0.1081877431359454    0.0907406807837695    0.07741073740109004    
  0.06768487318256809    0.0611078304452215    0.057321294610093707    0.05608745917911838    0.057321294610093707    
  0.0611078304452215    0.06768487318256808    0.07741073740109009    0.09074068078376951    0.1081877431359454    
  0.13021147444064923    0.15701582852411625    0.1882920281162719    0.2229415645996291    0.25883447825929146    
  0.29282142644285014    0.32135227982342573    0.34174312496830395    0.30086129902020026    0.32135227982342573    
  0.3353876806639324    0.3436168902499643    0.3472723859869229    0.3472723859869228    0.3436168902499643    
  0.3353876806639324    0.32135227982342573    0.3008612990202002    0.2745135423277654    0.2441650264768626    
  0.21231668849430066    0.18133949000394053    0.1529798923472192    0.1282454770559177    0.10751809948095561    
  0.09074068078376948    0.07760975068281349    0.06773612179075347    0.060741614975939356    0.05629753772218221    
  0.05414814756791752    0.0541481475679175    0.056297537722182225    0.060741614975939356    0.0677361217907535    
  0.07760975068281352    0.09074068078376948    0.10751809948095563    0.12824547705591774    0.1529798923472192    
  0.1813394900039405    0.2123166884943006    0.2441650264768626    0.2745135423277654    0.30086129902020026    
  0.2516806724582705    0.2745135423277655    0.29282142644285014    0.30589011295450413    0.3136084038964581    
  0.31614617309109544    0.3136084038964581    0.3058901129545042    0.2928214264428501    0.2745135423277655    
  0.2516806724582705    0.2257086000277633    0.1984018151687265    0.1715588861442753    0.14661298876877848    
  0.1244752839902242    0.1055642589168049    0.0899319205506121    0.07741073740109004    0.06773612179075349    
  0.060622085653504666    0.055795015566447746    0.053014932621160686    0.05210950285950097    0.053014932621160686    
  0.05579501556644774    0.06062208565350469    0.0677361217907535    0.07741073740109003    0.08993192055061214    
  0.10556425891680492    0.12447528399022424    0.1466129887687785    0.1715588861442753    0.19840181516872654    
  0.2257086000277633    0.2516806724582705    0.20456436818500612    0.2257086000277633    0.2441650264768626    
  0.2588344782592915    0.26896161354539133    0.2741166274714144    0.2741166274714145    0.2689616135453913    
  0.2588344782592914    0.2441650264768626    0.2257086000277633    0.20456436818500606    0.18207642623763065    
  0.15962522789563163    0.13839154883576113    0.11919839252119191    0.1024843313598395    0.08838206111145809    
  0.07683352742559155    0.06768487318256809    0.06074161497593937    0.055795015566447746    0.05264199919615502    
  0.051114192565345516    0.0511141925653455    0.052641999196155    0.055795015566447746    0.06074161497593938    
  0.0676848731825681    0.07683352742559156    0.08838206111145812    0.10248433135983952    0.11919839252119188    
  0.13839154883576107    0.15962522789563166    0.18207642623763068    0.20456436818500612    0.16435988760180334    
  0.18207642623763065    0.19840181516872651    0.2123166884943007    0.22294156459962905    0.22960136151864313    
  0.2318699551871691    0.22960136151864313    0.22294156459962905    0.21231668849430066    0.1984018151687265    
  0.18207642623763068    0.16435988760180337    0.14630919056206815    0.12888079715300252    0.11280268300682213    
  0.09851831030976138    0.0862211747874292    0.07593845071127094    0.06760576151702413    0.061107830445221514    
  0.0562975377221822    0.0530149326211607    0.0511141925653455    0.050492900414570586    0.05111419256534548    
  0.05301493262116067    0.05629753772218224    0.06110783044522153    0.06760576151702416    0.07593845071127099    
  0.08622117478742922    0.0985183103097614    0.11280268300682213    0.12888079715300255    0.14630919056206815    
  0.16435988760180334    0.1324091757990394    0.14630919056206815    0.15962522789563163    0.17155888614427536    
  0.1813394900039405    0.18829202811627188    0.19190669926235998    0.19190669926235995    0.18829202811627194    
  0.18133949000394053    0.17155888614427534    0.1596252278956316    0.14630919056206815    0.1324091757990394    
  0.11867315303723343    0.10571450581051917    0.09395559633064465    0.08362918483716306    0.07482659859983985    
  0.06755105591626356    0.06174832495251792    0.05732129461009371    0.05414814756791752    0.052109502859500965    
  0.05111419256534551    0.05111419256534552    0.052109502859501    0.0541481475679175    0.05732129461009369    
  0.06174832495251797    0.06755105591626356    0.07482659859983987    0.08362918483716308    0.09395559633064461    
  0.10571450581051925    0.1186731530372334    0.1324091757990394    0.10833412464904382    0.1186731530372334    
  0.1288807971530025    0.13839154883576116    0.1466129887687785    0.15297989234721918    0.15701582852411625    
  0.15839913579423823    0.15701582852411622    0.1529798923472192    0.14661298876877848    0.13839154883576107    
  0.12888079715300252    0.11867315303723343    0.10833412464904381    0.09835185741684224    0.08909769802452198    
  0.08081426587283581    0.07363359354663948    0.06760588178442609    0.06271920267292638    0.058911310781875954    
  0.056087459179118365    0.0541481475679175    0.05301493262116067    0.052641999196155    0.05301493262116067    
  0.0541481475679175    0.056087459179118344    0.058911310781875954    0.06271920267292642    0.0676058817844261    
  0.07363359354663952    0.0808142658728358    0.08909769802452197    0.09835185741684228    0.10833412464904382    
  0.09108765459300737    0.09835185741684226    0.10571450581051921    0.11280268300682217    0.11919839252119191    
  0.12447528399022414    0.12824547705591774    0.1302114744406493    0.1302114744406493    0.1282454770559177    
  0.12447528399022421    0.11919839252119191    0.11280268300682213    0.10571450581051918    0.09835185741684227    
  0.09108765459300731    0.08422465636815808    0.07798468682889904    0.07251172796640404    0.06788087958055936    
  0.06410509081407025    0.061142143202558216    0.058911310781875954    0.05732129461009369    0.05629753772218219    
  0.05579501556644774    0.055795015566447746    0.05629753772218219    0.05732129461009367    0.058911310781875954    
  0.061142143202558244    0.06410509081407033    0.06788087958055933    0.07251172796640404    0.0779846868288991    
  0.08422465636815805    0.09108765459300737    0.07957223081635792    0.08422465636815807    0.08909769802452197    
  0.09395559633064471    0.09851831030976141    0.10248433135983949    0.1055642589168049    0.10751809948095563    
  0.1081877431359454    0.10751809948095561    0.1055642589168049    0.10248433135983948    0.09851831030976137    
  0.09395559633064464    0.08909769802452197    0.08422465636815804    0.07957223081635795    0.07532238675416453    
  0.07160318338392913    0.06848982294019454    0.06600229501223617    0.06410509081407025    0.06271920267292638    
  0.061748324952517905    0.061107830445221493    0.06074161497593934    0.06062208565350467    0.06074161497593939    
  0.061107830445221514    0.06174832495251794    0.06271920267292636    0.06410509081407029    0.06600229501223617    
  0.0684898229401945    0.07160318338392915    0.07532238675416453    0.07957223081635792    0.07296756986818005    
  0.07532238675416451    0.07798468682889909    0.08081426587283586    0.0836291848371631    0.08622117478742916    
  0.08838206111145809    0.08993192055061212    0.09074068078376947    0.09074068078376951    0.08993192055061208    
  0.08838206111145809    0.08622117478742919    0.08362918483716308    0.08081426587283583    0.07798468682889902    
  0.07532238675416451    0.07296756986818004    0.07101600453087628    0.06952079450350733    0.06848982294019453    
  0.06788087958055936    0.06760588178442609    0.06755105591626355    0.06760576151702413    0.06768487318256809    
  0.0677361217907535    0.06773612179075347    0.06768487318256809    0.06760576151702413    0.06755105591626356    
  0.06760588178442614    0.06788087958055937    0.0684898229401945    0.06952079450350736    0.07101600453087631    
  0.07296756986818005    0.07081353764237776    0.07101600453087628    0.07160318338392913    0.0725117279664041    
  0.07363359354663951    0.07482659859983982    0.07593845071127095    0.07683352742559157    0.07741073740109004    
  0.07760975068281352    0.07741073740109003    0.07683352742559156    0.07593845071127094    0.07482659859983987    
  0.07363359354663951    0.07251172796640404    0.07160318338392915    0.07101600453087631    0.07081353764237773    
  0.07101600453087631    0.07160318338392915    0.07251172796640407    0.07363359354663951    0.07482659859983985    
  0.07593845071127094    0.07683352742559156    0.07741073740109004    0.07760975068281352    0.07741073740109004    
  0.07683352742559156    0.07593845071127095    0.0748265985998399    0.07363359354663951    0.07251172796640401    
  0.07160318338392915    0.07101600453087628    0.07081353764237776    0.07296756986818005    0.07101600453087628    
  0.06952079450350734    0.06848982294019454    0.06788087958055934    0.06760588178442607    0.06755105591626356    
  0.06760576151702416    0.06768487318256806    0.0677361217907535    0.06773612179075349    0.06768487318256812    
  0.06760576151702412    0.06755105591626356    0.06760588178442609    0.06788087958055933    0.06848982294019453    
  0.06952079450350733    0.07101600453087628    0.07296756986818004    0.07532238675416451    0.07798468682889906    
  0.08081426587283583    0.08362918483716306    0.08622117478742919    0.08838206111145809    0.0899319205506121    
  0.09074068078376947    0.09074068078376948    0.08993192055061211    0.08838206111145813    0.08622117478742919    
  0.08362918483716308    0.08081426587283576    0.07798468682889907    0.07532238675416451    0.07296756986818005    
  0.07957223081635792    0.07532238675416451    0.07160318338392917    0.0684898229401946    0.06600229501223617    
  0.06410509081407023    0.06271920267292637    0.06174832495251793    0.0611078304452215    0.06074161497593938    
  0.06062208565350467    0.06074161497593937    0.061107830445221493    0.06174832495251792    0.06271920267292638    
  0.06410509081407022    0.06600229501223617    0.06848982294019454    0.07160318338392913    0.07532238675416451    
  0.07957223081635795    0.08422465636815805    0.08909769802452197    0.09395559633064464    0.09851831030976137    
  0.10248433135983948    0.1055642589168049    0.10751809948095561    0.1081877431359454    0.10751809948095566    
  0.1055642589168049    0.10248433135983949    0.09851831030976141    0.09395559633064461    0.08909769802452197    
  0.08422465636815808    0.07957223081635792    0.09108765459300736    0.08422465636815803    0.07798468682889906    
  0.07251172796640408    0.06788087958055936    0.06410509081407022    0.061142143202558195    0.05891131078187597    
  0.05732129461009369    0.05629753772218224    0.05579501556644774    0.055795015566447746    0.0562975377221822    
  0.05732129461009369    0.058911310781875954    0.06114214320255818    0.06410509081407025    0.06788087958055936    
  0.07251172796640404    0.07798468682889906    0.08422465636815805    0.09108765459300734    0.09835185741684227    
  0.10571450581051914    0.1128026830068221    0.11919839252119191    0.12447528399022421    0.1282454770559177    
  0.13021147444064926    0.1302114744406493    0.12824547705591774    0.12447528399022424    0.11919839252119191    
  0.11280268300682207    0.10571450581051918    0.09835185741684228    0.09108765459300736    0.10833412464904382    
  0.09835185741684228    0.08909769802452197    0.08081426587283588    0.07363359354663951    0.06760588178442609    
  0.06271920267292641    0.058911310781875934    0.05608745917911835    0.05414814756791751    0.05301493262116067    
  0.052641999196155025    0.05301493262116067    0.05414814756791751    0.056087459179118365    0.058911310781875934    
  0.06271920267292638    0.06760588178442609    0.07363359354663948    0.08081426587283581    0.08909769802452198    
  0.09835185741684227    0.10833412464904378    0.11867315303723337    0.12888079715300252    0.13839154883576107    
  0.14661298876877848    0.1529798923472192    0.15701582852411622    0.15839913579423823    0.15701582852411625    
  0.15297989234721923    0.1466129887687785    0.13839154883576107    0.1288807971530025    0.11867315303723343    
  0.10833412464904382    0.13240917579903938    0.1186731530372334    0.10571450581051921    0.0939555963306447    
  0.08362918483716308    0.07482659859983982    0.06755105591626356    0.061748324952517954    0.05732129461009374    
  0.05414814756791752    0.05210950285950098    0.05111419256534553    0.0511141925653455    0.05210950285950098    
  0.05414814756791752    0.05732129461009368    0.06174832495251792    0.06755105591626355    0.07482659859983985    
  0.08362918483716307    0.09395559633064465    0.10571450581051921    0.1186731530372334    0.13240917579903935    
  0.14630919056206815    0.1596252278956316    0.17155888614427534    0.18133949000394053    0.1882920281162719    
  0.19190669926235993    0.19190669926235998    0.188292028116272    0.18133949000394056    0.17155888614427534    
  0.15962522789563166    0.1463091905620682    0.13240917579903938    0.16435988760180334    0.14630919056206818    
  0.12888079715300255    0.11280268300682217    0.09851831030976141    0.08622117478742919    0.07593845071127098    
  0.06760576151702415    0.06110783044522153    0.05629753772218226    0.05301493262116067    0.05111419256534551    
  0.050492900414570586    0.0511141925653455    0.0530149326211607    0.0562975377221822    0.061107830445221514    
  0.06760576151702413    0.07593845071127094    0.0862211747874292    0.09851831030976138    0.1128026830068221    
  0.12888079715300252    0.1463091905620681    0.16435988760180337    0.18207642623763068    0.1984018151687265    
  0.21231668849430066    0.22294156459962905    0.22960136151864313    0.2318699551871691    0.22960136151864313    
  0.22294156459962905    0.21231668849430066    0.19840181516872651    0.18207642623763068    0.16435988760180334    
  0.20456436818500606    0.18207642623763062    0.15962522789563163    0.1383915488357611    0.11919839252119191    
  0.1024843313598395    0.0883820611114581    0.07683352742559156    0.0676848731825681    0.060741614975939356    
  0.055795015566447746    0.05264199919615503    0.051114192565345495    0.05111419256534552    0.05264199919615501    
  0.05579501556644771    0.06074161497593937    0.06768487318256809    0.07683352742559155    0.08838206111145809    
  0.1024843313598395    0.11919839252119194    0.13839154883576113    0.15962522789563158    0.18207642623763068    
  0.20456436818500603    0.2257086000277633    0.2441650264768626    0.25883447825929146    0.26896161354539133    
  0.27411662747141446    0.2741166274714145    0.2689616135453913    0.2588344782592914    0.2441650264768626    
  0.22570860002776327    0.20456436818500606    0.2516806724582705    0.2257086000277633    0.19840181516872654    
  0.17155888614427534    0.1466129887687785    0.12447528399022421    0.10556425891680492    0.08993192055061211    
  0.07741073740109003    0.0677361217907535    0.06062208565350469    0.05579501556644776    0.053014932621160686    
  0.05210950285950096    0.053014932621160686    0.055795015566447725    0.06062208565350465    0.06773612179075347    
  0.07741073740109004    0.0899319205506121    0.1055642589168049    0.1244752839902242    0.14661298876877848    
  0.17155888614427528    0.1984018151687265    0.2257086000277633    0.2516806724582705    0.2745135423277655    
  0.2928214264428501    0.30589011295450413    0.3136084038964581    0.3161461730910955    0.3136084038964581    
  0.30589011295450413    0.2928214264428501    0.2745135423277654    0.2516806724582705    0.30086129902020026    
  0.2745135423277654    0.2441650264768626    0.2123166884943007    0.18133949000394062    0.1529798923472192    
  0.12824547705591774    0.10751809948095561    0.09074068078376947    0.07760975068281352    0.0677361217907535    
  0.060741614975939405    0.0562975377221822    0.0541481475679175    0.05414814756791752    0.05629753772218219    
  0.06074161497593937    0.06773612179075347    0.07760975068281349    0.0907406807837695    0.10751809948095561    
  0.1282454770559177    0.15297989234721923    0.1813394900039405    0.21231668849430066    0.2441650264768626    
  0.2745135423277654    0.3008612990202002    0.32135227982342573    0.3353876806639323    0.3436168902499643    
  0.3472723859869228    0.3472723859869228    0.34361689024996417    0.33538768066393243    0.32135227982342573    
  0.30086129902020026    0.34174312496830395    0.32135227982342573    0.2928214264428501    0.2588344782592915    
  0.22294156459962905    0.1882920281162719    0.15701582852411625    0.13021147444064923    0.1081877431359454    
  0.09074068078376951    0.07741073740109009    0.06768487318256813    0.0611078304452215    0.05732129461009369    
  0.05608745917911838    0.05732129461009368    0.0611078304452215    0.0676848731825681    0.07741073740109004    
  0.09074068078376948    0.1081877431359454    0.13021147444064923    0.15701582852411625    0.18829202811627188    
  0.22294156459962905    0.25883447825929146    0.2928214264428501    0.32135227982342573    0.3417431249683039    
  0.3534220508464849    0.3581840246876851    0.35915197973670226    0.3591102600097123    0.3591519797367021    
  0.3581840246876852    0.35342205084648487    0.34174312496830395    0.35912573682019994    0.3534220508464849    
  0.33538768066393243    0.30589011295450413    0.2689616135453913    0.22960136151864313    0.19190669926235993    
  0.15839913579423817    0.13021147444064926    0.10751809948095561    0.08993192055061211    0.07683352742559159    
  0.06760576151702412    0.061748324952517905    0.058911310781875954    0.05891131078187591    0.061748324952517905    
  0.06760576151702412    0.07683352742559155    0.08993192055061208    0.10751809948095561    0.13021147444064926    
  0.1583991357942382    0.1919066992623599    0.22960136151864313    0.2689616135453912    0.30589011295450413    
  0.3353876806639323    0.3534220508464849    0.3591257368201999    0.3555912151914753    0.34844419288048606    
  0.3432274654348891    0.3432274654348891    0.3484441928804861    0.35559121519147524    0.35912573682019994    
  0.3400818979061094    0.35559121519147524    0.3581840246876852    0.3436168902499643    0.31360840389645817    
  0.2741166274714144    0.23186995518716916    0.1919066992623599    0.15701582852411625    0.1282454770559177    
  0.10556425891680492    0.08838206111145809    0.07593845071127094    0.06755105591626355    0.06271920267292638    
  0.06114214320255818    0.06271920267292638    0.06755105591626356    0.07593845071127094    0.08838206111145809    
  0.1055642589168049    0.1282454770559177    0.15701582852411625    0.1919066992623599    0.2318699551871691    
  0.27411662747141446    0.3136084038964581    0.3436168902499643    0.3581840246876851    0.35559121519147524    
  0.3400818979061094    0.3200391036539771    0.3040989121897779    0.29812146635641723    0.30409891218977797    
  0.32003910365397703    0.3400818979061094    0.28506078656639616    0.320039103653977    0.348444192880486    
  0.35915197973670215    0.34727238598692284    0.3161461730910954    0.2741166274714145    0.22960136151864313    
  0.18829202811627194    0.1529798923472192    0.12447528399022424    0.10248433135983953    0.0862211747874292    
  0.07482659859983987    0.06760588178442609    0.06410509081407022    0.06410509081407025    0.06760588178442609    
  0.07482659859983985    0.08622117478742919    0.10248433135983949    0.12447528399022421    0.1529798923472192    
  0.1882920281162719    0.22960136151864313    0.2741166274714144    0.3161461730910955    0.3472723859869228    
  0.35915197973670215    0.348444192880486    0.32003910365397703    0.2850607865663962    0.25523025985898223    
  0.23854417003929945    0.23854417003929956    0.25523025985898223    0.28506078656639616    0.21155353592163456    
  0.2552302598589823    0.3040989121897779    0.34322746543488913    0.35911026000971236    0.3472723859869228    
  0.31360840389645817    0.26896161354539133    0.22294156459962905    0.18133949000394053    0.14661298876877848    
  0.11919839252119194    0.09851831030976135    0.08362918483716307    0.07363359354663951    0.06788087958055931    
  0.06600229501223617    0.06788087958055936    0.0736335935466395    0.08362918483716304    0.09851831030976137    
  0.11919839252119191    0.14661298876877846    0.18133949000394053    0.22294156459962905    0.2689616135453913    
  0.3136084038964581    0.3472723859869228    0.3591102600097123    0.34322746543488913    0.3040989121897779    
  0.25523025985898234    0.21155353592163456    0.18285475337725554    0.1730314167955733    0.1828547533772555    
  0.21155353592163456    0.14321508206882036    0.18285475337725554    0.23854417003929956    0.2981214663564173    
  0.3432274654348891    0.3591519797367021    0.3436168902499643    0.30589011295450413    0.2588344782592914    
  0.2123166884943007    0.17155888614427534    0.13839154883576113    0.11280268300682213    0.09395559633064465    
  0.08081426587283581    0.07251172796640404    0.06848982294019454    0.06848982294019453    0.07251172796640404    
  0.08081426587283581    0.09395559633064467    0.11280268300682213    0.1383915488357611    0.1715588861442753    
  0.21231668849430066    0.2588344782592914    0.3058901129545042    0.3436168902499643    0.35915197973670215    
  0.34322746543488913    0.2981214663564173    0.2385441700392996    0.18285475337725557    0.14321508206882036    
  0.12347176457937349    0.12347176457937345    0.14321508206882036    0.09488249415919818    0.12347176457937349    