#     DFTpy    
  CRYSTAL 
    
  PRIMVEC    
  1.3735258891948203    -2.3790166255966505    0.0    
  1.3735258891948203    2.3790166255966505    0.0    
  0.0    0.0    2.5854197743448304    
  PRIMCOORD    
  1    1    
  Si    0.0    0.0    0.0    
  BEGIN_BLOCK_DATAGRID_3D    
  3d_datagrid_density    
  BEGIN_DATAGRID_3D#0    
  26    26    26    
  0.0    0.0    0.0    
  1.3735258943180981    -2.3790166344704278    0.0    
  1.3735258943180981    2.3790166344704278    0.0    
  0.0    0.0    2.5854197839884954    
  0.05236306906638513    0.061092059622648305    0.09039658036009926    0.14586042061677984    0.22485752868477824    
  0.30792508765123966    0.36712211745730294    0.38682413417105177    0.3728862697037161    0.34255571067103757    
  0.31108212966371834    0.2870915877160442    0.2743941464667805    0.2743941464667805    0.2870915877160442    
  0.31108212966371834    0.34255571067103757    0.3728862697037161    0.38682413417105177    0.36712211745730294    
  0.30792508765123966    0.22485752868477824    0.14586042061677984    0.09039658036009926    0.061092059622648305    
  0.05236306906638513    0.061092059622648395    0.06109205962264821    0.0801691715203551    0.12306343937538368    
  0.1917417656810999    0.2745648722461692    0.34588988271788595    0.38288458870691255    0.38200425260217025    
  0.3568272801182856    0.32434098471219613    0.2960527101385399    0.2775774416947332    0.27121009796251216    
  0.27757744169473325    0.29605271013853984    0.3243409847121962    0.3568272801182855    0.38200425260217025    
  0.3828845887069126    0.34588988271788595    0.27456487224616927    0.1917417656810999    0.12306343937538375    
  0.0801691715203551    0.061092059622648395    0.09039658036009934    0.0801691715203551    0.09039658036009926    
  0.12306343937538372    0.18035829353257352    0.25561010148883506    0.32855091454213475    0.37527632315032317    
  0.3853077873566659    0.36648717103551565    0.3348731436959507    0.30375621047532053    0.28046939078742894    
  0.2682318447352227    0.2682318447352228    0.280469390787429    0.30375621047532053    0.33487314369595067    
  0.36648717103551554    0.385307787356666    0.3752763231503233    0.32855091454213475    0.255610101488835    
  0.18035829353257357    0.12306343937538372    0.09039658036009934    0.14586042061677987    0.12306343937538365    
  0.12306343937538372    0.14586042061677987    0.19174176568109996    0.25561010148883506    0.3219650699502786    
  0.36967911381237684    0.3854760225374205    0.3719422954109809    0.3422086119960032    0.30966717236706043    
  0.28278028754507284    0.2655776869997796    0.2596954658520691    0.2655776869997797    0.2827802875450729    
  0.3096671723670603    0.34220861199600316    0.3719422954109809    0.3854760225374206    0.3696791138123769    
  0.3219650699502786    0.255610101488835    0.1917417656810999    0.14586042061677987    0.2248575286847783    
  0.1917417656810999    0.18035829353257352    0.1917417656810999    0.2248575286847782    0.27456487224616927    
  0.3285509145421347    0.36967911381237684    0.3851676081541386    0.37424226618014067    0.346395675276105    
  0.3135467175415326    0.28434539549386095    0.26334226953486484    0.2524923604152185    0.2524923604152185    
  0.26334226953486484    0.28434539549386095    0.3135467175415326    0.346395675276105    0.37424226618014056    
  0.3851676081541386    0.36967911381237684    0.32855091454213475    0.27456487224616927    0.2248575286847783    
  0.3079250876512397    0.27456487224616927    0.2556101014888351    0.255610101488835    0.27456487224616927    
  0.30792508765123966    0.34588988271788607    0.37527632315032317    0.3854760225374206    0.3742422661801407    
  0.3477368308036775    0.3154290199345858    0.28518904586582483    0.2616707738087945    0.24703248710623485    
  0.2420879239489291    0.24703248710623485    0.26167077380879455    0.28518904586582483    0.3154290199345858    
  0.3477368308036775    0.37424226618014067    0.3854760225374205    0.37527632315032317    0.34588988271788595    
  0.3079250876512397    0.36712211745730305    0.34588988271788595    0.32855091454213475    0.3219650699502786    
  0.3285509145421347    0.345889882717886    0.36712211745730294    0.38288458870691255    0.3853077873566659    
  0.3719422954109809    0.346395675276105    0.3154290199345858    0.2854454540388993    0.2607595882870551    
  0.24362287213499464    0.2349335978619302    0.2349335978619302    0.2436228721349946    0.26075958828705503    
  0.2854454540388993    0.31542901993458566    0.346395675276105    0.37194229541098084    0.385307787356666    
  0.38288458870691255    0.36712211745730305    0.38682413417105177    0.38288458870691255    0.37527632315032317    
  0.36967911381237684    0.3696791138123769    0.3752763231503233    0.38288458870691255    0.38682413417105177    
  0.38200425260217014    0.36648717103551565    0.3422086119960032    0.3135467175415326    0.28518904586582483    
  0.2607595882870551    0.24246281556087718    0.23131042651279501    0.22758462587008835    0.23131042651279485    
  0.2424628155608771    0.26075958828705514    0.28518904586582483    0.3135467175415326    0.34220861199600316    
  0.3664871710355156    0.3820042526021702    0.38682413417105177    0.3728862697037161    0.38200425260217025    
  0.38530778735666593    0.3854760225374206    0.3851676081541387    0.3854760225374206    0.385307787356666    
  0.3820042526021702    0.3728862697037161    0.3568272801182856    0.3348731436959507    0.30966717236706043    
  0.2843453954938609    0.2616707738087945    0.24362287213499464    0.23131042651279501    0.2251326265113728    
  0.2251326265113727    0.23131042651279496    0.24362287213499464    0.26167077380879455    0.28434539549386095    
  0.3096671723670603    0.3348731436959507    0.3568272801182855    0.3728862697037161    0.34255571067103757    
  0.3568272801182855    0.36648717103551565    0.37194229541098084    0.37424226618014056    0.37424226618014056    
  0.37194229541098084    0.36648717103551554    0.3568272801182855    0.34255571067103757    0.32434098471219613    
  0.30375621047532053    0.28278028754507284    0.26334226953486484    0.24703248710623485    0.23493359786193016    
  0.22758462587008835    0.22513262651137275    0.22758462587008826    0.2349335978619302    0.24703248710623477    
  0.2633422695348648    0.28278028754507284    0.3037562104753205    0.32434098471219613    0.34255571067103757    
  0.31108212966371834    0.32434098471219613    0.3348731436959507    0.34220861199600316    0.346395675276105    
  0.3477368308036775    0.346395675276105    0.34220861199600316    0.3348731436959507    0.3243409847121962    
  0.31108212966371834    0.29605271013853984    0.28046939078742894    0.2655776869997796    0.2524923604152185    
  0.2420879239489291    0.2349335978619302    0.23131042651279501    0.23131042651279496    0.2349335978619302    
  0.24208792394892914    0.2524923604152185    0.2655776869997796    0.28046939078742894    0.29605271013853984    
  0.31108212966371834    0.2870915877160443    0.29605271013853984    0.3037562104753206    0.30966717236706043    
  0.31354671754153257    0.31542901993458566    0.31542901993458566    0.31354671754153257    0.3096671723670603    
  0.30375621047532053    0.29605271013853984    0.2870915877160442    0.27757744169473325    0.2682318447352228    
  0.2596954658520691    0.25249236041521844    0.24703248710623485    0.24362287213499456    0.24246281556087704    
  0.2436228721349946    0.24703248710623477    0.25249236041521844    0.25969546585206904    0.26823184473522277    
  0.27757744169473325    0.2870915877160443    0.27439414646678056    0.27757744169473325    0.280469390787429    
  0.28278028754507284    0.284345395493861    0.2851890458658249    0.2854454540388993    0.28518904586582483    
  0.2843453954938609    0.2827802875450729    0.28046939078742894    0.27757744169473325    0.27439414646678056    
  0.27121009796251216    0.26823184473522277    0.2655776869997796    0.2633422695348649    0.26167077380879444    
  0.26075958828705503    0.26075958828705514    0.26167077380879455    0.26334226953486484    0.2655776869997796    
  0.2682318447352227    0.27121009796251216    0.27439414646678056    0.27439414646678056    0.27121009796251216    
  0.2682318447352227    0.2655776869997796    0.26334226953486484    0.26167077380879455    0.26075958828705514    
  0.26075958828705503    0.26167077380879444    0.2633422695348649    0.2655776869997796    0.26823184473522277    
  0.27121009796251216    0.27439414646678056    0.27757744169473325    0.28046939078742894    0.2827802875450729    
  0.2843453954938609    0.28518904586582483    0.2854454540388993    0.2851890458658249    0.284345395493861    
  0.28278028754507284    0.280469390787429    0.27757744169473325    0.27439414646678056    0.2870915877160443    
  0.27757744169473325    0.26823184473522277    0.25969546585206904    0.25249236041521844    0.24703248710623477    
  0.2436228721349946    0.24246281556087704    0.24362287213499456    0.24703248710623485    0.25249236041521844    
  0.2596954658520691    0.2682318447352228    0.27757744169473325    0.2870915877160442    0.29605271013853984    
  0.30375621047532053    0.3096671723670603    0.31354671754153257    0.31542901993458566    0.31542901993458566    
  0.31354671754153257    0.30966717236706043    0.3037562104753206    0.29605271013853984    0.2870915877160443    
  0.31108212966371834    0.29605271013853984    0.28046939078742894    0.2655776869997796    0.2524923604152185    
  0.24208792394892914    0.2349335978619302    0.23131042651279496    0.23131042651279501    0.2349335978619302    
  0.2420879239489291    0.2524923604152185    0.2655776869997796    0.28046939078742894    0.29605271013853984    
  0.31108212966371834    0.3243409847121962    0.3348731436959507    0.34220861199600316    0.346395675276105    
  0.3477368308036775    0.346395675276105    0.34220861199600316    0.3348731436959507    0.32434098471219613    
  0.31108212966371834    0.34255571067103757    0.32434098471219613    0.3037562104753205    0.28278028754507284    
  0.2633422695348648    0.24703248710623477    0.2349335978619302    0.22758462587008826    0.22513262651137275    
  0.22758462587008835    0.23493359786193016    0.24703248710623485    0.26334226953486484    0.28278028754507284    
  0.30375621047532053    0.32434098471219613    0.34255571067103757    0.3568272801182855    0.36648717103551554    
  0.37194229541098084    0.37424226618014056    0.37424226618014056    0.37194229541098084    0.36648717103551565    
  0.3568272801182855    0.34255571067103757    0.3728862697037161    0.3568272801182855    0.3348731436959507    
  0.3096671723670603    0.28434539549386095    0.26167077380879455    0.24362287213499464    0.23131042651279496    
  0.2251326265113727    0.2251326265113728    0.23131042651279501    0.24362287213499464    0.2616707738087945    
  0.2843453954938609    0.30966717236706043    0.3348731436959507    0.3568272801182856    0.3728862697037161    
  0.3820042526021702    0.385307787356666    0.3854760225374206    0.3851676081541387    0.3854760225374206    
  0.38530778735666593    0.38200425260217025    0.3728862697037161    0.38682413417105177    0.3820042526021702    
  0.3664871710355156    0.34220861199600316    0.3135467175415326    0.28518904586582483    0.26075958828705514    
  0.2424628155608771    0.23131042651279485    0.22758462587008835    0.23131042651279501    0.24246281556087718    
  0.2607595882870551    0.28518904586582483    0.3135467175415326    0.3422086119960032    0.36648717103551565    
  0.38200425260217014    0.38682413417105177    0.38288458870691255    0.3752763231503233    0.3696791138123769    
  0.36967911381237684    0.37527632315032317    0.38288458870691255    0.38682413417105177    0.36712211745730305    
  0.38288458870691255    0.385307787356666    0.37194229541098084    0.346395675276105    0.31542901993458566    
  0.2854454540388993    0.26075958828705503    0.2436228721349946    0.2349335978619302    0.2349335978619302    
  0.24362287213499464    0.2607595882870551    0.2854454540388993    0.3154290199345858    0.346395675276105    
  0.3719422954109809    0.3853077873566659    0.38288458870691255    0.36712211745730294    0.345889882717886    
  0.3285509145421347    0.3219650699502786    0.32855091454213475    0.34588988271788595    0.36712211745730305    
  0.3079250876512397    0.34588988271788595    0.37527632315032317    0.3854760225374205    0.37424226618014067    
  0.3477368308036775    0.3154290199345858    0.28518904586582483    0.26167077380879455    0.24703248710623485    
  0.2420879239489291    0.24703248710623485    0.2616707738087945    0.28518904586582483    0.3154290199345858    
  0.3477368308036775    0.3742422661801407    0.3854760225374206    0.37527632315032317    0.34588988271788607    
  0.30792508765123966    0.27456487224616927    0.255610101488835    0.2556101014888351    0.27456487224616927    
  0.3079250876512397    0.2248575286847783    0.27456487224616927    0.32855091454213475    0.36967911381237684    
  0.3851676081541386    0.37424226618014056    0.346395675276105    0.3135467175415326    0.28434539549386095    
  0.26334226953486484    0.2524923604152185    0.2524923604152185    0.26334226953486484    0.28434539549386095    
  0.3135467175415326    0.346395675276105    0.37424226618014067    0.3851676081541386    0.36967911381237684    
  0.3285509145421347    0.27456487224616927    0.2248575286847782    0.1917417656810999    0.18035829353257352    
  0.1917417656810999    0.2248575286847783    0.14586042061677987    0.1917417656810999    0.255610101488835    
  0.3219650699502786    0.3696791138123769    0.3854760225374206    0.3719422954109809    0.34220861199600316    
  0.3096671723670603    0.2827802875450729    0.2655776869997797    0.2596954658520691    0.2655776869997796    
  0.28278028754507284    0.30966717236706043    0.3422086119960032    0.3719422954109809    0.3854760225374205    
  0.36967911381237684    0.3219650699502786    0.25561010148883506    0.19174176568109996    0.14586042061677987    
  0.12306343937538372    0.12306343937538365    0.14586042061677987    0.09039658036009934    0.12306343937538372    
  0.18035829353257357    0.255610101488835    0.32855091454213475    0.3752763231503233    0.385307787356666    
  0.36648717103551554    0.33487314369595067    0.30375621047532053    0.280469390787429    0.2682318447352228    
  0.2682318447352227    0.28046939078742894    0.30375621047532053    0.3348731436959507    0.36648717103551565    
  0.3853077873566659    0.37527632315032317    0.32855091454213475    0.25561010148883506    0.18035829353257352    
  0.12306343937538372    0.09039658036009926    0.0801691715203551    0.09039658036009934    0.061092059622648395    
  0.0801691715203551    0.12306343937538375    0.1917417656810999    0.27456487224616927    0.34588988271788595    
  0.3828845887069126    0.38200425260217025    0.3568272801182855    0.3243409847121962    0.29605271013853984    
  0.27757744169473325    0.27121009796251216    0.2775774416947332    0.2960527101385399    0.32434098471219613    
  0.3568272801182856    0.38200425260217025    0.38288458870691255    0.34588988271788595    0.2745648722461692    
  0.1917417656810999    0.12306343937538368    0.0801691715203551    0.06109205962264821    0.061092059622648395    
  0.05236306906638513    0.061092059622648305    0.09039658036009926    0.14586042061677984    0.22485752868477824    
  0.30792508765123966    0.36712211745730294    0.38682413417105177    0.3728862697037161    0.34255571067103757    
  0.31108212966371834    0.2870915877160442    0.2743941464667805    0.2743941464667805    0.2870915877160442    
  0.31108212966371834    0.34255571067103757    0.3728862697037161    0.38682413417105177    0.36712211745730294    
  0.30792508765123966    0.22485752868477824    0.14586042061677984    0.09039658036009926    0.061092059622648305    
  0.05236306906638513    0.06039897217098625    0.06962934899937885    0.1000956559290367    0.15630484925338514    
  0.23425429111436366    0.31408620515837193    0.36910634372536033    0.3854340569383162    0.36968773898781826    
  0.338788321833798    0.3073441402573335    0.2835365169965997    0.2709679541240806    0.2709679541240806    
  0.2835365169965997    0.3073441402573335    0.338788321833798    0.36968773898781826    0.3854340569383162    
  0.36910634372536033    0.31408620515837193    0.23425429111436366    0.15630484925338514    0.1000956559290367    
  0.06962934899937885    0.06039897217098625    0.06962934899937895    0.06962934899937881    0.08954033923035143    
  0.1333834088452303    0.20182733900370411    0.282290607427682    0.34966725891521916    0.3828028631150093    
  0.3794262183429037    0.35320739064535683    0.32055288209353344    0.2924173855198834    0.2741147813111586    
  0.2678159806265024    0.27411478131115863    0.2924173855198834    0.32055288209353355    0.3532073906453567    
  0.37942621834290374    0.38280286311500933    0.34966725891521916    0.2822906074276821    0.20182733900370414    
  0.13338340884523037    0.08954033923035147    0.06962934899937895    0.10009565592903677    0.08954033923035143    
  0.1000956559290367    0.13338340884523037    0.19059946826713584    0.264054941657627    0.3334919582579064    
  0.3762881145537576    0.3833886265202814    0.36310345489912743    0.3310923692479564    0.3000640630204147    
  0.27697307462937065    0.2648651478618761    0.26486514786187615    0.2769730746293707    0.3000640630204147    
  0.3310923692479563    0.36310345489912726    0.38338862652028144    0.3762881145537577    0.3334919582579064    
  0.26405494165762694    0.1905994682671359    0.13338340884523037    0.10009565592903677    0.1563048492533852    
  0.1333834088452303    0.13338340884523037    0.15630484925338517    0.20182733900370417    0.264054941657627    
  0.3273015017139984    0.3713036095572799    0.38405598536514973    0.3688001559469974    0.33847629354098013    
  0.30594791258984316    0.27926245007949735    0.2622380475779894    0.25642329476055126    0.2622380475779895    
  0.2792624500794974    0.3059479125898431    0.3384762935409801    0.3688001559469974    0.3840559853651498    
  0.3713036095572799    0.3273015017139984    0.26405494165762694    0.20182733900370411    0.1563048492533852    
  0.23425429111436372    0.20182733900370411    0.19059946826713584    0.20182733900370414    0.23425429111436363    
  0.2822906074276821    0.33349195825790634    0.3713036095572799    0.38393284124612875    0.3712520436923233    
  0.34271748844836647    0.30982419935562877    0.28082153417041217    0.260031648723186    0.24930788658194503    
  0.24930788658194503    0.260031648723186    0.28082153417041217    0.3098241993556287    0.34271748844836647    
  0.3712520436923233    0.38393284124612875    0.3713036095572799    0.3334919582579064    0.2822906074276821    
  0.23425429111436372    0.31408620515837193    0.2822906074276821    0.264054941657627    0.2640549416576269    
  0.2822906074276821    0.31408620515837193    0.34966725891521927    0.3762881145537576    0.38405598536514973    
  0.37125204369232334    0.34408185226700966    0.31171153905952775    0.28166864558874305    0.25838725889466513    
  0.24392062052702404    0.23903765468194016    0.24392062052702404    0.2583872588946652    0.28166864558874294    
  0.31171153905952775    0.34408185226700966    0.3712520436923233    0.3840559853651497    0.3762881145537576    
  0.34966725891521916    0.31408620515837193    0.3691063437253604    0.34966725891521916    0.33349195825790645    
  0.3273015017139984    0.33349195825790634    0.34966725891521916    0.3691063437253603    0.3828028631150093    
  0.38338862652028144    0.3688001559469974    0.34271748844836647    0.3117115390595277    0.2819278473461581    
  0.25749297292204426    0.2405592107651537    0.23198025550601956    0.23198025550601956    0.24055921076515369    
  0.2574929729220442    0.2819278473461581    0.3117115390595277    0.34271748844836647    0.36880015594699733    
  0.3833886265202815    0.3828028631150093    0.3691063437253604    0.3854340569383162    0.3828028631150093    
  0.3762881145537576    0.3713036095572799    0.3713036095572799    0.3762881145537577    0.3828028631150093    
  0.3854340569383162    0.37942621834290363    0.36310345489912743    0.33847629354098013    0.30982419935562877    
  0.28166864558874305    0.25749297292204426    0.23941604378046316    0.22840720609866377    0.22473084422974957    
  0.2284072060986637    0.23941604378046305    0.25749297292204426    0.28166864558874305    0.30982419935562877    
  0.3384762935409801    0.3631034548991273    0.37942621834290363    0.3854340569383162    0.36968773898781826    
  0.37942621834290374    0.38338862652028144    0.38405598536514973    0.38393284124612886    0.38405598536514973    
  0.38338862652028144    0.37942621834290363    0.3696877389878182    0.35320739064535683    0.3310923692479563    
  0.3059479125898431    0.2808215341704121    0.2583872588946651    0.2405592107651537    0.22840720609866377    
  0.22231242387193328    0.2223124238719332    0.22840720609866372    0.2405592107651537    0.2583872588946652    
  0.28082153417041217    0.3059479125898431    0.3310923692479564    0.3532073906453568    0.36968773898781826    
  0.338788321833798    0.3532073906453568    0.3631034548991274    0.36880015594699733    0.3712520436923233    
  0.37125204369232323    0.36880015594699733    0.36310345489912726    0.3532073906453568    0.338788321833798    
  0.3205528820935335    0.3000640630204147    0.2792624500794974    0.260031648723186    0.24392062052702404    
  0.23198025550601956    0.22473084422974957    0.2223124238719332    0.22473084422974945    0.23198025550601956    
  0.24392062052702396    0.26003164872318596    0.27926245007949735    0.3000640630204147    0.32055288209353344    
  0.338788321833798    0.3073441402573335    0.32055288209353344    0.3310923692479564    0.3384762935409801    
  0.34271748844836647    0.34408185226700966    0.34271748844836647    0.3384762935409801    0.3310923692479563    
  0.32055288209353355    0.3073441402573335    0.2924173855198834    0.27697307462937065    0.26223804757798946    
  0.24930788658194503    0.23903765468194016    0.2319802555060196    0.22840720609866377    0.22840720609866377    
  0.2319802555060196    0.23903765468194021    0.249307886581945    0.2622380475779894    0.27697307462937065    
  0.29241738551988333    0.3073441402573335    0.2835365169965998    0.2924173855198834    0.3000640630204147    
  0.3059479125898431    0.30982419935562866    0.3117115390595277    0.3117115390595277    0.30982419935562866    
  0.30594791258984305    0.3000640630204147    0.2924173855198834    0.2835365169965997    0.2741147813111586    
  0.26486514786187615    0.25642329476055126    0.249307886581945    0.24392062052702404    0.24055921076515363    
  0.23941604378046305    0.24055921076515369    0.24392062052702396    0.24930788658194494    0.2564232947605512    
  0.26486514786187615    0.27411478131115863    0.2835365169965998    0.2709679541240807    0.2741147813111586    
  0.2769730746293707    0.2792624500794974    0.28082153417041217    0.28166864558874305    0.2819278473461581    
  0.281668645588743    0.28082153417041206    0.27926245007949746    0.27697307462937065    0.2741147813111586    
  0.27096795412408065    0.2678159806265024    0.26486514786187615    0.26223804757798946    0.26003164872318607    
  0.2583872588946651    0.2574929729220442    0.25749297292204426    0.2583872588946652    0.26003164872318607    
  0.2622380475779894    0.2648651478618761    0.2678159806265024    0.2709679541240807    0.2709679541240807    
  0.2678159806265024    0.2648651478618761    0.2622380475779894    0.26003164872318607    0.2583872588946652    
  0.25749297292204426    0.2574929729220442    0.2583872588946651    0.26003164872318607    0.26223804757798946    
  0.26486514786187615    0.2678159806265024    0.27096795412408065    0.2741147813111586    0.27697307462937065    
  0.27926245007949746    0.28082153417041206    0.281668645588743    0.2819278473461581    0.28166864558874305    
  0.28082153417041217    0.2792624500794974    0.2769730746293707    0.2741147813111586    0.2709679541240807    
  0.2835365169965998    0.27411478131115863    0.26486514786187615    0.2564232947605512    0.24930788658194494    
  0.24392062052702396    0.24055921076515369    0.23941604378046305    0.24055921076515363    0.24392062052702404    
  0.249307886581945    0.25642329476055126    0.26486514786187615    0.2741147813111586    0.2835365169965997    
  0.2924173855198834    0.3000640630204147    0.30594791258984305    0.30982419935562866    0.3117115390595277    
  0.3117115390595277    0.30982419935562866    0.3059479125898431    0.3000640630204147    0.2924173855198834    
  0.2835365169965998    0.3073441402573335    0.29241738551988333    0.27697307462937065    0.2622380475779894    
  0.249307886581945    0.23903765468194021    0.2319802555060196    0.22840720609866377    0.22840720609866377    
  0.2319802555060196    0.23903765468194016    0.24930788658194503    0.26223804757798946    0.27697307462937065    
  0.2924173855198834    0.3073441402573335    0.32055288209353355    0.3310923692479563    0.3384762935409801    
  0.34271748844836647    0.34408185226700966    0.34271748844836647    0.3384762935409801    0.3310923692479564    
  0.32055288209353344    0.3073441402573335    0.338788321833798    0.32055288209353344    0.3000640630204147    
  0.27926245007949735    0.26003164872318596    0.24392062052702396    0.23198025550601956    0.22473084422974945    
  0.2223124238719332    0.22473084422974957    0.23198025550601956    0.24392062052702404    0.260031648723186    
  0.2792624500794974    0.3000640630204147    0.3205528820935335    0.338788321833798    0.3532073906453568    
  0.36310345489912726    0.36880015594699733    0.37125204369232323    0.3712520436923233    0.36880015594699733    
  0.3631034548991274    0.3532073906453568    0.338788321833798    0.36968773898781826    0.3532073906453568    
  0.3310923692479564    0.3059479125898431    0.28082153417041217    0.2583872588946652    0.2405592107651537    
  0.22840720609866372    0.2223124238719332    0.22231242387193328    0.22840720609866377    0.2405592107651537    
  0.2583872588946651    0.2808215341704121    0.3059479125898431    0.3310923692479563    0.35320739064535683    
  0.3696877389878182    0.37942621834290363    0.38338862652028144    0.38405598536514973    0.38393284124612886    
  0.38405598536514973    0.38338862652028144    0.37942621834290374    0.36968773898781826    0.3854340569383162    
  0.37942621834290363    0.3631034548991273    0.3384762935409801    0.30982419935562877    0.28166864558874305    
  0.25749297292204426    0.23941604378046305    0.2284072060986637    0.22473084422974957    0.22840720609866377    
  0.23941604378046316    0.25749297292204426    0.28166864558874305    0.30982419935562877    0.33847629354098013    
  0.36310345489912743    0.37942621834290363    0.3854340569383162    0.3828028631150093    0.3762881145537577    
  0.3713036095572799    0.3713036095572799    0.3762881145537576    0.3828028631150093    0.3854340569383162    
  0.3691063437253604    0.3828028631150093    0.3833886265202815    0.36880015594699733    0.34271748844836647    
  0.3117115390595277    0.2819278473461581    0.2574929729220442    0.24055921076515369    0.23198025550601956    
  0.23198025550601956    0.2405592107651537    0.25749297292204426    0.2819278473461581    0.3117115390595277    
  0.34271748844836647    0.3688001559469974    0.38338862652028144    0.3828028631150093    0.3691063437253603    
  0.34966725891521916    0.33349195825790634    0.3273015017139984    0.33349195825790645    0.34966725891521916    
  0.3691063437253604    0.31408620515837193    0.34966725891521916    0.3762881145537576    0.3840559853651497    
  0.3712520436923233    0.34408185226700966    0.31171153905952775    0.28166864558874294    0.2583872588946652    
  0.24392062052702404    0.23903765468194016    0.24392062052702404    0.25838725889466513    0.28166864558874305    
  0.31171153905952775    0.34408185226700966    0.37125204369232334    0.38405598536514973    0.3762881145537576    
  0.34966725891521927    0.31408620515837193    0.2822906074276821    0.2640549416576269    0.264054941657627    
  0.2822906074276821    0.31408620515837193    0.23425429111436372    0.2822906074276821    0.3334919582579064    
  0.3713036095572799    0.38393284124612875    0.3712520436923233    0.34271748844836647    0.3098241993556287    
  0.28082153417041217    0.260031648723186    0.24930788658194503    0.24930788658194503    0.260031648723186    
  0.28082153417041217    0.30982419935562877    0.34271748844836647    0.3712520436923233    0.38393284124612875    
  0.3713036095572799    0.33349195825790634    0.2822906074276821    0.23425429111436363    0.20182733900370414    
  0.19059946826713584    0.20182733900370411    0.23425429111436372    0.1563048492533852    0.20182733900370411    
  0.26405494165762694    0.3273015017139984    0.3713036095572799    0.3840559853651498    0.3688001559469974    
  0.3384762935409801    0.3059479125898431    0.2792624500794974    0.2622380475779895    0.25642329476055126    
  0.2622380475779894    0.27926245007949735    0.30594791258984316    0.33847629354098013    0.3688001559469974    
  0.38405598536514973    0.3713036095572799    0.3273015017139984    0.264054941657627    0.20182733900370417    
  0.15630484925338517    0.13338340884523037    0.1333834088452303    0.1563048492533852    0.10009565592903677    