#     DFTpy    
  CRYSTAL 
    
  PRIMVEC    
  1.6717255888226408    -2.8955136561538106    0.0    
  1.6717255888226408    2.8955136561538106    0.0    
  0.0    0.0    3.1467280148275902    
  PRIMCOORD    
  1    1    
  Si    0.0    0.0    0.0    
  BEGIN_BLOCK_DATAGRID_3D    
  3d_datagrid_density    
  BEGIN_DATAGRID_3D#0    
  33    33    31    
  0.0    0.0    0.0    
  1.671725595058209    -2.8955136669541317    0.0    
  1.671725595058209    2.8955136669541317    0.0    
  0.0    0.0    3.1467280265649458    
  0.05896593510398376    0.06731488875169818    0.09477107624250027    0.14550849564924653    0.2169199269479335    
  0.29226324846214624    0.34620777069968167    0.3619024096109134    0.34136838697558963    0.2994665651992824    
  0.2516727352104267    0.20767480889330245    0.17164515672373354    0.1445943291892137    0.12614132716122034    
  0.1155013575428564    0.1120335115711636    0.1155013575428564    0.12614132716122034    0.1445943291892137    
  0.17164515672373354    0.20767480889330245    0.2516727352104267    0.2994665651992824    0.34136838697558963    
  0.3619024096109134    0.34620777069968167    0.29226324846214624    0.2169199269479335    0.14550849564924653    
  0.09477107624250027    0.06731488875169818    0.05896593510398376    0.06731488875169818    0.06731488875169818    
  0.08526684199461809    0.12477158004528745    0.18701062402775648    0.26192054047675634    0.32694698672444605    
  0.3599081319091517    0.35419646240367586    0.32002180695198884    0.2735180477540813    0.22711140997864368    
  0.18719193852548896    0.15595490963746336    0.13351808867180265    0.11920836973923976    0.11227670806661055    
  0.1122767080666106    0.1192083697392397    0.13351808867180268    0.1559549096374634    0.18719193852548896    
  0.22711140997864368    0.2735180477540813    0.32002180695198884    0.35419646240367586    0.3599081319091517    
  0.32694698672444605    0.2619205404767563    0.1870106240277565    0.1247715800452874    0.08526684199461804    
  0.06731488875169818    0.09477107624250027    0.08526684199461809    0.09477107624250027    0.1247715800452874    
  0.17672566499010148    0.2447340420397768    0.3111304808720984    0.35361859578834365    0.3598845029622097    
  0.3343096334859437    0.2911697539985258    0.2441712124815696    0.20160320448995694    0.16694563891922673    
  0.14096217176247747    0.1232235898681598    0.11297766545596033    0.10963361429642726    0.1129776654559603    
  0.12322358986815977    0.14096217176247752    0.16694563891922676    0.20160320448995694    0.2441712124815696    
  0.29116975399852574    0.3343096334859436    0.35988450296220964    0.35361859578834365    0.3111304808720984    
  0.2447340420397768    0.17672566499010148    0.1247715800452874    0.09477107624250027    0.14550849564924653    
  0.12477158004528749    0.1247715800452874    0.14550849564924653    0.18701062402775656    0.24473404203977683    
  0.3051215576006092    0.34872509783049427    0.3613778298616976    0.34274735100906134    0.3037821131462293    
  0.2577186440996808    0.21387793085964696    0.17682225993180145    0.1479923278250324    0.12728799659402773    
  0.11404617455919257    0.10761020073484723    0.10761020073484716    0.11404617455919257    0.1272879965940277    
  0.14799232782503244    0.17682225993180148    0.21387793085964696    0.25771864409968087    0.30378211314622927    
  0.3427473510090614    0.36137782986169753    0.34872509783049427    0.30512155760060916    0.2447340420397768    
  0.1870106240277565    0.14550849564924653    0.2169199269479335    0.1870106240277565    0.17672566499010145    
  0.1870106240277565    0.2169199269479335    0.2619205404767563    0.3111304808720984    0.34872509783049427    
  0.36149505528563836    0.34649466047358823    0.3111939811212296    0.26700651922243673    0.22317833560741768    
  0.18487097236752717    0.15408747191968084    0.1310774069988647    0.11532886411725067    0.10618731920688758    
  0.10319238447602343    0.10618731920688756    0.11532886411725067    0.13107740699886467    0.15408747191968084    
  0.18487097236752717    0.22317833560741768    0.26700651922243673    0.31119398112122965    0.34649466047358823    
  0.3614950552856383    0.3487250978304942    0.3111304808720984    0.26192054047675634    0.2169199269479335    
  0.29226324846214624    0.26192054047675634    0.2447340420397768    0.2447340420397768    0.2619205404767563    
  0.29226324846214624    0.32694698672444605    0.35361859578834365    0.36137782986169753    0.34649466047358823    
  0.31361781608512257    0.2716945250170187    0.22894430666709206    0.190527950295703    0.158779593738372    
  0.13425631483350944    0.11662752845654457    0.10529026734579858    0.09974684295595705    0.0997468429559571    
  0.10529026734579856    0.1166275284565446    0.13425631483350944    0.15877959373837203    0.190527950295703    
  0.22894430666709206    0.27169452501701863    0.31361781608512257    0.34649466047358835    0.36137782986169753    
  0.3536185957883437    0.32694698672444605    0.29226324846214624    0.3462077706996816    0.32694698672444605    
  0.3111304808720984    0.3051215576006092    0.31113048087209844    0.32694698672444605    0.34620777069968167    
  0.3599081319091517    0.3598845029622097    0.34274735100906134    0.3111939811212296    0.27169452501701863    
  0.2308929281539279    0.19343709129754774    0.16172535145578606    0.1365392169560174    0.11773602002269712    
  0.10480066275764659    0.09723636488382403    0.09474531140052085    0.09723636488382403    0.10480066275764657    
  0.11773602002269712    0.13653921695601737    0.16172535145578606    0.1934370912975478    0.230892928153928    
  0.27169452501701863    0.3111939811212297    0.34274735100906134    0.35988450296220964    0.3599081319091517    
  0.3462077706996816    0.3619024096109134    0.3599081319091517    0.35361859578834365    0.3487250978304943    
  0.3487250978304943    0.35361859578834365    0.3599081319091517    0.3619024096109134    0.35419646240367586    
  0.3343096334859437    0.3037821131462293    0.26700651922243673    0.22894430666709206    0.1934370912975478    
  0.16272801843850532    0.13772935187142926    0.11847896365433488    0.10458098840730998    0.095572911643733    
  0.09113758991850435    0.09113758991850437    0.09557291164373302    0.10458098840730996    0.11847896365433491    
  0.1377293518714292    0.16272801843850535    0.19343709129754785    0.22894430666709212    0.26700651922243673    
  0.3037821131462293    0.33430963348594367    0.35419646240367586    0.3619024096109134    0.34136838697558963    
  0.35419646240367586    0.35988450296220964    0.36137782986169753    0.3614950552856383    0.3613778298616976    
  0.35988450296220964    0.3541964624036759    0.34136838697558963    0.32002180695198884    0.29116975399852574    
  0.25771864409968087    0.22317833560741768    0.190527950295703    0.16172535145578606    0.13772935187142926    
  0.11874013871038529    0.10450800015844129    0.09464207510091772    0.08882961409491454    0.0869071745677605    
  0.08882961409491454    0.09464207510091774    0.10450800015844128    0.11874013871038529    0.1377293518714292    
  0.16172535145578612    0.190527950295703    0.2231783356074177    0.2577186440996808    0.29116975399852574    
  0.32002180695198884    0.34136838697558963    0.2994665651992824    0.3200218069519889    0.3343096334859437    
  0.34274735100906134    0.34649466047358835    0.34649466047358823    0.34274735100906134    0.3343096334859437    
  0.32002180695198884    0.29946656519928233    0.2735180477540813    0.2441712124815696    0.21387793085964693    
  0.18487097236752717    0.158779593738372    0.13653921695601737    0.11847896365433488    0.10450800015844129    
  0.09434493537530712    0.08771258087313473    0.08443380648891724    0.08443380648891725    0.08771258087313473    
  0.09434493537530715    0.10450800015844128    0.11847896365433491    0.1365392169560174    0.15877959373837203    
  0.18487097236752723    0.21387793085964696    0.2441712124815696    0.27351804775408134    0.2994665651992824    
  0.25167273521042666    0.2735180477540813    0.29116975399852574    0.30378211314622927    0.3111939811212297    
  0.3136178160851226    0.3111939811212296    0.3037821131462293    0.29116975399852574    0.2735180477540813    
  0.2516727352104267    0.22711140997864368    0.20160320448995694    0.17682225993180145    0.15408747191968084    
  0.13425631483350947    0.11773602002269712    0.10458098840730999    0.09464207510091772    0.08771258087313473    
  0.08362201961510865    0.08226927702254429    0.08362201961510862    0.08771258087313473    0.09464207510091774    
  0.10458098840730996    0.11773602002269712    0.13425631483350947    0.1540874719196809    0.17682225993180142    
  0.20160320448995694    0.22711140997864368    0.25167273521042666    0.20767480889330248    0.22711140997864368    
  0.24417121248156953    0.25771864409968087    0.26700651922243673    0.27169452501701863    0.2716945250170187    
  0.26700651922243673    0.25771864409968087    0.24417121248156953    0.22711140997864368    0.20767480889330245    
  0.18719193852548896    0.16694563891922679    0.14799232782503244    0.1310774069988647    0.11662752845654457    
  0.10480066275764657    0.095572911643733    0.08882961409491454    0.08443380648891724    0.08226927702254429    
  0.08226927702254426    0.08443380648891727    0.08882961409491456    0.09557291164373302    0.10480066275764659    
  0.1166275284565446    0.1310774069988647    0.1479923278250325    0.16694563891922676    0.18719193852548896    
  0.20767480889330248    0.17164515672373354    0.18719193852548896    0.20160320448995697    0.21387793085964696    
  0.2231783356074177    0.22894430666709206    0.230892928153928    0.22894430666709206    0.22317833560741768    
  0.21387793085964696    0.20160320448995694    0.18719193852548896    0.17164515672373357    0.15595490963746336    
  0.14096217176247752    0.1272879965940277    0.11532886411725067    0.10529026734579858    0.09723636488382403    
  0.09113758991850433    0.0869071745677605    0.08443380648891723    0.08362201961510862    0.08443380648891723    
  0.08690717456776044    0.09113758991850433    0.0972363648838241    0.10529026734579859    0.1153288641172507    
  0.1272879965940277    0.14096217176247752    0.1559549096374634    0.17164515672373354    0.1445943291892137    
  0.1559549096374634    0.16694563891922673    0.17682225993180142    0.18487097236752723    0.19052795029570296    
  0.1934370912975478    0.1934370912975478    0.190527950295703    0.18487097236752717    0.17682225993180145    
  0.16694563891922673    0.15595490963746342    0.1445943291892137    0.13351808867180268    0.1232235898681598    
  0.11404617455919257    0.10618731920688758    0.0997468429559571    0.09474531140052084    0.09113758991850437    
  0.08882961409491454    0.08771258087313473    0.08771258087313473    0.08882961409491455    0.09113758991850437    
  0.09474531140052087    0.0997468429559571    0.10618731920688758    0.11404617455919254    0.12322358986815977    
  0.1335180886718027    0.1445943291892137    0.1261413271612204    0.1335180886718027    0.14096217176247752    
  0.14799232782503244    0.1540874719196809    0.15877959373837203    0.16172535145578606    0.16272801843850535    
  0.16172535145578606    0.15877959373837205    0.15408747191968086    0.14799232782503244    0.14096217176247752    
  0.13351808867180265    0.12614132716122037    0.11920836973923976    0.11297766545596033    0.1076102007348472    
  0.10319238447602344    0.09974684295595707    0.09723636488382405    0.09557291164373304    0.09464207510091774    
  0.09434493537530717    0.09464207510091774    0.09557291164373301    0.09723636488382408    0.09974684295595712    
  0.10319238447602347    0.1076102007348472    0.11297766545596033    0.11920836973923976    0.1261413271612204    
  0.11550135754285637    0.11920836973923976    0.12322358986815977    0.1272879965940277    0.1310774069988647    
  0.13425631483350944    0.13653921695601737    0.1377293518714292    0.13772935187142923    0.13653921695601734    
  0.13425631483350944    0.1310774069988647    0.1272879965940277    0.12322358986815976    0.11920836973923976    
  0.1155013575428564    0.11227670806661055    0.10963361429642723    0.10761020073484717    0.10618731920688754    
  0.10529026734579858    0.10480066275764656    0.10458098840730995    0.10450800015844128    0.10450800015844128    
  0.10458098840730996    0.10480066275764656    0.10529026734579858    0.10618731920688758    0.10761020073484717    
  0.10963361429642723    0.11227670806661058    0.11550135754285637    0.11203351157116363    0.11227670806661058    
  0.11297766545596036    0.11404617455919257    0.1153288641172507    0.1166275284565446    0.11773602002269712    
  0.11847896365433488    0.11874013871038529    0.11847896365433491    0.11773602002269712    0.11662752845654457    
  0.1153288641172507    0.11404617455919257    0.11297766545596033    0.11227670806661058    0.1120335115711636    
  0.11227670806661058    0.11297766545596033    0.11404617455919257    0.1153288641172507    0.11662752845654457    
  0.11773602002269712    0.11847896365433491    0.11874013871038529    0.11847896365433488    0.11773602002269712    
  0.1166275284565446    0.1153288641172507    0.11404617455919257    0.11297766545596036    0.11227670806661058    
  0.11203351157116363    0.11550135754285637    0.11227670806661058    0.10963361429642723    0.10761020073484717    
  0.10618731920688758    0.10529026734579858    0.10480066275764656    0.10458098840730996    0.10450800015844128    
  0.10450800015844128    0.10458098840730995    0.10480066275764656    0.10529026734579858    0.10618731920688754    
  0.10761020073484717    0.10963361429642723    0.11227670806661055    0.1155013575428564    0.11920836973923976    
  0.12322358986815976    0.1272879965940277    0.1310774069988647    0.13425631483350944    0.13653921695601734    
  0.13772935187142923    0.1377293518714292    0.13653921695601737    0.13425631483350944    0.1310774069988647    
  0.1272879965940277    0.12322358986815977    0.11920836973923976    0.11550135754285637    0.1261413271612204    
  0.11920836973923976    0.11297766545596033    0.1076102007348472    0.10319238447602347    0.09974684295595712    
  0.09723636488382408    0.09557291164373301    0.09464207510091774    0.09434493537530717    0.09464207510091774    
  0.09557291164373304    0.09723636488382405    0.09974684295595707    0.10319238447602344    0.1076102007348472    
  0.11297766545596033    0.11920836973923976    0.12614132716122037    0.13351808867180265    0.14096217176247752    
  0.14799232782503244    0.15408747191968086    0.15877959373837205    0.16172535145578606    0.16272801843850535    
  0.16172535145578606    0.15877959373837203    0.1540874719196809    0.14799232782503244    0.14096217176247752    
  0.1335180886718027    0.1261413271612204    0.1445943291892137    0.1335180886718027    0.12322358986815977    
  0.11404617455919254    0.10618731920688758    0.0997468429559571    0.09474531140052087    0.09113758991850437    
  0.08882961409491455    0.08771258087313473    0.08771258087313473    0.08882961409491454    0.09113758991850437    
  0.09474531140052084    0.0997468429559571    0.10618731920688758    0.11404617455919257    0.1232235898681598    
  0.13351808867180268    0.1445943291892137    0.15595490963746342    0.16694563891922673    0.17682225993180145    
  0.18487097236752717    0.190527950295703    0.1934370912975478    0.1934370912975478    0.19052795029570296    
  0.18487097236752723    0.17682225993180142    0.16694563891922673    0.1559549096374634    0.1445943291892137    
  0.17164515672373354    0.1559549096374634    0.14096217176247752    0.1272879965940277    0.1153288641172507    
  0.10529026734579859    0.0972363648838241    0.09113758991850433    0.08690717456776044    0.08443380648891723    
  0.08362201961510862    0.08443380648891723    0.0869071745677605    0.09113758991850433    0.09723636488382403    
  0.10529026734579858    0.11532886411725067    0.1272879965940277    0.14096217176247752    0.15595490963746336    
  0.17164515672373357    0.18719193852548896    0.20160320448995694    0.21387793085964696    0.22317833560741768    
  0.22894430666709206    0.230892928153928    0.22894430666709206    0.2231783356074177    0.21387793085964696    
  0.20160320448995697    0.18719193852548896    0.17164515672373354    0.20767480889330248    0.18719193852548896    
  0.16694563891922676    0.1479923278250325    0.1310774069988647    0.1166275284565446    0.10480066275764659    
  0.09557291164373302    0.08882961409491456    0.08443380648891727    0.08226927702254426    0.08226927702254429    
  0.08443380648891724    0.08882961409491454    0.095572911643733    0.10480066275764657    0.11662752845654457    
  0.1310774069988647    0.14799232782503244    0.16694563891922679    0.18719193852548896    0.20767480889330245    
  0.22711140997864368    0.24417121248156953    0.25771864409968087    0.26700651922243673    0.2716945250170187    
  0.27169452501701863    0.26700651922243673    0.25771864409968087    0.24417121248156953    0.22711140997864368    
  0.20767480889330248    0.25167273521042666    0.22711140997864368    0.20160320448995694    0.17682225993180142    
  0.1540874719196809    0.13425631483350947    0.11773602002269712    0.10458098840730996    0.09464207510091774    
  0.08771258087313473    0.08362201961510862    0.08226927702254429    0.08362201961510865    0.08771258087313473    
  0.09464207510091772    0.10458098840730999    0.11773602002269712    0.13425631483350947    0.15408747191968084    
  0.17682225993180145    0.20160320448995694    0.22711140997864368    0.2516727352104267    0.2735180477540813    
  0.29116975399852574    0.3037821131462293    0.3111939811212296    0.3136178160851226    0.3111939811212297    
  0.30378211314622927    0.29116975399852574    0.2735180477540813    0.25167273521042666    0.2994665651992824    
  0.27351804775408134    0.2441712124815696    0.21387793085964696    0.18487097236752723    0.15877959373837203    
  0.1365392169560174    0.11847896365433491    0.10450800015844128    0.09434493537530715    0.08771258087313473    
  0.08443380648891725    0.08443380648891724    0.08771258087313473    0.09434493537530712    0.10450800015844129    
  0.11847896365433488    0.13653921695601737    0.158779593738372    0.18487097236752717    0.21387793085964693    
  0.2441712124815696    0.2735180477540813    0.29946656519928233    0.32002180695198884    0.3343096334859437    
  0.34274735100906134    0.34649466047358823    0.34649466047358835    0.34274735100906134    0.3343096334859437    
  0.3200218069519889    0.2994665651992824    0.34136838697558963    0.32002180695198884    0.29116975399852574    
  0.2577186440996808    0.2231783356074177    0.190527950295703    0.16172535145578612    0.1377293518714292    
  0.11874013871038529    0.10450800015844128    0.09464207510091774    0.08882961409491454    0.0869071745677605    
  0.08882961409491454    0.09464207510091772    0.10450800015844129    0.11874013871038529    0.13772935187142926    
  0.16172535145578606    0.190527950295703    0.22317833560741768    0.25771864409968087    0.29116975399852574    
  0.32002180695198884    0.34136838697558963    0.3541964624036759    0.35988450296220964    0.3613778298616976    
  0.3614950552856383    0.36137782986169753    0.35988450296220964    0.35419646240367586    0.34136838697558963    
  0.3619024096109134    0.35419646240367586    0.33430963348594367    0.3037821131462293    0.26700651922243673    
  0.22894430666709212    0.19343709129754785    0.16272801843850535    0.1377293518714292    0.11847896365433491    
  0.10458098840730996    0.09557291164373302    0.09113758991850437    0.09113758991850435    0.095572911643733    
  0.10458098840730998    0.11847896365433488    0.13772935187142926    0.16272801843850532    0.1934370912975478    
  0.22894430666709206    0.26700651922243673    0.3037821131462293    0.3343096334859437    0.35419646240367586    
  0.3619024096109134    0.3599081319091517    0.35361859578834365    0.3487250978304943    0.3487250978304943    
  0.35361859578834365    0.3599081319091517    0.3619024096109134    0.3462077706996816    0.3599081319091517    
  0.35988450296220964    0.34274735100906134    0.3111939811212297    0.27169452501701863    0.230892928153928    
  0.1934370912975478    0.16172535145578606    0.13653921695601737    0.11773602002269712    0.10480066275764657    
  0.09723636488382403    0.09474531140052085    0.09723636488382403    0.10480066275764659    0.11773602002269712    
  0.1365392169560174    0.16172535145578606    0.19343709129754774    0.2308929281539279    0.27169452501701863    
  0.3111939811212296    0.34274735100906134    0.3598845029622097    0.3599081319091517    0.34620777069968167    
  0.32694698672444605    0.31113048087209844    0.3051215576006092    0.3111304808720984    0.32694698672444605    
  0.3462077706996816    0.29226324846214624    0.32694698672444605    0.3536185957883437    0.36137782986169753    
  0.34649466047358835    0.31361781608512257    0.27169452501701863    0.22894430666709206    0.190527950295703    
  0.15877959373837203    0.13425631483350944    0.1166275284565446    0.10529026734579856    0.0997468429559571    
  0.09974684295595705    0.10529026734579858    0.11662752845654457    0.13425631483350944    0.158779593738372    
  0.190527950295703    0.22894430666709206    0.2716945250170187    0.31361781608512257    0.34649466047358823    
  0.36137782986169753    0.35361859578834365    0.32694698672444605    0.29226324846214624    0.2619205404767563    
  0.2447340420397768    0.2447340420397768    0.26192054047675634    0.29226324846214624    0.2169199269479335    
  0.26192054047675634    0.3111304808720984    0.3487250978304942    0.3614950552856383    0.34649466047358823    
  0.31119398112122965    0.26700651922243673    0.22317833560741768    0.18487097236752717    0.15408747191968084    
  0.13107740699886467    0.11532886411725067    0.10618731920688756    0.10319238447602343    0.10618731920688758    
  0.11532886411725067    0.1310774069988647    0.15408747191968084    0.18487097236752717    0.22317833560741768    
  0.26700651922243673    0.3111939811212296    0.34649466047358823    0.36149505528563836    0.34872509783049427    
  0.3111304808720984    0.2619205404767563    0.2169199269479335    0.1870106240277565    0.17672566499010145    
  0.1870106240277565    0.2169199269479335    0.14550849564924653    0.1870106240277565    0.2447340420397768    
  0.30512155760060916    0.34872509783049427    0.36137782986169753    0.3427473510090614    0.30378211314622927    
  0.25771864409968087    0.21387793085964696    0.17682225993180148    0.14799232782503244    0.1272879965940277    
  0.11404617455919257    0.10761020073484716    0.10761020073484723    0.11404617455919257    0.12728799659402773    
  0.1479923278250324    0.17682225993180145    0.21387793085964696    0.2577186440996808    0.3037821131462293    
  0.34274735100906134    0.3613778298616976    0.34872509783049427    0.3051215576006092    0.24473404203977683    
  0.18701062402775656    0.14550849564924653    0.1247715800452874    0.12477158004528749    0.14550849564924653    
  0.09477107624250027    0.1247715800452874    0.17672566499010148    0.2447340420397768    0.3111304808720984    
  0.35361859578834365    0.35988450296220964    0.3343096334859436    0.29116975399852574    0.2441712124815696    
  0.20160320448995694    0.16694563891922676    0.14096217176247752    0.12322358986815977    0.1129776654559603    
  0.10963361429642726    0.11297766545596033    0.1232235898681598    0.14096217176247747    0.16694563891922673    
  0.20160320448995694    0.2441712124815696    0.2911697539985258    0.3343096334859437    0.3598845029622097    
  0.35361859578834365    0.3111304808720984    0.2447340420397768    0.17672566499010148    0.1247715800452874    
  0.09477107624250027    0.08526684199461809    0.09477107624250027    0.06731488875169818    0.08526684199461804    
  0.1247715800452874    0.1870106240277565    0.2619205404767563    0.32694698672444605    0.3599081319091517    
  0.35419646240367586    0.32002180695198884    0.2735180477540813    0.22711140997864368    0.18719193852548896    
  0.1559549096374634    0.13351808867180268    0.1192083697392397    0.1122767080666106    0.11227670806661055    
  0.11920836973923976    0.13351808867180265    0.15595490963746336    0.18719193852548896    0.22711140997864368    
  0.2735180477540813    0.32002180695198884    0.35419646240367586    0.3599081319091517    0.32694698672444605    
  0.26192054047675634    0.18701062402775648    0.12477158004528745    0.08526684199461809    0.06731488875169818    
  0.06731488875169818    0.05896593510398376    0.06731488875169818    0.09477107624250027    0.14550849564924653    
  0.2169199269479335    0.29226324846214624    0.34620777069968167    0.3619024096109134    0.34136838697558963    
  0.2994665651992824    0.2516727352104267    0.20767480889330245    0.17164515672373354    0.1445943291892137    
  0.12614132716122034    0.1155013575428564    0.1120335115711636    0.1155013575428564    0.12614132716122034    
  0.1445943291892137    0.17164515672373354    0.20767480889330245    0.2516727352104267    0.2994665651992824    
  0.34136838697558963    0.3619024096109134    0.34620777069968167    0.29226324846214624    0.2169199269479335    
  0.14550849564924653    0.09477107624250027    0.06731488875169818    0.05896593510398376    0.06750606644188464    
  0.07629191488254422    0.10475205490407077    0.15612073035809806    0.22658339111852957    0.29896529849707765    
  0.3489286760071322    0.36123654915617587    0.33881187083827985    0.2963677503610888    0.24877960755384462    
  0.20524251264441706    0.16967714350289012    0.14299847910966262    0.12480078380886153    0.11430450356479033    
  0.11088235523860707    0.11430450356479033    0.12480078380886153    0.14299847910966262    0.16967714350289012    
  0.20524251264441706    0.24877960755384462    0.2963677503610888    0.33881187083827985    0.36123654915617587    
  0.3489286760071322    0.29896529849707765    0.22658339111852957    0.15612073035809806    0.10475205490407077    
  0.07629191488254422    0.06750606644188464    0.07629191488254422    0.07629191488254417    0.09496570632899877    
  0.1352828222793678    0.19729601594001825    0.270071536784203    0.3314106456429573    0.36058925118636687    
  0.3523034758465495    0.3170467040922918    0.2704805240652397    0.22445906947241268    0.185019041705315    
  0.15420257423046968    0.13207704995760275    0.11796337787014809    0.11112406629825095    0.111124066298251    
  0.11796337787014803    0.13207704995760278    0.15420257423046974    0.185019041705315    0.22445906947241268    
  0.2704805240652397    0.31704670409229174    0.35230347584654953    0.36058925118636687    0.33141064564295736    
  0.2700715367842029    0.19729601594001828    0.13528282227936778    0.0949657063289987    0.07629191488254422    
  0.10475205490407077    0.09496570632899874    0.10475205490407079    0.13528282227936775    0.18715288533861119    
  0.25354770648110675    0.3167150470572616    0.3554199434169579    0.35871203888403075    0.33159391967077534    
  0.28809343808417526    0.24135833748192423    0.1992527163918187    0.16504531637686667    0.13941991653136487    
  0.12192691192033145    0.11181956047636077    0.10851969375172894    0.11181956047636071    0.12192691192033142    
  0.1394199165313649    0.16504531637686673    0.1992527163918187    0.24135833748192423    0.28809343808417526    
  0.33159391967077523    0.3587120388840307    0.355419943416958    0.3167150470572616    0.25354770648110675    
  0.1871528853386112    0.13528282227936775    0.10475205490407077    0.15612073035809806    0.1352828222793678    
  0.13528282227936775    0.15612073035809804    0.1972960159400183    0.2535477064811068    0.3110856404448551    
  0.351152149309726    0.3607553956347977    0.3403152963226158    0.30074439528865277    0.25481004819760156    
  0.2113896115777163    0.17479285442237677    0.1463536494962692    0.12593683707441172    0.11287661267453558    
  0.10652668364295118    0.1065266836429511    0.11287661267453558    0.12593683707441172    0.14635364949626925    
  0.17479285442237677    0.2113896115777163    0.25481004819760156    0.3007443952886527    0.34031529632261587    
  0.36075539563479764    0.351152149309726    0.311085640444855    0.25354770648110675    0.19729601594001825    
  0.15612073035809806    0.22658339111852957    0.19729601594001833    0.1871528853386112    0.19729601594001825    
  0.22658339111852957    0.2700715367842029    0.3167150470572616    0.351152149309726    0.3610773007165314    
  0.34424505205844363    0.3082165044244089    0.2640546392457292    0.22059676245068682    0.18274008478093706    
  0.15236401230082905    0.12967177485053258    0.11414100188178693    0.10512326384991322    0.1021681084003264    
  0.1051232638499132    0.11414100188178693    0.12967177485053258    0.15236401230082905    0.18274008478093706    
  0.22059676245068682    0.26405463924572925    0.3082165044244089    0.34424505205844363    0.3610773007165314    
  0.35115214930972594    0.31671504705726167    0.270071536784203    0.22658339111852957    0.2989652984970776    
  0.270071536784203    0.25354770648110675    0.25354770648110675    0.270071536784203    0.2989652984970776    
  0.33141064564295736    0.3554199434169579    0.36075539563479764    0.34424505205844363    0.31066788398730044    