#     DFTpy    
  CRYSTAL 
    
  PRIMVEC    
  1.1024352531695303    -1.9094738705446803    0.0    
  1.1024352531695303    1.9094738705446803    0.0    
  0.0    0.0    2.0751395557241405    
  PRIMCOORD    
  1    1    
  Si    0.0    0.0    0.0    
  BEGIN_BLOCK_DATAGRID_3D    
  3d_datagrid_density    
  BEGIN_DATAGRID_3D#0    
  25    25    21    
  0.0    0.0    0.0    
  1.102435257281635    -1.9094738776670543    0.0    
  1.102435257281635    1.9094738776670543    0.0    
  0.0    0.0    2.0751395634644507    
  0.04806264121806334    0.05455314999831869    0.07627536223391827    0.11882868673368728    0.18709588801511015    
  0.27886254707291025    0.3810408283274378    0.474035336895827    0.5422643419509396    0.5817302137544175    
  0.5988774916556919    0.6038772761646083    0.6046039556552797    0.6038772761646083    0.5988774916556919    
  0.5817302137544175    0.5422643419509396    0.4740353368958269    0.3810408283274378    0.27886254707291047    
  0.18709588801511015    0.11882868673368728    0.07627536223391827    0.054553149998318874    0.04806264121806334    
  0.05455314999831878    0.05455314999831869    0.06867634254005643    0.10097713991334076    0.15698904815690606    
  0.23824878885787076    0.33671399087507    0.4350405701173335    0.5148625007396654    0.5666114447158829    
  0.5924875034904737    0.6016889060904831    0.6036035456719334    0.6036035456719334    0.6016889060904831    
  0.5924875034904737    0.566611444715883    0.5148625007396654    0.4350405701173335    0.33671399087507015    
  0.23824878885787082    0.15698904815690598    0.1009771399133408    0.06867634254005639    0.05455314999831878    
  0.07627536223391823    0.06867634254005629    0.07627536223391818    0.10097713991334084    0.1471773131010972    
  0.21766607049924935    0.308126769396475    0.40488007779699553    0.4898948199687848    0.5502076838188165    
  0.5837428464363523    0.5973954091468552    0.6007809338327634    0.6010669850482109    0.6007809338327635    
  0.5973954091468551    0.5837428464363524    0.5502076838188165    0.4898948199687847    0.4048800777969954    
  0.308126769396475    0.21766607049924946    0.14717731310109725    0.1009771399133407    0.07627536223391823    
  0.11882868673368718    0.10097713991334066    0.10097713991334084    0.11882868673368718    0.15698904815690604    
  0.2176660704992493    0.29831549529321266    0.38856311582292896    0.4725381509886564    0.5363453164542219    
  0.5747942492989502    0.5920115183725658    0.596715081482714    0.5968843204297012    0.5968843204297011    
  0.5967150814827141    0.5920115183725658    0.5747942492989502    0.5363453164542219    0.4725381509886564    
  0.388563115822929    0.2983154952932126    0.21766607049924946    0.15698904815690604    0.11882868673368718    
  0.1870958880151101    0.15698904815690592    0.14717731310109725    0.15698904815690592    0.18709588801511004    
  0.23824878885787068    0.308126769396475    0.38856311582292896    0.46633884172984574    0.5284279889268141    
  0.5681093582425522    0.5870580464518165    0.5924091434398965    0.5920250332250007    0.5912867281338181    
  0.5920250332250009    0.5924091434398966    0.5870580464518164    0.5681093582425522    0.5284279889268142    
  0.46633884172984574    0.3885631158229291    0.30812676939647493    0.2382487888578709    0.1870958880151101    
  0.27886254707291047    0.23824878885787082    0.2176660704992495    0.2176660704992493    0.23824878885787087    
  0.27886254707291036    0.3367139908750701    0.4048800777969955    0.4725381509886563    0.5284279889268141    
  0.5656355799601406    0.5840890940752028    0.5891064340449642    0.5877185008789224    0.5855661446620128    
  0.5855661446620126    0.5877185008789225    0.5891064340449643    0.5840890940752027    0.5656355799601407    
  0.5284279889268142    0.4725381509886563    0.4048800777969954    0.33671399087507004    0.27886254707291047    
  0.38104082832743774    0.33671399087507004    0.308126769396475    0.2983154952932126    0.308126769396475    
  0.33671399087507004    0.3810408283274378    0.4350405701173335    0.48989481996878487    0.5363453164542219    
  0.568109358242552    0.5840890940752028    0.587866012198624    0.5851787997831177    0.5813105845536715    
  0.5796457074719852    0.5813105845536715    0.5851787997831177    0.587866012198624    0.5840890940752028    
  0.5681093582425522    0.536345316454222    0.4898948199687847    0.4350405701173335    0.38104082832743774    
  0.4740353368958269    0.4350405701173334    0.40488007779699553    0.3885631158229289    0.388563115822929    
  0.4048800777969954    0.4350405701173335    0.474035336895827    0.5148625007396654    0.5502076838188165    
  0.5747942492989502    0.5870580464518163    0.5891064340449642    0.5851787997831177    0.5797380578063162    
  0.5761512510942558    0.5761512510942559    0.5797380578063162    0.5851787997831177    0.5891064340449644    
  0.5870580464518165    0.5747942492989502    0.5502076838188165    0.5148625007396654    0.4740353368958269    
  0.5422643419509395    0.5148625007396654    0.48989481996878487    0.4725381509886564    0.46633884172984574    
  0.4725381509886562    0.4898948199687847    0.5148625007396654    0.5422643419509396    0.566611444715883    
  0.5837428464363523    0.5920115183725658    0.5924091434398965    0.5877185008789224    0.5813105845536715    
  0.5761512510942559    0.574204419150762    0.5761512510942557    0.5813105845536715    0.5877185008789224    
  0.5924091434398964    0.5920115183725658    0.5837428464363523    0.566611444715883    0.5422643419509395    
  0.5817302137544175    0.566611444715883    0.5502076838188165    0.536345316454222    0.5284279889268141    
  0.528427988926814    0.5363453164542219    0.5502076838188166    0.566611444715883    0.5817302137544175    
  0.5924875034904737    0.5973954091468552    0.596715081482714    0.5920250332250007    0.5855661446620128    
  0.5796457074719852    0.5761512510942559    0.5761512510942557    0.5796457074719852    0.5855661446620127    
  0.5920250332250007    0.5967150814827141    0.5973954091468552    0.5924875034904737    0.5817302137544175    
  0.5988774916556919    0.5924875034904736    0.5837428464363523    0.5747942492989503    0.5681093582425522    
  0.5656355799601406    0.5681093582425522    0.5747942492989502    0.5837428464363524    0.5924875034904737    
  0.5988774916556918    0.6016889060904831    0.6007809338327634    0.5968843204297012    0.5912867281338181    
  0.5855661446620127    0.5813105845536716    0.5797380578063162    0.5813105845536715    0.5855661446620127    
  0.5912867281338182    0.5968843204297012    0.6007809338327634    0.6016889060904831    0.5988774916556919    
  0.6038772761646083    0.601688906090483    0.5973954091468552    0.5920115183725658    0.5870580464518165    
  0.5840890940752027    0.5840890940752027    0.5870580464518165    0.5920115183725658    0.5973954091468552    
  0.601688906090483    0.6038772761646083    0.6036035456719333    0.6010669850482109    0.5968843204297011    
  0.5920250332250009    0.5877185008789225    0.5851787997831177    0.5851787997831179    0.5877185008789224    
  0.5920250332250007    0.5968843204297012    0.601066985048211    0.6036035456719336    0.6038772761646083    
  0.6046039556552798    0.6036035456719334    0.6007809338327635    0.5967150814827141    0.5924091434398966    
  0.5891064340449642    0.587866012198624    0.5891064340449644    0.5924091434398966    0.5967150814827141    
  0.6007809338327634    0.6036035456719335    0.6046039556552797    0.6036035456719334    0.6007809338327634    
  0.5967150814827141    0.5924091434398966    0.5891064340449644    0.587866012198624    0.5891064340449643    
  0.5924091434398966    0.5967150814827141    0.6007809338327635    0.6036035456719336    0.6046039556552798    
  0.6038772761646083    0.6036035456719334    0.601066985048211    0.5968843204297013    0.5920250332250009    
  0.5877185008789224    0.5851787997831177    0.5851787997831178    0.5877185008789225    0.5920250332250008    
  0.5968843204297011    0.601066985048211    0.6036035456719334    0.6038772761646082    0.601688906090483    
  0.5973954091468551    0.5920115183725658    0.5870580464518163    0.5840890940752028    0.5840890940752027    
  0.5870580464518165    0.5920115183725658    0.5973954091468553    0.6016889060904831    0.6038772761646083    
  0.5988774916556919    0.601688906090483    0.6007809338327634    0.5968843204297012    0.5912867281338182    
  0.5855661446620126    0.5813105845536715    0.5797380578063163    0.5813105845536716    0.5855661446620127    
  0.5912867281338181    0.5968843204297013    0.6007809338327634    0.601688906090483    0.5988774916556918    
  0.5924875034904737    0.5837428464363524    0.5747942492989502    0.5681093582425522    0.5656355799601407    
  0.5681093582425522    0.5747942492989503    0.5837428464363523    0.5924875034904737    0.5988774916556919    
  0.5817302137544175    0.5924875034904736    0.5973954091468552    0.5967150814827139    0.5920250332250007    
  0.5855661446620126    0.5796457074719852    0.5761512510942558    0.5761512510942558    0.5796457074719853    
  0.5855661446620128    0.5920250332250007    0.596715081482714    0.5973954091468551    0.5924875034904737    
  0.5817302137544175    0.566611444715883    0.5502076838188166    0.5363453164542219    0.5284279889268142    
  0.5284279889268142    0.5363453164542219    0.5502076838188166    0.566611444715883    0.5817302137544175    
  0.5422643419509395    0.566611444715883    0.5837428464363523    0.5920115183725658    0.5924091434398964    
  0.5877185008789223    0.5813105845536715    0.5761512510942559    0.574204419150762    0.5761512510942559    
  0.5813105845536715    0.5877185008789224    0.5924091434398965    0.5920115183725658    0.5837428464363523    
  0.566611444715883    0.5422643419509396    0.5148625007396654    0.4898948199687847    0.4725381509886563    
  0.46633884172984574    0.4725381509886564    0.48989481996878487    0.5148625007396654    0.5422643419509395    
  0.474035336895827    0.5148625007396654    0.5502076838188165    0.5747942492989502    0.5870580464518165    
  0.5891064340449643    0.5851787997831179    0.5797380578063163    0.5761512510942559    0.5761512510942559    
  0.579738057806316    0.5851787997831178    0.5891064340449642    0.5870580464518163    0.5747942492989502    
  0.5502076838188165    0.5148625007396654    0.4740353368958269    0.4350405701173335    0.4048800777969954    
  0.388563115822929    0.3885631158229289    0.4048800777969955    0.4350405701173335    0.474035336895827    
  0.38104082832743774    0.4350405701173334    0.4898948199687847    0.5363453164542219    0.5681093582425522    
  0.5840890940752026    0.587866012198624    0.5851787997831178    0.5813105845536715    0.5796457074719852    
  0.5813105845536715    0.5851787997831178    0.587866012198624    0.5840890940752027    0.568109358242552    
  0.5363453164542219    0.48989481996878487    0.4350405701173334    0.3810408283274378    0.33671399087507015    
  0.308126769396475    0.29831549529321255    0.308126769396475    0.3367139908750701    0.38104082832743774    
  0.27886254707291047    0.33671399087507    0.40488007779699553    0.4725381509886563    0.5284279889268142    
  0.5656355799601407    0.5840890940752028    0.5891064340449644    0.5877185008789225    0.5855661446620127    
  0.5855661446620128    0.5877185008789224    0.5891064340449642    0.5840890940752027    0.5656355799601407    
  0.5284279889268142    0.4725381509886565    0.4048800777969955    0.33671399087507    0.2788625470729104    
  0.23824878885787087    0.21766607049924935    0.2176660704992495    0.2382487888578709    0.27886254707291047    
  0.1870958880151101    0.23824878885787082    0.30812676939647493    0.38856311582292896    0.46633884172984574    
  0.528427988926814    0.5681093582425522    0.5870580464518165    0.5924091434398966    0.5920250332250009    
  0.5912867281338182    0.5920250332250008    0.5924091434398965    0.5870580464518163    0.5681093582425522    
  0.5284279889268142    0.46633884172984574    0.3885631158229289    0.308126769396475    0.23824878885787076    
  0.18709588801511004    0.15698904815690604    0.14717731310109725    0.15698904815690604    0.1870958880151101    
  0.11882868673368732    0.15698904815690592    0.2176660704992495    0.29831549529321266    0.388563115822929    
  0.4725381509886563    0.5363453164542219    0.5747942492989502    0.5920115183725658    0.5967150814827141    
  0.5968843204297011    0.5968843204297013    0.596715081482714    0.5920115183725658    0.5747942492989502    
  0.5363453164542219    0.4725381509886565    0.3885631158229289    0.29831549529321266    0.21766607049924946    
  0.15698904815690604    0.11882868673368738    0.10097713991334084    0.10097713991334084    0.11882868673368732    
  0.07627536223391823    0.10097713991334062    0.14717731310109725    0.2176660704992494    0.308126769396475    
  0.40488007779699536    0.4898948199687847    0.5502076838188166    0.5837428464363524    0.5973954091468551    
  0.6007809338327635    0.601066985048211    0.6007809338327634    0.5973954091468551    0.5837428464363523    
  0.5502076838188166    0.4898948199687848    0.4048800777969954    0.308126769396475    0.21766607049924946    
  0.1471773131010972    0.10097713991334084    0.07627536223391818    0.06867634254005639    0.07627536223391823    
  0.05455314999831878    0.06867634254005639    0.10097713991334084    0.15698904815690592    0.23824878885787087    
  0.33671399087507015    0.4350405701173335    0.5148625007396654    0.566611444715883    0.5924875034904737    
  0.6016889060904831    0.6036035456719335    0.6036035456719333    0.601688906090483    0.5924875034904737    
  0.566611444715883    0.5148625007396654    0.4350405701173334    0.3367139908750701    0.23824878885787082    
  0.15698904815690592    0.10097713991334084    0.06867634254005643    0.054553149998318874    0.05455314999831878    
  0.04806264121806334    0.05455314999831869    0.07627536223391827    0.11882868673368728    0.18709588801511015    
  0.27886254707291025    0.3810408283274378    0.474035336895827    0.5422643419509396    0.5817302137544175    
  0.5988774916556919    0.6038772761646083    0.6046039556552797    0.6038772761646083    0.5988774916556919    
  0.5817302137544175    0.5422643419509396    0.4740353368958269    0.3810408283274378    0.27886254707291047    
  0.18709588801511015    0.11882868673368728    0.07627536223391827    0.054553149998318874    0.04806264121806334    
  0.05718358637251056    0.06414198230658129    0.08709397200907419    0.13104328931581663    0.19985591560870442    
  0.2903211993379843    0.38911727449225253    0.47747985614271    0.5411710102426984    0.5771831678394382    
  0.5922131426070735    0.596175467322846    0.5966037082386358    0.5961754673228459    0.5922131426070735    
  0.5771831678394382    0.5411710102426984    0.4774798561427099    0.38911727449225253    0.29032119933798445    
  0.19985591560870442    0.13104328931581657    0.08709397200907419    0.06414198230658147    0.05718358637251056    
  0.06414198230658139    0.06414198230658129    0.0791156659970928    0.1127351468315887    0.16970663946407974    
  0.2505110882846338    0.346468673726732    0.4405932925170164    0.5157078576526294    0.5634580027816696    
  0.5866267513176517    0.5943402214487263    0.5956401548213149    0.5956401548213148    0.5943402214487262    
  0.5866267513176517    0.5634580027816698    0.5157078576526294    0.4405932925170164    0.3464686737267321    
  0.25051108828463386    0.16970663946407966    0.11273514683158874    0.07911566599709276    0.06414198230658139    
  0.08709397200907419    0.07911566599709266    0.0870939720090741    0.11273514683158879    0.15981719200859712    
  0.23019721873323706    0.3187758456210763    0.4118548378238667    0.4922873306242178    0.5483260076800435    
  0.5787042471398398    0.5904574584099933    0.5929221705923654    0.5929445110357895    0.5929221705923655    
  0.5904574584099931    0.5787042471398399    0.5483260076800435    0.49228733062421776    0.41185483782386667    
  0.3187758456210763    0.2301972187332372    0.15981719200859715    0.11273514683158864    0.08709397200907419    
  0.1310432893158165    0.1127351468315886    0.11273514683158879    0.1310432893158165    0.16970663946407968    
  0.230197218733237    0.30923657997893766    0.39623689056808453    0.4759106276887971    0.535423787256803    
  0.5704696930100941    0.5854833334602548    0.5890084695472954    0.5886975697289653    0.5886975697289653    
  0.5890084695472954    0.5854833334602547    0.5704696930100941    0.535423787256803    0.4759106276887971    
  0.3962368905680846    0.30923657997893755    0.2301972187332372    0.16970663946407968    0.1310432893158165    
  0.19985591560870436    0.1697066394640796    0.15981719200859715    0.1697066394640796    0.1998559156087043    
  0.25051108828463375    0.3187758456210763    0.39623689056808453    0.4700445341398868    0.528019802000972    
  0.5642700275051851    0.5808641526639171    0.584865204143624    0.583844646184075    0.5829261922859746    
  0.5838446461840752    0.5848652041436241    0.5808641526639171    0.5642700275051851    0.528019802000972    
  0.47004453413988684    0.39623689056808464    0.3187758456210762    0.250511088284634    0.19985591560870436    
  0.2903211993379845    0.25051108828463386    0.2301972187332372    0.23019721873323706    0.250511088284634    
  0.2903211993379844    0.3464686737267321    0.4118548378238667    0.4759106276887971    0.528019802000972    
  0.5619680280256751    0.578083724314432    0.5816881593003257    0.5795778338477283    0.5771380675142728    
  0.5771380675142725    0.5795778338477284    0.5816881593003258    0.578083724314432    0.5619680280256752    
  0.528019802000972    0.47591062768879705    0.41185483782386667    0.34646867372673207    0.2903211993379845    
  0.38911727449225253    0.346468673726732    0.3187758456210763    0.30923657997893755    0.3187758456210763    
  0.346468673726732    0.38911727449225253    0.4405932925170164    0.4922873306242179    0.535423787256803    
  0.5642700275051851    0.578083724314432    0.5804951096272574    0.5770711964977343    0.5728691639877825    
  0.5711115751111695    0.5728691639877825    0.5770711964977343    0.5804951096272575    0.578083724314432    
  0.5642700275051851    0.5354237872568031    0.49228733062421776    0.4405932925170164    0.38911727449225253    
  0.4774798561427099    0.44059329251701634    0.4118548378238667    0.39623689056808453    0.3962368905680846    
  0.41185483782386667    0.4405932925170164    0.47747985614271    0.5157078576526294    0.5483260076800435    
  0.5704696930100941    0.5808641526639171    0.5816881593003257    0.5770711964977343    0.571297254171346    
  0.5675831006272325    0.5675831006272326    0.571297254171346    0.5770711964977343    0.5816881593003258    
  0.5808641526639171    0.5704696930100942    0.5483260076800435    0.5157078576526294    0.4774798561427099    
  0.5411710102426983    0.5157078576526293    0.4922873306242178    0.4759106276887971    0.47004453413988684    
  0.47591062768879705    0.49228733062421776    0.5157078576526294    0.5411710102426984    0.5634580027816697    
  0.5787042471398398    0.5854833334602549    0.584865204143624    0.5795778338477283    0.5728691639877825    
  0.5675831006272325    0.565603065700412    0.5675831006272325    0.5728691639877825    0.5795778338477283    
  0.5848652041436239    0.5854833334602547    0.5787042471398398    0.5634580027816698    0.5411710102426983    
  0.5771831678394382    0.5634580027816697    0.5483260076800435    0.5354237872568032    0.528019802000972    
  0.528019802000972    0.535423787256803    0.5483260076800436    0.5634580027816698    0.5771831678394382    
  0.5866267513176516    0.5904574584099932    0.5890084695472954    0.583844646184075    0.5771380675142728    
  0.5711115751111695    0.5675831006272326    0.5675831006272325    0.5711115751111695    0.5771380675142725    
  0.583844646184075    0.5890084695472954    0.5904574584099932    0.5866267513176519    0.5771831678394382    
  0.5922131426070735    0.5866267513176516    0.5787042471398398    0.5704696930100943    0.5642700275051851    
  0.5619680280256751    0.5642700275051851    0.5704696930100942    0.5787042471398399    0.5866267513176517    
  0.5922131426070735    0.5943402214487263    0.5929221705923654    0.5886975697289653    0.5829261922859745    
  0.5771380675142727    0.5728691639877828    0.571297254171346    0.5728691639877825    0.5771380675142727    
  0.5829261922859746    0.5886975697289653    0.5929221705923653    0.5943402214487262    0.5922131426070735    
  0.596175467322846    0.5943402214487261    0.5904574584099932    0.5854833334602548    0.5808641526639171    
  0.578083724314432    0.578083724314432    0.5808641526639172    0.5854833334602548    0.5904574584099933    
  0.5943402214487262    0.5961754673228459    0.5956401548213147    0.5929445110357895    0.5886975697289651    
  0.5838446461840752    0.5795778338477285    0.5770711964977343    0.5770711964977345    0.5795778338477282    
  0.583844646184075    0.5886975697289653    0.5929445110357896    0.595640154821315    0.596175467322846    
  0.5966037082386358    0.5956401548213148    0.5929221705923655    0.5890084695472955    0.5848652041436241    
  0.5816881593003257    0.5804951096272575    0.5816881593003259    0.5848652041436241    0.5890084695472955    
  0.5929221705923654    0.5956401548213149    0.5966037082386358    0.5956401548213148    0.5929221705923654    
  0.5890084695472955    0.5848652041436241    0.5816881593003258    0.5804951096272575    0.5816881593003258    
  0.5848652041436241    0.5890084695472955    0.5929221705923655    0.595640154821315    0.5966037082386358    
  0.596175467322846    0.5956401548213148    0.5929445110357896    0.5886975697289654    0.5838446461840752    
  0.5795778338477282    0.5770711964977343    0.5770711964977344    0.5795778338477285    0.5838446461840751    
  0.5886975697289651    0.5929445110357896    0.5956401548213149    0.5961754673228459    0.5943402214487262    
  0.5904574584099931    0.5854833334602549    0.5808641526639171    0.578083724314432    0.578083724314432    
  0.5808641526639171    0.5854833334602548    0.5904574584099933    0.5943402214487262    0.596175467322846    
  0.5922131426070735    0.5943402214487261    0.5929221705923654    0.5886975697289653    0.5829261922859746    
  0.5771380675142725    0.5728691639877825    0.5712972541713461    0.5728691639877828    0.5771380675142727    
  0.5829261922859745    0.5886975697289654    0.5929221705923654    0.5943402214487261    0.5922131426070735    
  0.5866267513176517    0.5787042471398399    0.5704696930100941    0.5642700275051851    0.5619680280256752    
  0.5642700275051851    0.5704696930100942    0.5787042471398398    0.5866267513176517    0.5922131426070735    
  0.5771831678394381    0.5866267513176516    0.5904574584099932    0.5890084695472952    0.583844646184075    
  0.5771380675142725    0.5711115751111695    0.5675831006272325    0.5675831006272325    0.5711115751111695    
  0.5771380675142728    0.583844646184075    0.5890084695472954    0.5904574584099931    0.5866267513176516    
  0.5771831678394382    0.5634580027816697    0.5483260076800436    0.535423787256803    0.528019802000972    
  0.528019802000972    0.5354237872568031    0.5483260076800436    0.5634580027816698    0.5771831678394381    
  0.5411710102426983    0.5634580027816697    0.5787042471398398    0.5854833334602547    0.5848652041436239    
  0.5795778338477282    0.5728691639877825    0.5675831006272325    0.565603065700412    0.5675831006272325    
  0.5728691639877825    0.5795778338477283    0.584865204143624    0.5854833334602547    0.5787042471398398    
  0.5634580027816697    0.5411710102426984    0.5157078576526293    0.49228733062421776    0.4759106276887971    
  0.47004453413988684    0.4759106276887971    0.4922873306242178    0.5157078576526294    0.5411710102426983    
  0.47747985614271    0.5157078576526293    0.5483260076800435    0.5704696930100941    0.5808641526639171    
  0.5816881593003258    0.5770711964977345    0.5712972541713461    0.5675831006272325    0.5675831006272325    
  0.5712972541713459    0.5770711964977344    0.5816881593003257    0.5808641526639171    0.5704696930100941    
  0.5483260076800434    0.5157078576526294    0.4774798561427099    0.4405932925170164    0.41185483782386667    
  0.3962368905680846    0.39623689056808453    0.4118548378238667    0.4405932925170164    0.47747985614271    
  0.38911727449225253    0.44059329251701634    0.49228733062421776    0.5354237872568031    0.5642700275051851    
  0.5780837243144318    0.5804951096272575    0.5770711964977344    0.5728691639877825    0.5711115751111695    
  0.5728691639877825    0.5770711964977344    0.5804951096272574    0.5780837243144319    0.5642700275051851    
  0.535423787256803    0.4922873306242179    0.44059329251701634    0.38911727449225253    0.3464686737267321    
  0.3187758456210763    0.30923657997893755    0.3187758456210763    0.3464686737267321    0.38911727449225253    
  0.2903211993379844    0.346468673726732    0.4118548378238668    0.47591062768879705    0.528019802000972    
  0.5619680280256751    0.578083724314432    0.5816881593003259    0.5795778338477285    0.5771380675142727    
  0.5771380675142728    0.5795778338477283    0.5816881593003257    0.5780837243144319    0.5619680280256751    
  0.528019802000972    0.4759106276887972    0.4118548378238667    0.346468673726732    0.2903211993379844    
  0.250511088284634    0.2301972187332371    0.2301972187332372    0.250511088284634    0.2903211993379844    
  0.19985591560870436    0.25051108828463386    0.3187758456210762    0.39623689056808453    0.47004453413988684    
  0.528019802000972    0.5642700275051851    0.5808641526639172    0.5848652041436241    0.5838446461840752    
  0.5829261922859746    0.5838446461840751    0.584865204143624    0.5808641526639171    0.5642700275051851    
  0.528019802000972    0.4700445341398868    0.39623689056808453    0.3187758456210763    0.25051108828463386    
  0.1998559156087043    0.16970663946407968    0.15981719200859715    0.16970663946407968    0.19985591560870436    
  0.13104328931581663    0.1697066394640796    0.2301972187332372    0.30923657997893766    0.3962368905680846    
  0.47591062768879705    0.535423787256803    0.5704696930100942    0.5854833334602548    0.5890084695472955    
  0.5886975697289653    0.5886975697289653    0.5890084695472954    0.5854833334602547    0.5704696930100941    
  0.535423787256803    0.4759106276887972    0.39623689056808453    0.30923657997893766    0.2301972187332372    
  0.16970663946407968    0.13104328931581669    0.11273514683158879    0.11273514683158879    0.13104328931581663    
  0.08709397200907419    0.11273514683158856    0.15981719200859715    0.2301972187332371    0.3187758456210763    
  0.41185483782386656    0.49228733062421776    0.5483260076800436    0.5787042471398399    0.5904574584099931    
  0.5929221705923655    0.5929445110357896    0.5929221705923654    0.5904574584099931    0.5787042471398398    
  0.5483260076800435    0.4922873306242178    0.41185483782386667    0.3187758456210763    0.2301972187332372    
  0.15981719200859712    0.11273514683158879    0.0870939720090741    0.07911566599709276    0.08709397200907419    
  0.06414198230658139    0.07911566599709276    0.11273514683158879    0.1697066394640796    0.250511088284634    
  0.3464686737267321    0.4405932925170164    0.5157078576526294    0.5634580027816698    0.5866267513176519    
  0.5943402214487262    0.5956401548213149    0.5956401548213147    0.5943402214487261    0.5866267513176517    
  0.5634580027816697    0.5157078576526294    0.44059329251701634    0.3464686737267321    0.25051108828463386    
  0.1697066394640796    0.11273514683158879    0.0791156659970928    0.06414198230658147    0.06414198230658139    
  0.05718358637251056    0.06414198230658129    0.08709397200907419    0.13104328931581663    0.19985591560870442    
  0.2903211993379843    0.38911727449225253    0.47747985614271    0.5411710102426984    0.5771831678394382    
  0.5922131426070735    0.596175467322846    0.5966037082386358    0.5961754673228459    0.5922131426070735    
  0.5771831678394382    0.5411710102426984    0.4774798561427099    0.38911727449225253    0.29032119933798445    
  0.19985591560870442    0.13104328931581657    0.08709397200907419    0.06414198230658147    0.05718358637251056    
  0.08888812497409534    0.09702387793018206    0.12292494568149803    0.16976007450324251    0.23857561523116025    
  0.3237305102909103    0.4117399777604106    0.4864340697719292    0.5372439576816292    0.5636588880685551    
  0.5728636876944097    0.5739763283071566    0.5735830046716413    0.5739763283071565    0.5728636876944097    
  0.5636588880685551    0.5372439576816292    0.4864340697719291    0.4117399777604106    0.3237305102909105    
  0.23857561523116025    0.16976007450324251    0.12292494568149803    0.09702387793018225    0.08888812497409534    
  0.09702387793018216    0.09702387793018206    0.11406323768608166    0.15060160242679588    0.20895255338990285    
  0.28685136466771327    0.37429290627892725    0.4556864634807211    0.5172461213593036    0.5537969010451163    
  0.5694934225798628    0.5731206351257118    0.5727300594745677    0.5727300594745677    0.5731206351257118    
  0.5694934225798628    0.5537969010451165    0.5172461213593036    0.4556864634807211    0.37429290627892736    