#     DFTpy    
  CRYSTAL 
    
  PRIMVEC    
  1.0753261895670003    -1.8625195950394802    0.0    
  1.0753261895670003    1.8625195950394802    0.0    
  0.0    0.0    2.0241115338620705    
  PRIMCOORD    
  1    1    
  Si    0.0    0.0    0.0    
  BEGIN_BLOCK_DATAGRID_3D    
  3d_datagrid_density    
  BEGIN_DATAGRID_3D#0    
  25    25    21    
  0.0    0.0    0.0    
  1.0753261935779876    -1.8625196019867138    0.0    
  1.0753261935779876    1.8625196019867138    0.0    
  0.0    0.0    2.024111541412045    
  0.04865214586225253    0.05502459286924281    0.0763152322324178    0.11804941459723955    0.1855125594713895    
  0.2778191571924257    0.383740215847393    0.48463033506382536    0.5637948437393653    0.6145746869827181    
  0.640863288742021    0.6515016922584373    0.6540953320003521    0.6515016922584373    0.640863288742021    
  0.6145746869827181    0.5637948437393653    0.4846303350638253    0.383740215847393    0.2778191571924258    
  0.1855125594713895    0.11804941459723964    0.0763152322324178    0.05502459286924285    0.04865214586225253    
  0.05502459286924281    0.05502459286924281    0.06887066160456916    0.1005261113363817    0.15566668518840818    
  0.2367176835550479    0.33733869758775387    0.44169322088852486    0.5312786993830799    0.5944444065887464    
  0.6306445221319914    0.6471717606951937    0.6527532182163467    0.6527532182163468    0.6471717606951937    
  0.6306445221319914    0.5944444065887463    0.5312786993830799    0.4416932208885249    0.3373386975877539    
  0.2367176835550479    0.155666685188408    0.1005261113363816    0.06887066160456908    0.05502459286924281    
  0.0763152322324177    0.06887066160456931    0.07631523223241785    0.10052611133638166    0.1459807914507455    
  0.2160762890512016    0.30787573232923693    0.40928292620318435    0.5027584115369552    0.5739688241062216    
  0.6183132521237479    0.6404860450589548    0.649058486977342    0.6510527601844334    0.649058486977342    
  0.6404860450589548    0.6183132521237477    0.5739688241062214    0.5027584115369553    0.40928292620318457    
  0.3078757323292367    0.21607628905120155    0.14598079145074544    0.10052611133638166    0.0763152322324177    
  0.11804941459723964    0.10052611133638166    0.1005261113363816    0.11804941459723964    0.1556666851884081    
  0.21607628905120166    0.2978390635570843    0.39199220589948    0.48339444279105404    0.557338987325016    
  0.6065381382594008    0.6329313925923976    0.6439458682224029    0.6472312253515808    0.6472312253515808    
  0.6439458682224029    0.6329313925923974    0.6065381382594007    0.5573389873250161    0.48339444279105415    
  0.3919922058994799    0.29783906355708406    0.21607628905120171    0.1556666851884081    0.11804941459723964    
  0.18551255947138964    0.15566668518840815    0.14598079145074544    0.155666685188408    0.18551255947138962    
  0.2367176835550479    0.30787573232923693    0.39199220589948    0.47655651136621147    0.5480497878518965    
  0.5980896929822588    0.6263951849208355    0.6387587783392628    0.6425571810212343    0.6431901164463397    
  0.6425571810212342    0.6387587783392626    0.6263951849208352    0.5980896929822588    0.5480497878518964    
  0.47655651136621147    0.3919922058994799    0.3078757323292367    0.2367176835550479    0.18551255947138964    
  0.2778191571924256    0.2367176835550479    0.21607628905120166    0.2160762890512016    0.2367176835550478    
  0.27781915719242567    0.33733869758775387    0.40928292620318435    0.48339444279105404    0.5480497878518965    
  0.5950223286506304    0.6226106188007232    0.6349151124372608    0.6384222248706976    0.6386906059593184    
  0.6386906059593184    0.6384222248706973    0.6349151124372608    0.6226106188007231    0.5950223286506305    
  0.5480497878518964    0.48339444279105404    0.40928292620318435    0.3373386975877537    0.2778191571924256    
  0.3837402158473927    0.3373386975877537    0.3078757323292368    0.29783906355708406    0.3078757323292368    
  0.33733869758775387    0.383740215847393    0.44169322088852475    0.5027584115369553    0.557338987325016    
  0.5980896929822588    0.6226106188007232    0.6334985351184597    0.6360124846044356    0.635288487925093    
  0.634675069508802    0.6352884879250928    0.6360124846044354    0.6334985351184599    0.6226106188007232    
  0.5980896929822587    0.5573389873250161    0.5027584115369553    0.44169322088852486    0.3837402158473927    
  0.48463033506382536    0.44169322088852486    0.40928292620318435    0.39199220589948003    0.39199220589948    
  0.40928292620318446    0.4416932208885249    0.48463033506382536    0.5312786993830799    0.5739688241062216    
  0.6065381382594008    0.6263951849208353    0.6349151124372608    0.6360124846044356    0.6340318169480043    
  0.6322278154775971    0.6322278154775969    0.6340318169480039    0.6360124846044356    0.6349151124372611    
  0.6263951849208353    0.6065381382594008    0.5739688241062215    0.5312786993830799    0.48463033506382536    
  0.5637948437393653    0.5312786993830799    0.5027584115369552    0.48339444279105404    0.47655651136621147    
  0.48339444279105404    0.5027584115369553    0.5312786993830799    0.5637948437393653    0.5944444065887463    
  0.6183132521237479    0.6329313925923976    0.6387587783392628    0.6384222248706974    0.6352884879250931    
  0.6322278154775971    0.6310139047120848    0.6322278154775969    0.6352884879250931    0.6384222248706974    
  0.6387587783392628    0.6329313925923975    0.6183132521237479    0.5944444065887464    0.5637948437393653    
  0.614574686982718    0.5944444065887464    0.5739688241062215    0.5573389873250161    0.5480497878518964    
  0.5480497878518964    0.5573389873250161    0.5739688241062215    0.5944444065887463    0.6145746869827181    
  0.6306445221319914    0.6404860450589548    0.6439458682224029    0.6425571810212343    0.6386906059593184    
  0.6346750695088021    0.632227815477597    0.632227815477597    0.634675069508802    0.6386906059593186    
  0.6425571810212342    0.6439458682224027    0.6404860450589548    0.6306445221319914    0.614574686982718    
  0.6408632887420209    0.6306445221319913    0.6183132521237479    0.6065381382594008    0.5980896929822586    
  0.5950223286506304    0.5980896929822588    0.6065381382594008    0.6183132521237477    0.6306445221319914    
  0.6408632887420211    0.6471717606951937    0.649058486977342    0.6472312253515808    0.6431901164463397    
  0.6386906059593184    0.6352884879250928    0.634031816948004    0.6352884879250931    0.6386906059593186    
  0.6431901164463397    0.6472312253515808    0.6490584869773421    0.6471717606951938    0.6408632887420209    
  0.6515016922584372    0.6471717606951938    0.6404860450589547    0.6329313925923975    0.6263951849208353    
  0.6226106188007231    0.6226106188007231    0.6263951849208353    0.6329313925923975    0.6404860450589548    
  0.6471717606951937    0.6515016922584373    0.6527532182163467    0.6510527601844334    0.6472312253515808    
  0.6425571810212342    0.6384222248706973    0.6360124846044355    0.6360124846044356    0.6384222248706974    
  0.6425571810212342    0.6472312253515807    0.6510527601844333    0.6527532182163467    0.6515016922584372    
  0.654095332000352    0.6527532182163467    0.6490584869773419    0.6439458682224027    0.6387587783392626    
  0.6349151124372608    0.6334985351184599    0.6349151124372608    0.6387587783392626    0.6439458682224029    
  0.6490584869773419    0.6527532182163468    0.6540953320003521    0.6527532182163468    0.6490584869773419    
  0.6439458682224029    0.6387587783392626    0.6349151124372608    0.6334985351184599    0.634915112437261    
  0.6387587783392626    0.6439458682224027    0.6490584869773419    0.6527532182163467    0.654095332000352    
  0.6515016922584373    0.6527532182163467    0.6510527601844333    0.6472312253515807    0.642557181021234    
  0.6384222248706973    0.6360124846044356    0.6360124846044355    0.6384222248706973    0.6425571810212342    
  0.6472312253515808    0.6510527601844331    0.6527532182163467    0.6515016922584373    0.6471717606951937    
  0.6404860450589548    0.6329313925923975    0.6263951849208352    0.6226106188007231    0.6226106188007232    
  0.6263951849208353    0.6329313925923975    0.6404860450589547    0.6471717606951937    0.6515016922584373    
  0.6408632887420209    0.6471717606951937    0.6490584869773421    0.6472312253515808    0.6431901164463397    
  0.6386906059593185    0.6352884879250931    0.6340318169480041    0.6352884879250928    0.6386906059593184    
  0.6431901164463397    0.6472312253515808    0.649058486977342    0.6471717606951938    0.6408632887420211    
  0.6306445221319913    0.6183132521237477    0.6065381382594008    0.5980896929822588    0.5950223286506305    
  0.5980896929822586    0.6065381382594008    0.6183132521237479    0.6306445221319914    0.6408632887420209    
  0.614574686982718    0.6306445221319914    0.6404860450589547    0.6439458682224027    0.6425571810212342    
  0.6386906059593185    0.634675069508802    0.632227815477597    0.6322278154775969    0.634675069508802    
  0.6386906059593184    0.6425571810212343    0.6439458682224029    0.6404860450589548    0.6306445221319914    
  0.6145746869827181    0.5944444065887464    0.5739688241062213    0.5573389873250161    0.5480497878518964    
  0.5480497878518964    0.5573389873250161    0.5739688241062217    0.5944444065887465    0.614574686982718    
  0.5637948437393653    0.5944444065887464    0.6183132521237479    0.6329313925923975    0.6387587783392628    
  0.6384222248706973    0.6352884879250931    0.632227815477597    0.6310139047120848    0.6322278154775971    
  0.6352884879250931    0.6384222248706974    0.6387587783392628    0.6329313925923975    0.6183132521237479    
  0.5944444065887464    0.5637948437393653    0.5312786993830799    0.5027584115369553    0.48339444279105415    
  0.47655651136621147    0.48339444279105404    0.5027584115369552    0.5312786993830799    0.5637948437393653    
  0.48463033506382536    0.5312786993830799    0.5739688241062215    0.6065381382594008    0.6263951849208352    
  0.6349151124372608    0.6360124846044356    0.6340318169480041    0.6322278154775969    0.6322278154775971    
  0.6340318169480043    0.6360124846044356    0.6349151124372608    0.6263951849208353    0.6065381382594008    
  0.5739688241062216    0.53127869938308    0.48463033506382536    0.4416932208885249    0.4092829262031845    
  0.3919922058994799    0.3919922058994799    0.4092829262031844    0.44169322088852486    0.48463033506382536    
  0.3837402158473927    0.44169322088852486    0.5027584115369553    0.5573389873250161    0.5980896929822587    
  0.6226106188007231    0.6334985351184599    0.6360124846044355    0.6352884879250928    0.634675069508802    
  0.635288487925093    0.6360124846044356    0.6334985351184597    0.6226106188007232    0.5980896929822588    
  0.557338987325016    0.5027584115369553    0.44169322088852475    0.383740215847393    0.3373386975877539    
  0.3078757323292368    0.29783906355708406    0.3078757323292368    0.3373386975877537    0.3837402158473927    
  0.27781915719242567    0.3373386975877537    0.40928292620318435    0.48339444279105415    0.5480497878518964    
  0.5950223286506304    0.6226106188007231    0.6349151124372608    0.6384222248706973    0.6386906059593184    
  0.6386906059593184    0.6384222248706974    0.6349151124372608    0.6226106188007232    0.5950223286506304    
  0.5480497878518965    0.48339444279105404    0.4092829262031843    0.33733869758775387    0.2778191571924258    
  0.2367176835550479    0.21607628905120166    0.21607628905120171    0.2367176835550479    0.27781915719242567    
  0.18551255947138964    0.2367176835550479    0.3078757323292367    0.3919922058994799    0.47655651136621147    
  0.5480497878518964    0.5980896929822588    0.6263951849208353    0.6387587783392626    0.6425571810212343    
  0.6431901164463397    0.6425571810212343    0.6387587783392628    0.6263951849208355    0.5980896929822588    
  0.5480497878518965    0.47655651136621147    0.3919922058994799    0.30787573232923693    0.236717683555048    
  0.18551255947138962    0.155666685188408    0.14598079145074544    0.1556666851884081    0.18551255947138964    
  0.11804941459723964    0.15566668518840815    0.21607628905120171    0.29783906355708417    0.39199220589948003    
  0.48339444279105404    0.5573389873250161    0.6065381382594008    0.6329313925923975    0.6439458682224027    
  0.6472312253515808    0.6472312253515808    0.6439458682224029    0.6329313925923976    0.6065381382594008    
  0.5573389873250161    0.48339444279105415    0.39199220589948003    0.2978390635570843    0.21607628905120174    
  0.15566668518840818    0.11804941459723964    0.10052611133638166    0.10052611133638166    0.11804941459723964    
  0.0763152322324177    0.10052611133638166    0.14598079145074544    0.21607628905120155    0.3078757323292367    
  0.40928292620318446    0.5027584115369553    0.5739688241062215    0.6183132521237477    0.6404860450589548    
  0.649058486977342    0.6510527601844334    0.649058486977342    0.6404860450589548    0.6183132521237479    
  0.5739688241062217    0.5027584115369552    0.40928292620318424    0.30787573232923693    0.21607628905120171    
  0.1459807914507455    0.10052611133638166    0.07631523223241785    0.06887066160456921    0.0763152322324177    
  0.0550245928692429    0.06887066160456921    0.1005261113363816    0.155666685188408    0.23671768355504794    
  0.33733869758775387    0.4416932208885249    0.5312786993830799    0.5944444065887464    0.6306445221319913    
  0.6471717606951937    0.6527532182163468    0.6527532182163467    0.6471717606951937    0.6306445221319913    
  0.5944444065887464    0.5312786993830798    0.44169322088852475    0.33733869758775387    0.236717683555048    
  0.1556666851884081    0.1005261113363817    0.06887066160456916    0.05502459286924281    0.0550245928692429    
  0.04865214586225253    0.05502459286924281    0.0763152322324178    0.11804941459723955    0.1855125594713895    
  0.2778191571924257    0.383740215847393    0.48463033506382536    0.5637948437393653    0.6145746869827181    
  0.640863288742021    0.6515016922584373    0.6540953320003521    0.6515016922584373    0.640863288742021    
  0.6145746869827181    0.5637948437393653    0.4846303350638253    0.383740215847393    0.2778191571924258    
  0.1855125594713895    0.11804941459723964    0.0763152322324178    0.05502459286924285    0.04865214586225253    
  0.057621954235818285    0.06444036622754713    0.08691595378760819    0.13004640207249685    0.1981940242836425    
  0.2895068482043447    0.39240451161078393    0.4888672065827333    0.5634242921356064    0.6104665776460643    
  0.6343035975462213    0.6436605469258743    0.6458691823545779    0.6436605469258743    0.6343035975462213    
  0.6104665776460643    0.5634242921356064    0.4888672065827333    0.39240451161078393    0.2895068482043448    
  0.1981940242836425    0.13004640207249693    0.08691595378760819    0.06444036622754713    0.057621954235818285    
  0.06444036622754713    0.06444036622754713    0.07910342235389346    0.11205558638705099    0.1682311230705385    
  0.24906803516881806    0.3475406666013319    0.4479910704126888    0.5329297377251313    0.5918973059669712    
  0.6250605190681107    0.6398012840848416    0.644601068435792    0.644601068435792    0.6398012840848416    
  0.6250605190681107    0.5918973059669712    0.5329297377251312    0.44799107041268893    0.347540666601332    
  0.24906803516881806    0.16823112307053822    0.11205558638705089    0.07910342235389331    0.06444036622754713    
  0.08691595378760805    0.07910342235389355    0.08691595378760815    0.11205558638705095    0.1584484208497425    
  0.2286316227676618    0.31888259302353855    0.41695453514140707    0.5060080987970964    0.5728410288743646    
  0.6137373009472039    0.6336870274796874    0.64110748763341    0.6427566864229621    0.64110748763341    
  0.6336870274796874    0.6137373009472037    0.5728410288743645    0.5060080987970965    0.4169545351414073    
  0.3188825930235384    0.22863162276766175    0.15844842084974245    0.11205558638705095    0.08691595378760805    
  0.13004640207249693    0.11205558638705095    0.11205558638705089    0.13004640207249693    0.1682311230705384    
  0.22863162276766183    0.30908813189330253    0.4003345585609783    0.4876510767725863    0.5572789486884481    
  0.6028383529144228    0.6267057524343268    0.6362672154925619    0.6389222905318306    0.6389222905318306    
  0.6362672154925619    0.6267057524343267    0.6028383529144226    0.5572789486884482    0.4876510767725864    
  0.40033455856097827    0.3090881318933023    0.22863162276766189    0.1682311230705384    0.13004640207249693    
  0.19819402428364266    0.16823112307053845    0.15844842084974245    0.16823112307053822    0.1981940242836426    
  0.24906803516881806    0.31888259302353855    0.4003345585609783    0.4811546665678926    0.5485592551839532    
  0.5949837123817612    0.6206327358925093    0.6313496438765329    0.6343082788601806    0.6346902723574774    
  0.6343082788601805    0.6313496438765328    0.6206327358925092    0.5949837123817611    0.5485592551839531    
  0.4811546665678926    0.40033455856097816    0.3188825930235384    0.24906803516881806    0.19819402428364266    
  0.28950684820434464    0.24906803516881806    0.22863162276766183    0.2286316227676618    0.24906803516881798    
  0.2895068482043447    0.3475406666013319    0.41695453514140707    0.4876510767725863    0.5485592551839532    
  0.5921260909884309    0.6171064831291531    0.627701471907451    0.6302486099145449    0.6301010423667998    
  0.6301010423667998    0.6302486099145446    0.6277014719074507    0.6171064831291528    0.592126090988431    
  0.5485592551839531    0.4876510767725863    0.4169545351414071    0.34754066660133176    0.28950684820434464    
  0.39240451161078366    0.3475406666013318    0.3188825930235385    0.3090881318933023    0.3188825930235385    
  0.3475406666013319    0.39240451161078393    0.4479910704126888    0.5060080987970965    0.5572789486884481    
  0.5949837123817611    0.6171064831291531    0.6263560662971462    0.6278871832947318    0.6266614824200069    
  0.625896092914657    0.6266614824200067    0.6278871832947315    0.6263560662971464    0.6171064831291531    
  0.5949837123817611    0.5572789486884481    0.5060080987970965    0.4479910704126888    0.39240451161078366    
  0.4888672065827333    0.4479910704126888    0.4169545351414071    0.4003345585609783    0.4003345585609783    
  0.4169545351414072    0.44799107041268893    0.4888672065827333    0.5329297377251313    0.5728410288743647    
  0.6028383529144227    0.6206327358925092    0.6277014719074508    0.6278871832947318    0.6253946376517193    
  0.623363167569374    0.6233631675693738    0.6253946376517191    0.6278871832947317    0.6277014719074511    
  0.6206327358925092    0.6028383529144228    0.5728410288743646    0.5329297377251313    0.4888672065827333    
  0.5634242921356064    0.5329297377251313    0.5060080987970964    0.4876510767725863    0.48115466656789246    
  0.4876510767725863    0.5060080987970965    0.5329297377251312    0.5634242921356064    0.5918973059669712    
  0.6137373009472039    0.6267057524343268    0.6313496438765329    0.6302486099145448    0.6266614824200071    
  0.623363167569374    0.622074997845083    0.6233631675693738    0.626661482420007    0.6302486099145448    
  0.6313496438765328    0.6267057524343267    0.6137373009472039    0.5918973059669713    0.5634242921356064    
  0.6104665776460642    0.5918973059669712    0.5728410288743646    0.5572789486884482    0.5485592551839531    
  0.5485592551839531    0.5572789486884482    0.5728410288743646    0.5918973059669712    0.6104665776460643    
  0.6250605190681107    0.6336870274796873    0.6362672154925619    0.6343082788601805    0.6301010423667998    
  0.625896092914657    0.6233631675693739    0.6233631675693739    0.6258960929146569    0.6301010423667999    
  0.6343082788601804    0.6362672154925618    0.6336870274796873    0.6250605190681107    0.6104665776460642    
  0.6343035975462213    0.6250605190681107    0.6137373009472039    0.6028383529144228    0.594983712381761    
  0.5921260909884308    0.5949837123817611    0.6028383529144228    0.6137373009472037    0.6250605190681108    
  0.6343035975462216    0.6398012840848417    0.64110748763341    0.6389222905318306    0.6346902723574774    
  0.6301010423667999    0.6266614824200067    0.6253946376517191    0.626661482420007    0.6301010423668    
  0.6346902723574773    0.6389222905318306    0.6411074876334101    0.6398012840848418    0.6343035975462213    
  0.6436605469258742    0.6398012840848418    0.6336870274796873    0.6267057524343267    0.6206327358925092    
  0.6171064831291528    0.6171064831291528    0.6206327358925092    0.6267057524343267    0.6336870274796874    
  0.6398012840848416    0.6436605469258743    0.644601068435792    0.6427566864229621    0.6389222905318306    
  0.6343082788601805    0.6302486099145446    0.6278871832947316    0.6278871832947317    0.6302486099145448    
  0.6343082788601804    0.6389222905318306    0.642756686422962    0.644601068435792    0.6436605469258742    
  0.6458691823545778    0.644601068435792    0.64110748763341    0.6362672154925619    0.6313496438765327    
  0.6277014719074508    0.6263560662971464    0.627701471907451    0.6313496438765328    0.6362672154925619    
  0.64110748763341    0.644601068435792    0.6458691823545779    0.6446010684357921    0.64110748763341    
  0.6362672154925619    0.6313496438765328    0.6277014719074507    0.6263560662971464    0.627701471907451    
  0.6313496438765327    0.6362672154925618    0.64110748763341    0.644601068435792    0.6458691823545778    
  0.6436605469258742    0.644601068435792    0.642756686422962    0.6389222905318306    0.6343082788601804    
  0.6302486099145446    0.6278871832947317    0.6278871832947316    0.6302486099145446    0.6343082788601805    
  0.6389222905318306    0.642756686422962    0.644601068435792    0.6436605469258743    0.6398012840848416    
  0.6336870274796874    0.6267057524343267    0.6206327358925092    0.6171064831291528    0.6171064831291531    
  0.6206327358925092    0.6267057524343267    0.6336870274796873    0.6398012840848417    0.6436605469258742    
  0.6343035975462213    0.6398012840848417    0.6411074876334101    0.6389222905318306    0.6346902723574773    
  0.6301010423667999    0.626661482420007    0.6253946376517192    0.6266614824200067    0.6301010423667998    
  0.6346902723574774    0.6389222905318306    0.64110748763341    0.6398012840848418    0.6343035975462216    
  0.6250605190681107    0.6137373009472037    0.6028383529144228    0.5949837123817611    0.5921260909884309    
  0.5949837123817611    0.6028383529144227    0.6137373009472039    0.6250605190681107    0.6343035975462213    
  0.6104665776460642    0.6250605190681107    0.6336870274796873    0.6362672154925618    0.6343082788601804    
  0.6301010423667999    0.6258960929146569    0.6233631675693739    0.6233631675693738    0.625896092914657    
  0.6301010423667998    0.6343082788601805    0.6362672154925619    0.6336870274796874    0.6250605190681107    
  0.6104665776460643    0.5918973059669712    0.5728410288743644    0.5572789486884482    0.5485592551839531    
  0.5485592551839531    0.5572789486884481    0.5728410288743647    0.5918973059669713    0.6104665776460642    
  0.5634242921356064    0.5918973059669712    0.6137373009472039    0.6267057524343267    0.6313496438765328    
  0.6302486099145446    0.626661482420007    0.6233631675693739    0.622074997845083    0.623363167569374    
  0.6266614824200071    0.6302486099145448    0.6313496438765329    0.6267057524343268    0.6137373009472039    
  0.5918973059669712    0.5634242921356064    0.5329297377251312    0.5060080987970965    0.4876510767725864    
  0.48115466656789246    0.4876510767725863    0.5060080987970964    0.5329297377251313    0.5634242921356064    
  0.48886720658273336    0.5329297377251313    0.5728410288743646    0.6028383529144228    0.6206327358925091    
  0.627701471907451    0.6278871832947317    0.6253946376517192    0.6233631675693738    0.623363167569374    
  0.6253946376517193    0.6278871832947318    0.627701471907451    0.6206327358925092    0.6028383529144227    
  0.5728410288743647    0.5329297377251313    0.4888672065827333    0.44799107041268893    0.4169545351414073    
  0.40033455856097827    0.40033455856097827    0.4169545351414071    0.44799107041268893    0.48886720658273336    
  0.39240451161078366    0.4479910704126888    0.5060080987970965    0.5572789486884481    0.5949837123817611    
  0.6171064831291528    0.6263560662971464    0.6278871832947316    0.6266614824200067    0.625896092914657    
  0.6266614824200069    0.6278871832947318    0.6263560662971462    0.6171064831291531    0.5949837123817611    
  0.5572789486884481    0.5060080987970965    0.4479910704126888    0.39240451161078393    0.347540666601332    
  0.3188825930235385    0.3090881318933023    0.3188825930235385    0.34754066660133176    0.39240451161078366    
  0.2895068482043447    0.3475406666013318    0.4169545351414071    0.4876510767725864    0.5485592551839531    
  0.5921260909884309    0.6171064831291528    0.627701471907451    0.6302486099145446    0.6301010423667998    
  0.6301010423667998    0.6302486099145448    0.6277014719074508    0.6171064831291531    0.5921260909884309    
  0.5485592551839532    0.4876510767725863    0.416954535141407    0.3475406666013319    0.2895068482043448    
  0.24906803516881806    0.22863162276766183    0.22863162276766189    0.24906803516881806    0.2895068482043447    
  0.19819402428364266    0.24906803516881806    0.3188825930235384    0.4003345585609781    0.4811546665678926    
  0.5485592551839531    0.5949837123817611    0.6206327358925092    0.6313496438765328    0.6343082788601805    
  0.6346902723574774    0.6343082788601805    0.6313496438765329    0.6206327358925093    0.5949837123817612    
  0.5485592551839532    0.4811546665678926    0.40033455856097827    0.31888259302353855    0.24906803516881817    
  0.1981940242836426    0.1682311230705383    0.15844842084974245    0.1682311230705384    0.19819402428364266    
  0.13004640207249693    0.16823112307053836    0.22863162276766189    0.3090881318933025    0.4003345585609783    
  0.4876510767725863    0.5572789486884482    0.6028383529144228    0.6267057524343267    0.6362672154925619    
  0.6389222905318306    0.6389222905318306    0.6362672154925619    0.6267057524343268    0.6028383529144227    
  0.5572789486884482    0.4876510767725864    0.4003345585609783    0.30908813189330253    0.22863162276766194    
  0.1682311230705385    0.13004640207249693    0.11205558638705099    0.11205558638705095    0.13004640207249693    
  0.08691595378760805    0.11205558638705095    0.15844842084974245    0.22863162276766175    0.3188825930235384    
  0.4169545351414072    0.5060080987970965    0.5728410288743646    0.6137373009472037    0.6336870274796874    
  0.64110748763341    0.6427566864229621    0.64110748763341    0.6336870274796874    0.6137373009472039    
  0.5728410288743648    0.5060080987970964    0.416954535141407    0.31888259302353855    0.22863162276766189    
  0.1584484208497425    0.11205558638705095    0.08691595378760815    0.07910342235389346    0.08691595378760805    
  0.06444036622754719    0.07910342235389346    0.11205558638705089    0.1682311230705383    0.24906803516881812    
  0.3475406666013319    0.44799107041268893    0.5329297377251313    0.5918973059669712    0.6250605190681107    
  0.6398012840848416    0.6446010684357921    0.644601068435792    0.6398012840848417    0.6250605190681107    
  0.5918973059669713    0.5329297377251312    0.4479910704126887    0.3475406666013319    0.24906803516881817    
  0.1682311230705384    0.11205558638705099    0.07910342235389346    0.06444036622754713    0.06444036622754719    
  0.057621954235818285    0.06444036622754713    0.08691595378760819    0.13004640207249685    0.1981940242836425    
  0.2895068482043447    0.39240451161078393    0.4888672065827333    0.5634242921356064    0.6104665776460643    
  0.6343035975462213    0.6436605469258743    0.6458691823545779    0.6436605469258743    0.6343035975462213    
  0.6104665776460643    0.5634242921356064    0.4888672065827333    0.39240451161078393    0.2895068482043448    
  0.1981940242836425    0.13004640207249693    0.08691595378760819    0.06444036622754713    0.057621954235818285    
  0.08871488761177572    0.09666980041002747    0.12204092911932624    0.1681903030204585    0.23688863771303068    
  0.3238596697156142    0.41697623592496447    0.500260177775774    0.5616486885636027    0.5982506394955001    
  0.6153243558975514    0.6211647204041001    0.6223180395942229    0.6211647204041001    0.6153243558975514    
  0.5982506394955001    0.5616486885636027    0.500260177775774    0.41697623592496447    0.3238596697156143    
  0.23688863771303068    0.16819030302045854    0.12204092911932624    0.09666980041002753    0.08871488761177572    
  0.09666980041002747    0.09666980041002747    0.11335140106714726    0.14926573045075184    0.20718190201908052    
  0.2859227610293894    0.3769311540203656    0.46542833881319556    0.5368815316126077    0.5840172465781358    
  0.6087623812278822    0.6185914197951178    0.6212475301914571    0.6212475301914572    0.6185914197951178    
  0.6087623812278822    0.5840172465781358    0.5368815316126075    0.4654283388131957    0.3769311540203657    