#     DFTpy    
  CRYSTAL 
    
  PRIMVEC    
  1.6988346524251705    -2.9424679316590105    0.0    
  1.6988346524251705    2.9424679316590105    0.0    
  0.0    0.0    3.1977560366896505    
  PRIMCOORD    
  1    1    
  Si    0.0    0.0    0.0    
  BEGIN_BLOCK_DATAGRID_3D    
  3d_datagrid_density    
  BEGIN_DATAGRID_3D#0    
  33    33    31    
  0.0    0.0    0.0    
  1.6988346587618561    -2.942467942634472    0.0    
  1.6988346587618561    2.942467942634472    0.0    
  0.0    0.0    3.1977560486173418    
  0.05928064489816267    0.06793944765698216    0.09645604142119152    0.14907300513198327    0.22241579205567164    
  0.2980024445707459    0.3492901868831891    0.3602685966430665    0.3351083899675783    0.2901806081422493    
  0.24112440964294024    0.1970677769731187    0.16156855222335023    0.13518978702995443    0.11728465260002263    
  0.10696764366795014    0.10360192514605077    0.10696764366795014    0.11728465260002263    0.13518978702995443    
  0.16156855222335023    0.1970677769731187    0.24112440964294024    0.2901806081422493    0.3351083899675783    
  0.3602685966430665    0.3492901868831891    0.2980024445707459    0.22241579205567164    0.14907300513198327    
  0.09645604142119152    0.06793944765698216    0.05928064489816267    0.06793944765698216    0.06793944765698214    
  0.08658165902988822    0.1275962084678564    0.19183052634438869    0.26786498957379967    0.3315175749794751    
  0.36048208447658076    0.34989414918445955    0.3119062038413163    0.2633878292910999    0.21644375977302988    
  0.17683988189911884    0.14625098850288976    0.12444822748770348    0.1105810846192588    0.10386134582491699    
  0.10386134582491699    0.11058108461925881    0.12444822748770343    0.14625098850288976    0.17683988189911884    
  0.21644375977302993    0.26338782929109983    0.3119062038413163    0.34989414918445955    0.36048208447658076    
  0.33151757497947504    0.2678649895737997    0.19183052634438863    0.12759620846785638    0.08658165902988829    
  0.06793944765698216    0.09645604142119157    0.0865816590298882    0.09645604142119152    0.12759620846785635    
  0.18125798956783798    0.2505726460921044    0.3163554329951028    0.35564002915358073    0.3572306269882077    
  0.3274337565116029    0.28166998307023566    0.2336425222194846    0.1911056830895264    0.15700049697593638    
  0.13169429079013675    0.11451177531476225    0.10459965476882668    0.10136287688158736    0.10459965476882671    
  0.11451177531476225    0.13169429079013675    0.1570004969759364    0.19110568308952644    0.2336425222194846    
  0.28166998307023566    0.3274337565116029    0.3572306269882077    0.3556400291535808    0.31635543299510277    
  0.2505726460921044    0.181257989567838    0.12759620846785635    0.09645604142119157    0.14907300513198327    
  0.1275962084678564    0.12759620846785633    0.14907300513198327    0.19183052634438863    0.2505726460921044    
  0.31051190891620994    0.3514257004847624    0.3597842387770935    0.3368857533954209    0.29495038244352867    
  0.24746950134297974    0.2033730741997101    0.1667229681927045    0.1385576418649057    0.11849243648022563    
  0.10570522558606656    0.09949320503852221    0.09949320503852221    0.1057052255860666    0.11849243648022563    
  0.1385576418649057    0.1667229681927045    0.20337307419971012    0.2474695013429798    0.29495038244352867    
  0.3368857533954209    0.3597842387770935    0.35142570048476235    0.3105119089162099    0.25057264609210433    
  0.19183052634438866    0.14907300513198327    0.2224157920556717    0.19183052634438863    0.181257989567838    
  0.19183052634438863    0.22241579205567164    0.2678649895737996    0.31635543299510277    0.3514257004847624    
  0.36026183835151593    0.3411961816553156    0.3028666900430959    0.2570605410138511    0.2127664042742708    
  0.17471680193626277    0.1445436804229519    0.12221120314677109    0.10701509114873464    0.09821255053107136    
  0.09532914122191997    0.09821255053107138    0.10701509114873464    0.12221120314677113    0.1445436804229519    
  0.17471680193626277    0.21276640427427085    0.2570605410138512    0.30286669004309585    0.34119618165531557    
  0.36026183835151593    0.35142570048476235    0.3163554329951028    0.2678649895737997    0.2224157920556717    
  0.29800244457074593    0.26786498957379967    0.25057264609210445    0.2505726460921044    0.2678649895737997    
  0.2980024445707459    0.33151757497947504    0.35564002915358084    0.35978423877709353    0.3411961816553156    
  0.30547756859935604    0.26194367001531615    0.21864561242686295    0.1803919073466405    0.14919486259109963    
  0.12535225482590995    0.10833812954723844    0.09743625562114959    0.09211123463672553    0.09211123463672555    
  0.0974362556211496    0.10833812954723847    0.12535225482590998    0.14919486259109963    0.1803919073466405    
  0.21864561242686306    0.26194367001531615    0.305477568599356    0.34119618165531557    0.3597842387770935    
  0.3556400291535808    0.33151757497947504    0.29800244457074593    0.349290186883189    0.3315175749794751    
  0.3163554329951028    0.31051190891621    0.3163554329951028    0.33151757497947504    0.3492901868831891    
  0.3604820844765808    0.35723062698820773    0.3368857533954209    0.30286669004309585    0.2619436700153161    
  0.22064399324254585    0.18333451524629457    0.15214460913625774    0.12763220257815283    0.10947619827033046    
  0.0970449911902826    0.08979019756845703    0.08740237757511728    0.08979019756845703    0.09704499119028263    
  0.10947619827033048    0.1276322025781528    0.1521446091362577    0.18333451524629457    0.2206439932425458    
  0.2619436700153161    0.30286669004309585    0.33688575339542093    0.3572306269882077    0.3604820844765807    
  0.349290186883189    0.3602685966430665    0.3604820844765807    0.35564002915358073    0.35142570048476235    
  0.35142570048476235    0.35564002915358073    0.36048208447658076    0.3602685966430665    0.34989414918445955    
  0.32743375651160295    0.29495038244352867    0.2570605410138512    0.21864561242686295    0.18333451524629457    
  0.15315537531815368    0.12883265753085507    0.11024798966492332    0.09689883176757087    0.08827043951864377    
  0.08402761496101363    0.08402761496101362    0.08827043951864377    0.09689883176757086    0.11024798966492332    
  0.12883265753085507    0.1531553753181537    0.18333451524629457    0.218645612426863    0.2570605410138512    
  0.29495038244352867    0.3274337565116029    0.34989414918445944    0.3602685966430665    0.33510838996757825    
  0.34989414918445955    0.3572306269882077    0.3597842387770935    0.36026183835151593    0.3597842387770935    
  0.3572306269882077    0.34989414918445955    0.3351083899675783    0.3119062038413163    0.28166998307023566    
  0.2474695013429798    0.21276640427427085    0.1803919073466405    0.1521446091362577    0.12883265753085507    
  0.11052156772445627    0.09686648059100388    0.08743037013644393    0.08188306902005921    0.08005067432239914    
  0.08188306902005922    0.08743037013644396    0.09686648059100393    0.11052156772445634    0.12883265753085507    
  0.15214460913625774    0.18039190734664046    0.2127664042742708    0.2474695013429798    0.28166998307023566    
  0.3119062038413163    0.33510838996757825    0.2901806081422493    0.3119062038413163    0.3274337565116029    
  0.3368857533954209    0.34119618165531557    0.34119618165531557    0.3368857533954208    0.3274337565116029    
  0.3119062038413163    0.29018060814224933    0.26338782929109983    0.2336425222194846    0.2033730741997101    
  0.17471680193626277    0.14919486259109963    0.12763220257815286    0.11024798966492332    0.0968664805910039    
  0.08716442645816136    0.0808509030085643    0.07773752738633273    0.07773752738633276    0.08085090300856429    
  0.08716442645816136    0.09686648059100395    0.11024798966492334    0.12763220257815286    0.1491948625910996    
  0.17471680193626274    0.2033730741997101    0.2336425222194846    0.26338782929109983    0.2901806081422493    
  0.24112440964294024    0.2633878292910999    0.28166998307023566    0.29495038244352867    0.30286669004309585    
  0.305477568599356    0.30286669004309585    0.29495038244352867    0.28166998307023566    0.26338782929109983    
  0.24112440964294024    0.21644375977302988    0.1911056830895264    0.1667229681927045    0.1445436804229519    
  0.12535225482590995    0.10947619827033046    0.09689883176757087    0.08743037013644395    0.0808509030085643    
  0.07698100287831065    0.07570460790349814    0.07698100287831067    0.08085090300856426    0.08743037013644393    
  0.0968988317675709    0.10947619827033046    0.12535225482590992    0.14454368042295188    0.1667229681927045    
  0.19110568308952644    0.21644375977302988    0.24112440964294024    0.19706777697311864    0.21644375977302988    
  0.2336425222194846    0.24746950134297974    0.2570605410138512    0.26194367001531604    0.2619436700153161    
  0.2570605410138512    0.2474695013429798    0.23364252221948462    0.21644375977302988    0.1970677769731187    
  0.17683988189911887    0.15700049697593638    0.1385576418649057    0.12221120314677111    0.10833812954723844    
  0.09704499119028262    0.08827043951864377    0.08188306902005921    0.07773752738633274    0.07570460790349816    
  0.07570460790349816    0.07773752738633274    0.08188306902005921    0.08827043951864379    0.09704499119028265    
  0.10833812954723841    0.12221120314677113    0.1385576418649057    0.15700049697593638    0.17683988189911884    
  0.19706777697311864    0.1615685522233502    0.17683988189911887    0.1911056830895264    0.20337307419971004    
  0.2127664042742708    0.21864561242686295    0.22064399324254585    0.21864561242686306    0.21276640427427085    
  0.20337307419971015    0.1911056830895264    0.1768398818991189    0.16156855222335023    0.14625098850288976    
  0.13169429079013675    0.11849243648022563    0.10701509114873464    0.0974362556211496    0.08979019756845703    
  0.08402761496101362    0.08005067432239914    0.07773752738633274    0.07698100287831064    0.07773752738633274    
  0.08005067432239915    0.08402761496101364    0.08979019756845703    0.09743625562114956    0.10701509114873463    
  0.11849243648022563    0.13169429079013675    0.14625098850288976    0.1615685522233502    0.13518978702995443    
  0.14625098850288976    0.15700049697593635    0.16672296819270446    0.17471680193626274    0.18039190734664046    
  0.18333451524629457    0.18333451524629457    0.18039190734664054    0.17471680193626277    0.1667229681927045    
  0.15700049697593638    0.14625098850288976    0.13518978702995443    0.12444822748770346    0.11451177531476225    
  0.10570522558606656    0.09821255053107138    0.09211123463672553    0.08740237757511725    0.0840276149610136    
  0.08188306902005921    0.0808509030085643    0.0808509030085643    0.0818830690200592    0.08402761496101362    
  0.08740237757511726    0.0921112346367255    0.09821255053107136    0.10570522558606658    0.11451177531476223    
  0.12444822748770343    0.13518978702995443    0.11728465260002255    0.12444822748770343    0.13169429079013675    
  0.13855764186490568    0.14454368042295188    0.1491948625910996    0.1521446091362577    0.15315537531815368    
  0.1521446091362577    0.14919486259109963    0.1445436804229519    0.1385576418649057    0.13169429079013678    
  0.12444822748770346    0.1172846526000226    0.11058108461925881    0.10459965476882668    0.09949320503852223    
  0.09532914122191995    0.09211123463672553    0.08979019756845702    0.08827043951864377    0.08743037013644395    
  0.08716442645816137    0.08743037013644393    0.08827043951864377    0.08979019756845708    0.09211123463672553    
  0.09532914122191996    0.0994932050385222    0.10459965476882671    0.11058108461925877    0.11728465260002255    
  0.10696764366795015    0.11058108461925881    0.11451177531476225    0.11849243648022563    0.12221120314677109    
  0.12535225482590995    0.12763220257815286    0.12883265753085507    0.1288326575308551    0.12763220257815286    
  0.12535225482590995    0.12221120314677113    0.11849243648022563    0.11451177531476225    0.11058108461925881    
  0.10696764366795014    0.10386134582491699    0.10136287688158736    0.0994932050385222    0.09821255053107136    
  0.0974362556211496    0.09704499119028263    0.09689883176757087    0.09686648059100392    0.09686648059100393    
  0.0968988317675709    0.09704499119028263    0.0974362556211496    0.09821255053107135    0.09949320503852223    
  0.10136287688158736    0.10386134582491703    0.10696764366795015    0.10360192514605077    0.10386134582491702    
  0.10459965476882668    0.1057052255860666    0.10701509114873464    0.10833812954723841    0.10947619827033046    
  0.11024798966492336    0.11052156772445634    0.11024798966492336    0.10947619827033046    0.10833812954723847    
  0.10701509114873467    0.1057052255860666    0.10459965476882671    0.103861345824917    0.10360192514605077    
  0.103861345824917    0.10459965476882671    0.1057052255860666    0.10701509114873467    0.10833812954723847    
  0.10947619827033046    0.11024798966492336    0.11052156772445634    0.11024798966492336    0.10947619827033046    
  0.10833812954723841    0.10701509114873464    0.1057052255860666    0.10459965476882668    0.10386134582491702    
  0.10360192514605077    0.10696764366795015    0.10386134582491703    0.10136287688158736    0.09949320503852223    
  0.09821255053107135    0.0974362556211496    0.09704499119028263    0.0968988317675709    0.09686648059100393    
  0.09686648059100392    0.09689883176757087    0.09704499119028263    0.0974362556211496    0.09821255053107136    
  0.0994932050385222    0.10136287688158736    0.10386134582491699    0.10696764366795014    0.11058108461925881    
  0.11451177531476225    0.11849243648022563    0.12221120314677113    0.12535225482590995    0.12763220257815286    
  0.1288326575308551    0.12883265753085507    0.12763220257815286    0.12535225482590995    0.12221120314677109    
  0.11849243648022563    0.11451177531476225    0.11058108461925881    0.10696764366795015    0.11728465260002255    
  0.11058108461925877    0.10459965476882671    0.0994932050385222    0.09532914122191996    0.09211123463672553    
  0.08979019756845708    0.08827043951864377    0.08743037013644393    0.08716442645816137    0.08743037013644395    
  0.08827043951864377    0.08979019756845702    0.09211123463672553    0.09532914122191995    0.09949320503852223    
  0.10459965476882668    0.11058108461925881    0.1172846526000226    0.12444822748770346    0.13169429079013678    
  0.1385576418649057    0.1445436804229519    0.14919486259109963    0.1521446091362577    0.15315537531815368    
  0.1521446091362577    0.1491948625910996    0.14454368042295188    0.13855764186490568    0.13169429079013675    
  0.12444822748770343    0.11728465260002255    0.13518978702995443    0.12444822748770343    0.11451177531476223    
  0.10570522558606658    0.09821255053107136    0.0921112346367255    0.08740237757511726    0.08402761496101362    
  0.0818830690200592    0.0808509030085643    0.0808509030085643    0.08188306902005921    0.0840276149610136    
  0.08740237757511725    0.09211123463672553    0.09821255053107138    0.10570522558606656    0.11451177531476225    
  0.12444822748770346    0.13518978702995443    0.14625098850288976    0.15700049697593638    0.1667229681927045    
  0.17471680193626277    0.18039190734664054    0.18333451524629457    0.18333451524629457    0.18039190734664046    
  0.17471680193626274    0.16672296819270446    0.15700049697593635    0.14625098850288976    0.13518978702995443    
  0.1615685522233502    0.14625098850288976    0.13169429079013675    0.11849243648022563    0.10701509114873463    
  0.09743625562114956    0.08979019756845703    0.08402761496101364    0.08005067432239915    0.07773752738633274    
  0.07698100287831064    0.07773752738633274    0.08005067432239914    0.08402761496101362    0.08979019756845703    
  0.0974362556211496    0.10701509114873464    0.11849243648022563    0.13169429079013675    0.14625098850288976    
  0.16156855222335023    0.1768398818991189    0.1911056830895264    0.20337307419971015    0.21276640427427085    
  0.21864561242686306    0.22064399324254585    0.21864561242686295    0.2127664042742708    0.20337307419971004    
  0.1911056830895264    0.17683988189911887    0.1615685522233502    0.19706777697311864    0.17683988189911884    
  0.15700049697593638    0.1385576418649057    0.12221120314677113    0.10833812954723841    0.09704499119028265    
  0.08827043951864379    0.08188306902005921    0.07773752738633274    0.07570460790349816    0.07570460790349816    
  0.07773752738633274    0.08188306902005921    0.08827043951864377    0.09704499119028262    0.10833812954723844    
  0.12221120314677111    0.1385576418649057    0.15700049697593638    0.17683988189911887    0.1970677769731187    
  0.21644375977302988    0.23364252221948462    0.2474695013429798    0.2570605410138512    0.2619436700153161    
  0.26194367001531604    0.2570605410138512    0.24746950134297974    0.2336425222194846    0.21644375977302988    
  0.19706777697311864    0.24112440964294024    0.21644375977302988    0.19110568308952644    0.1667229681927045    
  0.14454368042295188    0.12535225482590992    0.10947619827033046    0.0968988317675709    0.08743037013644393    
  0.08085090300856426    0.07698100287831067    0.07570460790349814    0.07698100287831065    0.0808509030085643    
  0.08743037013644395    0.09689883176757087    0.10947619827033046    0.12535225482590995    0.1445436804229519    
  0.1667229681927045    0.1911056830895264    0.21644375977302988    0.24112440964294024    0.26338782929109983    
  0.28166998307023566    0.29495038244352867    0.30286669004309585    0.305477568599356    0.30286669004309585    
  0.29495038244352867    0.28166998307023566    0.2633878292910999    0.24112440964294024    0.2901806081422493    
  0.26338782929109983    0.2336425222194846    0.2033730741997101    0.17471680193626274    0.1491948625910996    
  0.12763220257815286    0.11024798966492334    0.09686648059100395    0.08716442645816136    0.08085090300856429    
  0.07773752738633276    0.07773752738633273    0.0808509030085643    0.08716442645816136    0.0968664805910039    
  0.11024798966492332    0.12763220257815286    0.14919486259109963    0.17471680193626277    0.2033730741997101    
  0.2336425222194846    0.26338782929109983    0.29018060814224933    0.3119062038413163    0.3274337565116029    
  0.3368857533954208    0.34119618165531557    0.34119618165531557    0.3368857533954209    0.3274337565116029    
  0.3119062038413163    0.2901806081422493    0.33510838996757825    0.3119062038413163    0.28166998307023566    
  0.2474695013429798    0.2127664042742708    0.18039190734664046    0.15214460913625774    0.12883265753085507    
  0.11052156772445634    0.09686648059100393    0.08743037013644396    0.08188306902005922    0.08005067432239914    
  0.08188306902005921    0.08743037013644393    0.09686648059100388    0.11052156772445627    0.12883265753085507    
  0.1521446091362577    0.1803919073466405    0.21276640427427085    0.2474695013429798    0.28166998307023566    
  0.3119062038413163    0.3351083899675783    0.34989414918445955    0.3572306269882077    0.3597842387770935    
  0.36026183835151593    0.3597842387770935    0.3572306269882077    0.34989414918445955    0.33510838996757825    
  0.3602685966430665    0.34989414918445944    0.3274337565116029    0.29495038244352867    0.2570605410138512    
  0.218645612426863    0.18333451524629457    0.1531553753181537    0.12883265753085507    0.11024798966492332    
  0.09689883176757086    0.08827043951864377    0.08402761496101362    0.08402761496101363    0.08827043951864377    
  0.09689883176757087    0.11024798966492332    0.12883265753085507    0.15315537531815368    0.18333451524629457    
  0.21864561242686295    0.2570605410138512    0.29495038244352867    0.32743375651160295    0.34989414918445955    
  0.3602685966430665    0.36048208447658076    0.35564002915358073    0.35142570048476235    0.35142570048476235    
  0.35564002915358073    0.3604820844765807    0.3602685966430665    0.349290186883189    0.3604820844765807    
  0.3572306269882077    0.33688575339542093    0.30286669004309585    0.2619436700153161    0.2206439932425458    
  0.18333451524629457    0.1521446091362577    0.1276322025781528    0.10947619827033048    0.09704499119028263    
  0.08979019756845703    0.08740237757511728    0.08979019756845703    0.0970449911902826    0.10947619827033046    
  0.12763220257815283    0.15214460913625774    0.18333451524629457    0.22064399324254585    0.2619436700153161    
  0.30286669004309585    0.3368857533954209    0.35723062698820773    0.3604820844765808    0.3492901868831891    
  0.33151757497947504    0.3163554329951028    0.31051190891621    0.3163554329951028    0.3315175749794751    
  0.349290186883189    0.29800244457074593    0.33151757497947504    0.3556400291535808    0.3597842387770935    
  0.34119618165531557    0.305477568599356    0.26194367001531615    0.21864561242686306    0.1803919073466405    
  0.14919486259109963    0.12535225482590998    0.10833812954723847    0.0974362556211496    0.09211123463672555    
  0.09211123463672553    0.09743625562114959    0.10833812954723844    0.12535225482590995    0.14919486259109963    
  0.1803919073466405    0.21864561242686295    0.26194367001531615    0.30547756859935604    0.3411961816553156    
  0.35978423877709353    0.35564002915358084    0.33151757497947504    0.2980024445707459    0.2678649895737997    
  0.2505726460921044    0.25057264609210445    0.26786498957379967    0.29800244457074593    0.2224157920556717    
  0.2678649895737997    0.3163554329951028    0.35142570048476235    0.36026183835151593    0.34119618165531557    
  0.30286669004309585    0.2570605410138512    0.21276640427427085    0.17471680193626277    0.1445436804229519    
  0.12221120314677113    0.10701509114873464    0.09821255053107138    0.09532914122191997    0.09821255053107136    
  0.10701509114873464    0.12221120314677109    0.1445436804229519    0.17471680193626277    0.2127664042742708    
  0.2570605410138511    0.3028666900430959    0.3411961816553156    0.36026183835151593    0.3514257004847624    
  0.31635543299510277    0.2678649895737996    0.22241579205567164    0.19183052634438863    0.181257989567838    
  0.19183052634438863    0.2224157920556717    0.14907300513198327    0.19183052634438866    0.25057264609210433    
  0.3105119089162099    0.35142570048476235    0.3597842387770935    0.3368857533954209    0.29495038244352867    
  0.2474695013429798    0.20337307419971012    0.1667229681927045    0.1385576418649057    0.11849243648022563    
  0.1057052255860666    0.09949320503852221    0.09949320503852221    0.10570522558606656    0.11849243648022563    
  0.1385576418649057    0.1667229681927045    0.2033730741997101    0.24746950134297974    0.29495038244352867    
  0.3368857533954209    0.3597842387770935    0.3514257004847624    0.31051190891620994    0.2505726460921044    
  0.19183052634438863    0.14907300513198327    0.12759620846785633    0.1275962084678564    0.14907300513198327    
  0.09645604142119157    0.12759620846785635    0.181257989567838    0.2505726460921044    0.31635543299510277    
  0.3556400291535808    0.3572306269882077    0.3274337565116029    0.28166998307023566    0.2336425222194846    
  0.19110568308952644    0.1570004969759364    0.13169429079013675    0.11451177531476225    0.10459965476882671    
  0.10136287688158736    0.10459965476882668    0.11451177531476225    0.13169429079013675    0.15700049697593638    
  0.1911056830895264    0.2336425222194846    0.28166998307023566    0.3274337565116029    0.3572306269882077    
  0.35564002915358073    0.3163554329951028    0.2505726460921044    0.18125798956783798    0.12759620846785635    
  0.09645604142119152    0.0865816590298882    0.09645604142119157    0.06793944765698216    0.08658165902988829    
  0.12759620846785638    0.19183052634438863    0.2678649895737997    0.33151757497947504    0.36048208447658076    
  0.34989414918445955    0.3119062038413163    0.26338782929109983    0.21644375977302993    0.17683988189911884    
  0.14625098850288976    0.12444822748770343    0.11058108461925881    0.10386134582491699    0.10386134582491699    
  0.1105810846192588    0.12444822748770348    0.14625098850288976    0.17683988189911884    0.21644375977302988    
  0.2633878292910999    0.3119062038413163    0.34989414918445955    0.36048208447658076    0.3315175749794751    
  0.26786498957379967    0.19183052634438869    0.1275962084678564    0.08658165902988822    0.06793944765698214    
  0.06793944765698216    0.05928064489816267    0.06793944765698216    0.09645604142119152    0.14907300513198327    
  0.22241579205567164    0.2980024445707459    0.3492901868831891    0.3602685966430665    0.3351083899675783    
  0.2901806081422493    0.24112440964294024    0.1970677769731187    0.16156855222335023    0.13518978702995443    
  0.11728465260002263    0.10696764366795014    0.10360192514605077    0.10696764366795014    0.11728465260002263    
  0.13518978702995443    0.16156855222335023    0.1970677769731187    0.24112440964294024    0.2901806081422493    
  0.3351083899675783    0.3602685966430665    0.3492901868831891    0.2980024445707459    0.22241579205567164    
  0.14907300513198327    0.09645604142119152    0.06793944765698216    0.05928064489816267    0.06812030574314326    
  0.07724391109288767    0.1068149221062514    0.16004089025215187    0.2322545522475043    0.3045985188783829    
  0.35170796818188166    0.359297502903772    0.3323760079683589    0.2870431184821469    0.23827526328911272    
  0.19471071439411947    0.1596789752000962    0.13366575470063607    0.11600914450502238    0.10583213632864766    
  0.10251112132589056    0.10583213632864766    0.11600914450502238    0.13366575470063607    0.1596789752000962    
  0.19471071439411947    0.23827526328911272    0.2870431184821469    0.3323760079683589    0.359297502903772    
  0.35170796818188166    0.3045985188783829    0.2322545522475043    0.16004089025215187    0.1068149221062514    
  0.07724391109288767    0.06812030574314326    0.07724391109288763    0.07724391109288763    0.09664721158443744    
  0.13848620065586154    0.20238093053132436    0.2760266772824596    0.33573829074251343    0.36083082722293974    
  0.3477541325842828    0.30883052337187133    0.26036114595060406    0.21385624957604085    0.17474640737033145    
  0.14457472667151788    0.12307556371283597    0.10939876817689553    0.10276893833490233    0.10276893833490233    
  0.10939876817689556    0.12307556371283593    0.14457472667151788    0.17474640737033145    0.21385624957604085    
  0.26036114595060406    0.30883052337187133    0.3477541325842828    0.36083082722293974    0.33573829074251343    
  0.27602667728245966    0.2023809305313243    0.13848620065586154    0.09664721158443751    0.07724391109288763    
  0.10681492210625147    0.09664721158443738    0.10681492210625144    0.13848620065586145    0.1919761573860162    
  0.2594589325704125    0.3217500283533129    0.35710458727822986    0.35575540962340835    0.3245525880975822    
  0.27856038369161085    0.23087521031476455    0.18883174384475218    0.15518043354177324    0.1302252447857419    
  0.11328032335474464    0.10350193964118266    0.10030789565337861    0.10350193964118269    0.11328032335474464    
  0.1302252447857419    0.15518043354177327    0.18883174384475218    0.23087521031476455    0.27856038369161085    
  0.3245525880975822    0.35575540962340835    0.35710458727822986    0.32175002835331284    0.25945893257041247    
  0.1919761573860162    0.1384862006558615    0.10681492210625147    0.16004089025215187    0.1384862006558616    
  0.13848620065586148    0.16004089025215187    0.2023809305313243    0.25945893257041247    0.3163063061364645    
  0.35351902353090686    0.3588248107411702    0.3342341239830424    0.2918327060637179    0.24457976315086954    
  0.20095259899681608    0.16477576128020557    0.13699759041498813    0.11721068454667832    0.10459740719082634    
  0.09846769465771275    0.09846769465771275    0.10459740719082637    0.11721068454667832    0.13699759041498813    
  0.16477576128020557    0.20095259899681608    0.2445797631508696    0.291832706063718    0.3342341239830424    
  0.3588248107411702    0.3535190235309068    0.3163063061364644    0.25945893257041247    0.20238093053132433    
  0.16004089025215187    0.23225455224750438    0.20238093053132433    0.1919761573860162    0.2023809305313243    
  0.2322545522475043    0.2760266772824596    0.32175002835331284    0.35351902353090686    0.35949570470333614    
  0.33869629847775934    0.29977320298384613    0.25410055338293064    0.21023955099071562    0.17266627296668938    
  0.14290293050222647    0.12087988046845433    0.10589175226085978    0.09720665934300764    0.0943609904974456    
  0.09720665934300765    0.10589175226085977    0.12087988046845437    0.14290293050222647    0.17266627296668938    
  0.21023955099071567    0.2541005533829307    0.299773202983846    0.3386962984777593    0.35949570470333614    
  0.3535190235309068    0.32175002835331284    0.27602667728245966    0.23225455224750438    0.3045985188783829    
  0.27602667728245966    0.2594589325704125    0.25945893257041247    0.27602667728245966    0.3045985188783829    
  0.33573829074251343    0.35710458727822997    0.3588248107411703    0.33869629847775934    0.3023980384914231    