#     DFTpy    
  CRYSTAL 
    
  PRIMVEC    
  1.1566533803745802    -2.0033824215550706    0.0    
  1.1566533803745802    2.0033824215550706    0.0    
  0.0    0.0    2.1771955994482806    
  PRIMCOORD    
  1    1    
  Si    0.0    0.0    0.0    
  BEGIN_BLOCK_DATAGRID_3D    
  3d_datagrid_density    
  BEGIN_DATAGRID_3D#0    
  25    25    25    
  0.0    0.0    0.0    
  1.1566533846889193    -2.003382429027725    0.0    
  1.1566533846889193    2.003382429027725    0.0    
  0.0    0.0    2.177195607569262    
  0.04736338678745423    0.054226522677703046    0.0772407709331376    0.12209144425990222    0.1924878227561708    
  0.2830269615822927    0.37695908808341005    0.453862558672921    0.5015847237923485    0.5214762491580532    
  0.5238744160347977    0.5202283129879949    0.5181670686905508    0.5202283129879949    0.5238744160347977    
  0.5214762491580532    0.5015847237923485    0.453862558672921    0.37695908808341005    0.2830269615822928    
  0.1924878227561708    0.12209144425990222    0.0772407709331376    0.054226522677703046    0.04736338678745423    
  0.054226522677703    0.054226522677703046    0.06918914829503663    0.10334163297099298    0.1617172067810408    
  0.2435725562572444    0.33716121168980606    0.4227418419755391    0.4835058270826883    0.5147056582467712    
  0.523326467796214    0.5209815408246241    0.5173251494876719    0.5173251494876719    0.5209815408246241    
  0.523326467796214    0.5147056582467712    0.4835058270826883    0.4227418419755391    0.33716121168980606    
  0.24357255625724436    0.1617172067810408    0.10334163297099284    0.06918914829503667    0.054226522677703    
  0.07724077093313764    0.0691891482950368    0.07724077093313768    0.10334163297099298    0.15158692016987335    
  0.22316490398544458    0.31059831192860804    0.3972753721268106    0.46523448134064016    0.505208821205861    
  0.520000220029083    0.5197525582401994    0.5150178282722857    0.5126813399936022    0.5150178282722857    
  0.5197525582401994    0.520000220029083    0.5052088212058611    0.46523448134064016    0.3972753721268106    
  0.310598311928608    0.22316490398544458    0.15158692016987327    0.10334163297099289    0.07724077093313764    
  0.12209144425990218    0.10334163297099289    0.10334163297099284    0.12209144425990222    0.16171720678104073    
  0.22316490398544458    0.3013338754723707    0.38307062578906864    0.451798861485798    0.49620103423962597    
  0.5154699432917997    0.5172871409433101    0.5118477283560436    0.5071201109988842    0.5071201109988842    
  0.5118477283560436    0.5172871409433101    0.5154699432917997    0.49620103423962597    0.4517988614857981    
  0.38307062578906864    0.30133387547237067    0.2231649039854445    0.16171720678104082    0.12209144425990218    
  0.1924878227561708    0.1617172067810408    0.15158692016987327    0.16171720678104093    0.1924878227561708    
  0.2435725562572444    0.31059831192860804    0.38307062578906864    0.44687711333602487    0.4907678193457407    
  0.5116821312315077    0.5146929854680092    0.5086544980285451    0.5016606979764311    0.49877710850348334    
  0.5016606979764311    0.5086544980285451    0.5146929854680092    0.5116821312315079    0.4907678193457407    
  0.44687711333602476    0.38307062578906864    0.31059831192860804    0.24357255625724425    0.1924878227561708    
  0.2830269615822926    0.24357255625724425    0.2231649039854445    0.22316490398544458    0.2435725562572444    
  0.2830269615822927    0.33716121168980606    0.3972753721268106    0.451798861485798    0.4907678193457407    
  0.5102179120692996    0.5130598751676102    0.5063009169770344    0.4973159500188982    0.49148564763058117    
  0.49148564763058117    0.4973159500188982    0.5063009169770344    0.5130598751676103    0.5102179120692996    
  0.4907678193457407    0.451798861485798    0.39727537212681047    0.33716121168980606    0.2830269615822926    
  0.3769590880834099    0.33716121168980606    0.310598311928608    0.30133387547237067    0.310598311928608    
  0.33716121168980606    0.37695908808341005    0.4227418419755391    0.46523448134064016    0.49620103423962597    
  0.5116821312315077    0.5130598751676103    0.5054358683492876    0.49490977927942215    0.48652276476915696    
  0.48338393122884327    0.48652276476915696    0.49490977927942215    0.5054358683492876    0.5130598751676103    
  0.5116821312315079    0.49620103423962597    0.46523448134064005    0.422741841975539    0.3769590880834099    
  0.453862558672921    0.422741841975539    0.39727537212681047    0.38307062578906864    0.38307062578906864    
  0.3972753721268106    0.4227418419755391    0.453862558672921    0.4835058270826883    0.5052088212058611    
  0.5154699432917997    0.5146929854680091    0.5063009169770344    0.49490977927942215    0.48476360452712247    
  0.47890998482205993    0.47890998482205993    0.4847636045271226    0.49490977927942226    0.5063009169770343    
  0.5146929854680092    0.5154699432917997    0.5052088212058611    0.48350582708268836    0.453862558672921    
  0.5015847237923484    0.4835058270826883    0.46523448134064016    0.4517988614857981    0.44687711333602487    
  0.451798861485798    0.46523448134064016    0.48350582708268836    0.5015847237923485    0.5147056582467712    
  0.520000220029083    0.5172871409433101    0.5086544980285451    0.4973159500188982    0.48652276476915696    
  0.47890998482205993    0.4761763559434793    0.47890998482205993    0.48652276476915707    0.4973159500188982    
  0.5086544980285451    0.5172871409433101    0.520000220029083    0.5147056582467712    0.5015847237923484    
  0.5214762491580532    0.5147056582467712    0.505208821205861    0.4962010342396261    0.4907678193457407    
  0.4907678193457407    0.49620103423962597    0.5052088212058611    0.5147056582467712    0.5214762491580532    
  0.523326467796214    0.5197525582401994    0.5118477283560436    0.5016606979764311    0.49148564763058117    
  0.48338393122884327    0.47890998482205993    0.47890998482205993    0.4833839312288433    0.49148564763058117    
  0.5016606979764311    0.5118477283560436    0.5197525582401994    0.523326467796214    0.5214762491580532    
  0.5238744160347977    0.523326467796214    0.5200002200290829    0.5154699432917998    0.5116821312315077    
  0.5102179120692996    0.5116821312315079    0.5154699432917997    0.520000220029083    0.523326467796214    
  0.5238744160347977    0.5209815408246241    0.5150178282722857    0.5071201109988842    0.49877710850348334    
  0.49148564763058117    0.48652276476915696    0.4847636045271226    0.48652276476915696    0.49148564763058106    
  0.49877710850348334    0.5071201109988842    0.5150178282722857    0.5209815408246242    0.5238744160347977    
  0.5202283129879948    0.5209815408246242    0.5197525582401993    0.5172871409433101    0.5146929854680092    
  0.5130598751676103    0.5130598751676103    0.5146929854680092    0.5172871409433101    0.5197525582401994    
  0.5209815408246242    0.5202283129879949    0.5173251494876719    0.5126813399936022    0.5071201109988842    
  0.5016606979764311    0.4973159500188982    0.49490977927942215    0.49490977927942226    0.4973159500188982    
  0.5016606979764311    0.5071201109988842    0.5126813399936022    0.5173251494876719    0.5202283129879948    
  0.5181670686905508    0.5173251494876719    0.5150178282722857    0.5118477283560436    0.5086544980285451    
  0.5063009169770343    0.5054358683492876    0.5063009169770344    0.5086544980285451    0.5118477283560436    
  0.5150178282722857    0.5173251494876719    0.5181670686905508    0.5173251494876719    0.5150178282722857    
  0.5118477283560436    0.5086544980285451    0.5063009169770344    0.5054358683492876    0.5063009169770344    
  0.5086544980285451    0.5118477283560436    0.5150178282722857    0.5173251494876719    0.5181670686905508    
  0.5202283129879948    0.5173251494876719    0.5126813399936022    0.5071201109988842    0.5016606979764311    
  0.4973159500188982    0.49490977927942226    0.49490977927942215    0.4973159500188982    0.5016606979764311    
  0.5071201109988842    0.5126813399936021    0.5173251494876719    0.5202283129879948    0.5209815408246242    
  0.5197525582401994    0.5172871409433101    0.5146929854680092    0.5130598751676103    0.5130598751676103    
  0.5146929854680092    0.5172871409433101    0.5197525582401994    0.5209815408246241    0.5202283129879948    
  0.5238744160347977    0.5209815408246241    0.5150178282722857    0.5071201109988842    0.49877710850348334    
  0.49148564763058106    0.48652276476915696    0.48476360452712247    0.48652276476915696    0.49148564763058117    
  0.49877710850348334    0.5071201109988842    0.5150178282722857    0.5209815408246241    0.5238744160347977    
  0.523326467796214    0.520000220029083    0.5154699432917997    0.5116821312315079    0.5102179120692996    
  0.5116821312315077    0.5154699432917998    0.520000220029083    0.523326467796214    0.5238744160347977    
  0.5214762491580532    0.523326467796214    0.5197525582401994    0.5118477283560436    0.5016606979764311    
  0.49148564763058106    0.4833839312288433    0.47890998482205993    0.4789099848220599    0.48338393122884327    
  0.49148564763058117    0.5016606979764311    0.5118477283560436    0.5197525582401994    0.523326467796214    
  0.5214762491580532    0.5147056582467712    0.5052088212058611    0.49620103423962597    0.4907678193457407    
  0.4907678193457407    0.49620103423962597    0.5052088212058611    0.5147056582467712    0.5214762491580532    
  0.5015847237923484    0.5147056582467712    0.520000220029083    0.5172871409433101    0.5086544980285451    
  0.4973159500188982    0.48652276476915707    0.47890998482205993    0.4761763559434793    0.47890998482205993    
  0.48652276476915696    0.4973159500188982    0.5086544980285451    0.5172871409433101    0.520000220029083    
  0.5147056582467712    0.5015847237923485    0.48350582708268836    0.46523448134064016    0.451798861485798    
  0.44687711333602476    0.451798861485798    0.46523448134064016    0.4835058270826883    0.5015847237923484    
  0.4538625586729211    0.4835058270826883    0.5052088212058611    0.5154699432917998    0.5146929854680092    
  0.5063009169770343    0.49490977927942226    0.4847636045271226    0.4789099848220599    0.47890998482205993    
  0.4847636045271226    0.49490977927942204    0.5063009169770344    0.5146929854680092    0.5154699432917997    
  0.5052088212058611    0.48350582708268836    0.453862558672921    0.4227418419755391    0.3972753721268106    
  0.38307062578906864    0.38307062578906864    0.3972753721268105    0.422741841975539    0.4538625586729211    
  0.3769590880834099    0.422741841975539    0.46523448134064005    0.49620103423962597    0.5116821312315079    
  0.5130598751676103    0.5054358683492876    0.49490977927942215    0.48652276476915696    0.48338393122884327    
  0.48652276476915696    0.49490977927942226    0.5054358683492876    0.5130598751676103    0.5116821312315077    
  0.49620103423962597    0.46523448134064016    0.4227418419755391    0.37695908808341005    0.33716121168980606    
  0.310598311928608    0.30133387547237067    0.310598311928608    0.33716121168980606    0.3769590880834099    
  0.28302696158229274    0.33716121168980606    0.39727537212681047    0.4517988614857981    0.4907678193457407    
  0.5102179120692996    0.5130598751676103    0.5063009169770344    0.4973159500188982    0.4914856476305812    
  0.49148564763058117    0.4973159500188982    0.5063009169770344    0.5130598751676103    0.5102179120692995    
  0.4907678193457407    0.4517988614857981    0.3972753721268106    0.33716121168980606    0.2830269615822928    
  0.2435725562572444    0.22316490398544453    0.22316490398544453    0.24357255625724436    0.28302696158229274    
  0.1924878227561708    0.2435725562572443    0.31059831192860804    0.38307062578906864    0.44687711333602487    
  0.4907678193457407    0.5116821312315079    0.5146929854680092    0.5086544980285451    0.5016606979764311    
  0.49877710850348334    0.5016606979764311    0.5086544980285451    0.5146929854680092    0.5116821312315077    
  0.4907678193457407    0.44687711333602487    0.38307062578906864    0.31059831192860804    0.24357255625724444    
  0.1924878227561708    0.16171720678104093    0.15158692016987327    0.16171720678104082    0.1924878227561708    
  0.12209144425990222    0.16171720678104082    0.22316490398544453    0.3013338754723708    0.38307062578906864    
  0.4517988614857981    0.49620103423962597    0.5154699432917997    0.5172871409433101    0.5118477283560436    
  0.5071201109988842    0.5071201109988842    0.5118477283560436    0.5172871409433101    0.5154699432917997    
  0.49620103423962597    0.4517988614857981    0.38307062578906864    0.3013338754723707    0.22316490398544458    
  0.16171720678104082    0.12209144425990226    0.10334163297099293    0.10334163297099298    0.12209144425990222    
  0.07724077093313764    0.10334163297099289    0.15158692016987327    0.22316490398544458    0.310598311928608    
  0.3972753721268106    0.46523448134064016    0.5052088212058611    0.520000220029083    0.5197525582401994    
  0.5150178282722857    0.5126813399936022    0.5150178282722857    0.5197525582401994    0.520000220029083    
  0.505208821205861    0.46523448134064016    0.3972753721268106    0.31059831192860804    0.22316490398544458    
  0.15158692016987335    0.10334163297099298    0.07724077093313768    0.06918914829503671    0.07724077093313764    
  0.054226522677703094    0.06918914829503671    0.10334163297099293    0.16171720678104093    0.24357255625724436    
  0.33716121168980606    0.4227418419755391    0.48350582708268836    0.5147056582467712    0.523326467796214    
  0.5209815408246241    0.5173251494876719    0.5173251494876719    0.5209815408246241    0.523326467796214    
  0.5147056582467712    0.4835058270826883    0.4227418419755391    0.33716121168980606    0.24357255625724444    
  0.1617172067810408    0.10334163297099298    0.06918914829503663    0.054226522677703046    0.054226522677703094    
  0.04736338678745423    0.054226522677703046    0.0772407709331376    0.12209144425990222    0.1924878227561708    
  0.2830269615822927    0.37695908808341005    0.453862558672921    0.5015847237923485    0.5214762491580532    
  0.5238744160347977    0.5202283129879949    0.5181670686905508    0.5202283129879949    0.5238744160347977    
  0.5214762491580532    0.5015847237923485    0.453862558672921    0.37695908808341005    0.2830269615822928    
  0.1924878227561708    0.12209144425990222    0.0772407709331376    0.054226522677703046    0.04736338678745423    
  0.05387207208176216    0.06110348580111823    0.08506712244712335    0.13092134160187535    0.20151830843933385    
  0.29072776039481213    0.38182937188823607    0.45526441164260945    0.4999326159157308    0.5177501452070228    
  0.5190216047904134    0.5148839606969657    0.5126920916453706    0.5148839606969657    0.5190216047904134    
  0.5177501452070228    0.4999326159157308    0.45526441164260945    0.38182937188823607    0.29072776039481224    
  0.20151830843933385    0.13092134160187535    0.08506712244712335    0.061103485801118324    0.05387207208176216    
  0.061103485801118275    0.06110348580111823    0.07672640177039268    0.11185923544576531    0.17082028321184073    
  0.25203056368599613    0.34339011174660106    0.42567400132177513    0.4831143038184344    0.5117859614832885    
  0.5188883426116713    0.5158064486098466    0.511876613786433    0.511876613786433    0.5158064486098466    
  0.5188883426116714    0.5117859614832885    0.4831143038184344    0.42567400132177513    0.34339011174660106    
  0.252030563685996    0.17082028321184076    0.11185923544576518    0.07672640177039272    0.061103485801118275    
  0.08506712244712339    0.07672640177039276    0.08506712244712339    0.11185923544576531    0.16066181505494648    
  0.2319035294440567    0.31758210604076126    0.4012787461954679    0.4658889604620488    0.5030570316272229    
  0.5160080034453529    0.5147896396225252    0.5096430839404917    0.5071994163409805    0.5096430839404918    
  0.5147896396225252    0.5160080034453529    0.5030570316272229    0.4658889604620488    0.4012787461954679    
  0.3175821060407611    0.2319035294440567    0.16066181505494642    0.11185923544576527    0.08506712244712339    
  0.13092134160187532    0.11185923544576527    0.11185923544576518    0.13092134160187535    0.1708202832118407    
  0.2319035294440567    0.3085530490539495    0.3876129533776982    0.45313295979088586    0.4946450806588395    
  0.5118759976829705    0.5125425593973839    0.5065774700869022    0.5016659246372075    0.5016659246372075    
  0.5065774700869022    0.5125425593973839    0.5118759976829707    0.49464508065883944    0.4531329597908859    
  0.38761295337769813    0.30855304905394937    0.23190352944405662    0.17082028321184076    0.13092134160187532    
  0.20151830843933388    0.17082028321184067    0.16066181505494642    0.1708202832118408    0.20151830843933383    
  0.25203056368599613    0.3175821060407612    0.3876129533776982    0.448445254206071    0.4895354171418673    
  0.508363001461921    0.5101286562117227    0.5034930001811272    0.49627242067283167    0.4933354328905381    
  0.49627242067283167    0.5034930001811272    0.5101286562117227    0.5083630014619211    0.4895354171418673    
  0.448445254206071    0.3876129533776982    0.3175821060407612    0.252030563685996    0.20151830843933388    
  0.2907277603948121    0.252030563685996    0.23190352944405662    0.2319035294440567    0.2520305636859961    
  0.29072776039481213    0.34339011174660106    0.4012787461954679    0.45313295979088586    0.4895354171418673    
  0.5069967377459939    0.5085976039996031    0.5012217587372175    0.49199984403104075    0.4861045948542706    
  0.4861045948542706    0.49199984403104075    0.5012217587372175    0.5085976039996032    0.5069967377459939    
  0.4895354171418673    0.45313295979088586    0.4012787461954678    0.34339011174660106    0.2907277603948121    
  0.38182937188823596    0.34339011174660106    0.3175821060407611    0.3085530490539495    0.31758210604076115    
  0.34339011174660106    0.38182937188823607    0.42567400132177513    0.4658889604620488    0.4946450806588395    
  0.508363001461921    0.5085976039996031    0.5003874253324968    0.48963999909005573    0.48120309068692263    
  0.4780612690570745    0.48120309068692263    0.48963999909005573    0.5003874253324967    0.5085976039996031    
  0.5083630014619211    0.4946450806588395    0.4658889604620488    0.425674001321775    0.38182937188823596    
  0.45526441164260945    0.425674001321775    0.40127874619546783    0.3876129533776982    0.3876129533776982    
  0.40127874619546783    0.42567400132177513    0.45526441164260945    0.4831143038184344    0.503057031627223    
  0.5118759976829705    0.5101286562117225    0.5012217587372175    0.48963999909005573    0.479469079893353    
  0.4736343029914826    0.47363430299148257    0.4794690798933532    0.48963999909005573    0.5012217587372174    
  0.5101286562117227    0.5118759976829705    0.5030570316272229    0.4831143038184345    0.45526441164260945    
  0.4999326159157308    0.4831143038184344    0.46588896046204886    0.4531329597908859    0.448445254206071    
  0.45313295979088586    0.4658889604620488    0.4831143038184345    0.4999326159157308    0.5117859614832885    
  0.5160080034453529    0.5125425593973839    0.5034930001811272    0.49199984403104086    0.48120309068692263    
  0.4736343029914826    0.4709232674365962    0.4736343029914826    0.48120309068692263    0.49199984403104063    
  0.5034930001811272    0.5125425593973839    0.5160080034453529    0.5117859614832884    0.4999326159157308    
  0.5177501452070228    0.5117859614832883    0.5030570316272229    0.4946450806588396    0.4895354171418672    
  0.4895354171418672    0.49464508065883944    0.5030570316272229    0.5117859614832884    0.5177501452070228    
  0.5188883426116713    0.5147896396225252    0.5065774700869022    0.49627242067283167    0.4861045948542706    
  0.4780612690570745    0.4736343029914826    0.4736343029914826    0.4780612690570745    0.4861045948542706    
  0.4962724206728316    0.5065774700869022    0.5147896396225251    0.5188883426116714    0.5177501452070228    
  0.5190216047904134    0.5188883426116714    0.5160080034453528    0.5118759976829707    0.508363001461921    
  0.5069967377459939    0.5083630014619211    0.5118759976829705    0.5160080034453529    0.5188883426116714    
  0.5190216047904134    0.5158064486098466    0.5096430839404917    0.5016659246372075    0.4933354328905381    
  0.4861045948542706    0.48120309068692263    0.4794690798933532    0.48120309068692263    0.4861045948542706    
  0.4933354328905381    0.5016659246372075    0.5096430839404917    0.5158064486098466    0.5190216047904134    
  0.5148839606969656    0.5158064486098466    0.5147896396225251    0.5125425593973839    0.5101286562117227    
  0.5085976039996032    0.5085976039996032    0.5101286562117227    0.5125425593973838    0.5147896396225252    
  0.5158064486098466    0.5148839606969657    0.511876613786433    0.5071994163409805    0.5016659246372075    
  0.4962724206728318    0.49199984403104075    0.48963999909005573    0.48963999909005573    0.49199984403104075    
  0.49627242067283167    0.5016659246372076    0.5071994163409805    0.511876613786433    0.5148839606969656    
  0.5126920916453706    0.511876613786433    0.5096430839404918    0.5065774700869022    0.5034930001811272    
  0.5012217587372174    0.5003874253324967    0.5012217587372175    0.5034930001811272    0.5065774700869022    
  0.5096430839404918    0.511876613786433    0.5126920916453706    0.511876613786433    0.5096430839404918    
  0.5065774700869022    0.5034930001811272    0.5012217587372175    0.5003874253324967    0.5012217587372174    
  0.5034930001811272    0.5065774700869022    0.5096430839404918    0.511876613786433    0.5126920916453706    
  0.5148839606969656    0.511876613786433    0.5071994163409805    0.5016659246372076    0.4962724206728318    
  0.49199984403104063    0.48963999909005573    0.48963999909005573    0.49199984403104063    0.49627242067283167    
  0.5016659246372075    0.5071994163409804    0.511876613786433    0.5148839606969656    0.5158064486098466    
  0.5147896396225252    0.5125425593973839    0.5101286562117227    0.5085976039996032    0.5085976039996032    
  0.5101286562117227    0.5125425593973838    0.5147896396225251    0.5158064486098465    0.5148839606969656    
  0.5190216047904134    0.5158064486098465    0.5096430839404917    0.5016659246372075    0.4933354328905381    
  0.4861045948542706    0.48120309068692263    0.47946907989335313    0.48120309068692263    0.4861045948542706    
  0.4933354328905381    0.5016659246372075    0.5096430839404917    0.5158064486098466    0.5190216047904134    
  0.5188883426116714    0.5160080034453529    0.5118759976829705    0.5083630014619211    0.5069967377459939    
  0.508363001461921    0.5118759976829705    0.5160080034453528    0.5188883426116714    0.5190216047904134    
  0.5177501452070228    0.5188883426116715    0.5147896396225252    0.5065774700869022    0.4962724206728318    
  0.4861045948542706    0.4780612690570745    0.4736343029914826    0.47363430299148257    0.4780612690570745    
  0.4861045948542706    0.49627242067283167    0.5065774700869022    0.5147896396225252    0.5188883426116713    
  0.5177501452070228    0.5117859614832885    0.503057031627223    0.4946450806588395    0.4895354171418673    
  0.4895354171418673    0.4946450806588395    0.5030570316272229    0.5117859614832885    0.5177501452070228    
  0.4999326159157308    0.5117859614832884    0.5160080034453528    0.5125425593973839    0.5034930001811272    
  0.49199984403104075    0.48120309068692263    0.4736343029914826    0.4709232674365962    0.4736343029914826    
  0.48120309068692263    0.49199984403104075    0.5034930001811272    0.5125425593973839    0.516008003445353    
  0.5117859614832885    0.4999326159157308    0.4831143038184345    0.4658889604620488    0.45313295979088586    
  0.448445254206071    0.4531329597908859    0.46588896046204886    0.4831143038184344    0.4999326159157308    
  0.45526441164260945    0.4831143038184344    0.503057031627223    0.5118759976829707    0.5101286562117227    
  0.5012217587372174    0.48963999909005573    0.4794690798933532    0.47363430299148257    0.4736343029914826    
  0.4794690798933532    0.4896399990900556    0.5012217587372175    0.5101286562117227    0.5118759976829705    
  0.5030570316272229    0.4831143038184345    0.45526441164260945    0.42567400132177513    0.4012787461954679    
  0.3876129533776982    0.3876129533776982    0.40127874619546783    0.425674001321775    0.45526441164260945    
  0.38182937188823596    0.425674001321775    0.4658889604620488    0.4946450806588395    0.5083630014619211    
  0.5085976039996032    0.5003874253324967    0.48963999909005573    0.48120309068692263    0.4780612690570745    
  0.48120309068692263    0.48963999909005573    0.5003874253324968    0.5085976039996032    0.508363001461921    
  0.4946450806588395    0.46588896046204886    0.42567400132177513    0.38182937188823607    0.34339011174660106    
  0.31758210604076115    0.3085530490539494    0.3175821060407611    0.34339011174660106    0.38182937188823596    
  0.2907277603948122    0.34339011174660106    0.40127874619546783    0.4531329597908859    0.4895354171418673    
  0.5069967377459939    0.5085976039996032    0.5012217587372175    0.49199984403104063    0.4861045948542706    
  0.4861045948542706    0.49199984403104075    0.5012217587372175    0.5085976039996032    0.5069967377459937    
  0.4895354171418673    0.4531329597908859    0.4012787461954679    0.34339011174660106    0.29072776039481224    
  0.2520305636859961    0.2319035294440567    0.23190352944405665    0.2520305636859961    0.2907277603948122    
  0.20151830843933388    0.252030563685996    0.3175821060407612    0.3876129533776982    0.448445254206071    
  0.4895354171418673    0.5083630014619211    0.5101286562117227    0.5034930001811272    0.49627242067283167    
  0.4933354328905381    0.49627242067283167    0.5034930001811272    0.5101286562117227    0.508363001461921    
  0.4895354171418673    0.448445254206071    0.3876129533776982    0.3175821060407612    0.2520305636859962    
  0.20151830843933388    0.1708202832118408    0.16066181505494642    0.17082028321184076    0.20151830843933388    
  0.13092134160187535    0.17082028321184076    0.2319035294440567    0.30855304905394954    0.3876129533776982    
  0.4531329597908859    0.4946450806588395    0.5118759976829705    0.5125425593973838    0.5065774700869022    
  0.5016659246372075    0.5016659246372075    0.5065774700869022    0.5125425593973839    0.5118759976829705    
  0.4946450806588395    0.4531329597908859    0.3876129533776982    0.3085530490539495    0.2319035294440567    
  0.17082028321184076    0.1309213416018754    0.11185923544576522    0.11185923544576527    0.13092134160187535    
  0.08506712244712339    0.11185923544576522    0.16066181505494642    0.2319035294440567    0.3175821060407611    
  0.4012787461954679    0.4658889604620488    0.5030570316272229    0.5160080034453529    0.5147896396225252    
  0.5096430839404918    0.5071994163409805    0.5096430839404917    0.5147896396225252    0.5160080034453529    
  0.5030570316272229    0.4658889604620488    0.4012787461954679    0.31758210604076126    0.2319035294440567    
  0.16066181505494648    0.11185923544576527    0.08506712244712339    0.07672640177039276    0.08506712244712339    
  0.061103485801118275    0.07672640177039268    0.11185923544576522    0.17082028321184084    0.2520305636859961    
  0.34339011174660106    0.42567400132177513    0.4831143038184345    0.5117859614832884    0.5188883426116715    
  0.5158064486098466    0.511876613786433    0.511876613786433    0.5158064486098466    0.5188883426116714    
  0.5117859614832884    0.4831143038184344    0.42567400132177513    0.34339011174660106    0.2520305636859962    
  0.1708202832118407    0.11185923544576531    0.07672640177039268    0.061103485801118324    0.061103485801118275    
  0.05387207208176216    0.06110348580111823    0.08506712244712335    0.13092134160187535    0.20151830843933385    
  0.29072776039481213    0.38182937188823607    0.45526441164260945    0.4999326159157308    0.5177501452070228    
  0.5190216047904134    0.5148839606969657    0.5126920916453706    0.5148839606969657    0.5190216047904134    
  0.5177501452070228    0.4999326159157308    0.45526441164260945    0.38182937188823607    0.29072776039481224    
  0.20151830843933385    0.13092134160187535    0.08506712244712335    0.061103485801118324    0.05387207208176216    
  0.07573791947866697    0.08393928021594393    0.11030288047357924    0.15837729789426339    0.22861576792184385    
  0.3130821916451134    0.39544974981074493    0.45872866217682073    0.4946978131947205    0.5066997598378077    
  0.504835502081014    0.4993307385692613    0.49677451423594926    0.4993307385692613    0.504835502081014    
  0.5066997598378077    0.4946978131947205    0.45872866217682073    0.39544974981074493    0.31308219164511353    
  0.2286157679218438    0.15837729789426339    0.11030288047357929    0.08393928021594399    0.07573791947866697    
  0.08393928021594393    0.08393928021594393    0.10124960662449388    0.13869238583909171    0.1985130506450485    
  0.27692203216583466    0.3611240368163686    0.43357790008117203    0.4814530527444682    0.5029936994693601    