#     DFTpy    
  CRYSTAL 
    
  PRIMVEC    
  1.6175074616175804    -2.8016051051434205    0.0    
  1.6175074616175804    2.8016051051434205    0.0    
  0.0    0.0    3.0446719711034502    
  PRIMCOORD    
  1    1    
  Si    0.0    0.0    0.0    
  BEGIN_BLOCK_DATAGRID_3D    
  3d_datagrid_density    
  BEGIN_DATAGRID_3D#0    
  33    33    31    
  0.0    0.0    0.0    
  1.617507467650914    -2.8016051155934614    0.0    
  1.617507467650914    2.8016051155934614    0.0    
  0.0    0.0    3.0446719824601347    
  0.0582836870062691    0.06602036944995476    0.09138593886329126    0.13837567841564002    0.20572182193106903    
  0.27998415465938253    0.33851949603098147    0.3634057156175531    0.35263265616001094    0.31773477739487144    
  0.2734344556757419    0.23032987156988627    0.19377661138524704    0.16568688469061668    0.1462598807966516    
  0.13499661582105316    0.13132272654566055    0.13499661582105316    0.1462598807966516    0.16568688469061668    
  0.19377661138524704    0.23032987156988627    0.2734344556757419    0.31773477739487144    0.35263265616001094    
  0.3634057156175531    0.33851949603098147    0.27998415465938253    0.20572182193106903    0.13837567841564002    
  0.09138593886329126    0.06602036944995476    0.0582836870062691    0.06602036944995475    0.06602036944995475    
  0.08261189508667197    0.11912640694847655    0.17729050181859232    0.249533593575195    0.3165946946296686    
  0.3570483007092784    0.3612796152069933    0.335531284405229    0.29403654369676024    0.24955650752166544    
  0.20963726865523113    0.17750928387479242    0.15400964743568762    0.1388847689841574    0.1315407569906178    
  0.1315407569906178    0.13888476898415736    0.15400964743568762    0.17750928387479242    0.20963726865523116    
  0.24955650752166544    0.29403654369676013    0.33553128440522906    0.3612796152069932    0.35704830070927845    
  0.3165946946296686    0.24953359357519506    0.17729050181859238    0.11912640694847657    0.08261189508667192    
  0.06602036944995475    0.09138593886329133    0.08261189508667197    0.09138593886329129    0.11912640694847657    
  0.16761252769461576    0.2327047191248205    0.29971739299459277    0.34804281310084095    0.36363799621573295    
  0.3471299226563876    0.3101532354295761    0.2660655855736499    0.2240950769859862    0.18879434124734942    
  0.16173816887306847    0.14302814578208678    0.1321703641722638    0.1286256385043592    0.13217036417226377    
  0.1430281457820868    0.16173816887306847    0.18879434124734934    0.22409507698598627    0.2660655855736499    
  0.310153235429576    0.34712992265638765    0.363637996215733    0.34804281310084095    0.29971739299459266    
  0.23270471912482055    0.16761252769461576    0.11912640694847655    0.09138593886329133    0.13837567841564002    
  0.11912640694847657    0.11912640694847657    0.13837567841564002    0.17729050181859232    0.23270471912482055    
  0.2934683691382581    0.3419285584276363    0.3630822178945242    0.35350034018323506    0.3213187518791138    
  0.2789066097118767    0.23621267943142438    0.19880455612897177    0.16895864274909478    0.14717154983752942    
  0.13313215959985275    0.1263009145636115    0.1263009145636115    0.13313215959985278    0.14717154983752942    
  0.16895864274909478    0.19880455612897174    0.23621267943142443    0.2789066097118767    0.32131875187911374    
  0.35350034018323506    0.3630822178945242    0.3419285584276364    0.293468369138258    0.23270471912482055    
  0.1772905018185924    0.13837567841564002    0.20572182193106908    0.17729050181859235    0.16761252769461582    
  0.1772905018185923    0.20572182193106903    0.249533593575195    0.29971739299459277    0.3419285584276363    
  0.362521057279167    0.35614722828296674    0.32771935983312195    0.28756063267047777    0.24526489671463542    
  0.2068638492251348    0.1751555934977329    0.15099623441224236    0.13428611682101915    0.12456023300157745    
  0.12137665699035351    0.12456023300157748    0.13428611682101912    0.15099623441224236    0.1751555934977329    
  0.20686384922513473    0.24526489671463542    0.28756063267047777    0.32771935983312184    0.35614722828296674    
  0.362521057279167    0.34192855842763636    0.2997173929945927    0.24953359357519506    0.20572182193106908    
  0.27998415465938253    0.24953359357519508    0.2327047191248205    0.23270471912482055    0.24953359357519506    
  0.27998415465938253    0.3165946946296686    0.34804281310084095    0.3630822178945242    0.35614722828296674    
  0.32978322093647044    0.2918794000789218    0.2508165147330592    0.21246814672243425    0.17987834419747561    
  0.15417248094134164    0.13544731607201058    0.12334613245516313    0.11743295317620231    0.11743295317620234    
  0.12334613245516315    0.13544731607201052    0.15417248094134167    0.1798783441974756    0.21246814672243422    
  0.2508165147330592    0.29187940007892177    0.32978322093647044    0.35614722828296674    0.3630822178945243    
  0.34804281310084095    0.3165946946296686    0.27998415465938253    0.3385194960309814    0.3165946946296686    
  0.29971739299459277    0.29346836913825813    0.29971739299459266    0.3165946946296686    0.33851949603098147    
  0.3570483007092784    0.363637996215733    0.35350034018323506    0.32771935983312195    0.2918794000789218    
  0.25268150430721525    0.21532790697682452    0.18281623498099836    0.15642879813534713    0.13642641070759393    
  0.1225661076434451    0.11445706053667845    0.11179144536213081    0.11445706053667846    0.1225661076434451    
  0.13642641070759395    0.1564287981353471    0.18281623498099836    0.2153279069768245    0.2526815043072153    
  0.2918794000789218    0.32771935983312184    0.3535003401832352    0.363637996215733    0.35704830070927845    
  0.3385194960309814    0.3634057156175532    0.35704830070927845    0.3480428131008409    0.34192855842763636    
  0.3419285584276363    0.34804281310084095    0.35704830070927845    0.3634057156175531    0.3612796152069933    
  0.3471299226563877    0.3213187518791138    0.28756063267047777    0.2508165147330592    0.21532790697682452    
  0.1838104436864648    0.15759419312999842    0.13707305706463127    0.12211829243993612    0.11240262141395824    
  0.10762619680196454    0.10762619680196452    0.11240262141395829    0.12211829243993617    0.13707305706463127    
  0.15759419312999842    0.18381044368646476    0.2153279069768245    0.2508165147330593    0.28756063267047777    
  0.3213187518791138    0.34712992265638765    0.36127961520699337    0.3634057156175532    0.35263265616001094    
  0.3612796152069933    0.36363799621573295    0.36308221789452433    0.362521057279167    0.3630822178945243    
  0.363637996215733    0.3612796152069933    0.35263265616001094    0.335531284405229    0.31015323542957607    
  0.2789066097118767    0.24526489671463542    0.21246814672243425    0.18281623498099836    0.15759419312999842    
  0.13729806950681053    0.12191807976354134    0.11120704740005402    0.10489616124657242    0.10281128606753578    
  0.10489616124657233    0.11120704740005402    0.12191807976354131    0.1372980695068105    0.15759419312999842    
  0.18281623498099836    0.21246814672243425    0.24526489671463542    0.2789066097118767    0.310153235429576    
  0.33553128440522906    0.35263265616001094    0.3177347773948715    0.33553128440522906    0.3471299226563876    
  0.3535003401832352    0.35614722828296674    0.35614722828296674    0.35350034018323506    0.3471299226563876    
  0.33553128440522906    0.31773477739487144    0.29403654369676024    0.26606558557364984    0.23621267943142438    
  0.2068638492251348    0.17987834419747561    0.15642879813534713    0.13707305706463127    0.12191807976354134    
  0.11081578576876248    0.10354934725110895    0.09995457524142409    0.09995457524142407    0.10354934725110894    
  0.1108157857687625    0.12191807976354134    0.13707305706463127    0.15642879813534713    0.17987834419747561    
  0.20686384922513476    0.2362126794314245    0.2660655855736499    0.29403654369676024    0.3177347773948715    
  0.2734344556757419    0.29403654369676024    0.31015323542957607    0.3213187518791138    0.32771935983312184    
  0.32978322093647044    0.32771935983312184    0.32131875187911374    0.310153235429576    0.29403654369676024    
  0.2734344556757419    0.24955650752166544    0.22409507698598627    0.19880455612897177    0.1751555934977329    
  0.15417248094134164    0.13642641070759393    0.12211829243993612    0.11120704740005402    0.10354934725110895    
  0.09900846298562015    0.09750310437658802    0.09900846298562015    0.10354934725110894    0.11120704740005402    
  0.12211829243993615    0.1364264107075939    0.15417248094134167    0.1751555934977329    0.19880455612897177    
  0.2240950769859862    0.2495565075216654    0.2734344556757419    0.23032987156988638    0.2495565075216654    
  0.26606558557364984    0.27890660971187675    0.2875606326704777    0.2918794000789218    0.2918794000789218    
  0.28756063267047777    0.2789066097118767    0.26606558557364984    0.2495565075216654    0.23032987156988632    
  0.20963726865523113    0.1887943412473494    0.1689586427490948    0.1509962344122423    0.13544731607201058    
  0.12256610764344508    0.11240262141395824    0.1048961612465724    0.09995457524142407    0.09750310437658798    
  0.09750310437658799    0.09995457524142404    0.10489616124657239    0.11240262141395824    0.12256610764344508    
  0.1354473160720106    0.15099623441224236    0.16895864274909486    0.18879434124734934    0.20963726865523113    
  0.23032987156988638    0.19377661138524713    0.2096372686552311    0.22409507698598627    0.23621267943142443    
  0.24526489671463542    0.25081651473305927    0.25268150430721525    0.2508165147330592    0.24526489671463542    
  0.23621267943142438    0.22409507698598627    0.20963726865523113    0.19377661138524704    0.17750928387479242    
  0.16173816887306847    0.14717154983752942    0.13428611682101915    0.12334613245516313    0.11445706053667845    
  0.10762619680196452    0.10281128606753578    0.09995457524142404    0.09900846298562012    0.09995457524142407    
  0.10281128606753577    0.1076261968019645    0.11445706053667845    0.12334613245516313    0.13428611682101915    
  0.14717154983752942    0.16173816887306847    0.17750928387479242    0.19377661138524713    0.16568688469061668    
  0.1775092838747924    0.18879434124734937    0.19880455612897177    0.2068638492251347    0.21246814672243425    
  0.2153279069768245    0.21532790697682444    0.21246814672243422    0.20686384922513473    0.19880455612897177    
  0.18879434124734934    0.17750928387479242    0.16568688469061668    0.15400964743568762    0.14302814578208675    
  0.13313215959985275    0.12456023300157743    0.11743295317620234    0.11179144536213079    0.10762619680196454    
  0.10489616124657239    0.10354934725110893    0.10354934725110894    0.10489616124657239    0.1076261968019645    
  0.11179144536213075    0.11743295317620235    0.12456023300157743    0.13313215959985278    0.14302814578208675    
  0.15400964743568762    0.16568688469061668    0.14625988079665164    0.15400964743568762    0.16173816887306847    
  0.16895864274909483    0.1751555934977329    0.17987834419747561    0.18281623498099836    0.1838104436864647    
  0.18281623498099836    0.17987834419747561    0.1751555934977329    0.16895864274909483    0.16173816887306847    
  0.15400964743568762    0.14625988079665161    0.13888476898415736    0.1321703641722638    0.12630091456361148    
  0.12137665699035351    0.11743295317620235    0.11445706053667845    0.11240262141395826    0.11120704740005402    
  0.11081578576876253    0.11120704740005402    0.11240262141395822    0.11445706053667842    0.11743295317620234    
  0.12137665699035355    0.1263009145636116    0.13217036417226374    0.1388847689841574    0.14625988079665164    
  0.13499661582105318    0.1388847689841574    0.14302814578208675    0.14717154983752948    0.1509962344122423    
  0.15417248094134167    0.15642879813534716    0.1575941931299984    0.15759419312999845    0.1564287981353471    
  0.15417248094134167    0.15099623441224236    0.14717154983752942    0.1430281457820868    0.1388847689841574    
  0.13499661582105316    0.1315407569906178    0.12862563850435924    0.12630091456361156    0.12456023300157748    
  0.12334613245516313    0.1225661076434451    0.12211829243993615    0.12191807976354134    0.12191807976354134    
  0.12211829243993609    0.1225661076434451    0.12334613245516315    0.12456023300157743    0.1263009145636116    
  0.1286256385043592    0.1315407569906178    0.13499661582105318    0.13132272654566055    0.13154075699061782    
  0.1321703641722638    0.13313215959985278    0.13428611682101915    0.1354473160720106    0.1364264107075939    
  0.13707305706463122    0.1372980695068105    0.13707305706463127    0.13642641070759393    0.13544731607201055    
  0.13428611682101915    0.13313215959985275    0.1321703641722638    0.1315407569906178    0.13132272654566055    
  0.1315407569906178    0.1321703641722638    0.13313215959985275    0.13428611682101915    0.13544731607201055    
  0.13642641070759393    0.13707305706463127    0.1372980695068105    0.13707305706463122    0.1364264107075939    
  0.1354473160720106    0.13428611682101915    0.13313215959985278    0.1321703641722638    0.13154075699061782    
  0.13132272654566055    0.13499661582105318    0.1315407569906178    0.1286256385043592    0.1263009145636116    
  0.12456023300157743    0.12334613245516315    0.1225661076434451    0.12211829243993609    0.12191807976354134    
  0.12191807976354134    0.12211829243993615    0.1225661076434451    0.12334613245516313    0.12456023300157748    
  0.12630091456361156    0.12862563850435924    0.1315407569906178    0.13499661582105316    0.1388847689841574    
  0.1430281457820868    0.14717154983752942    0.15099623441224236    0.15417248094134167    0.1564287981353471    
  0.15759419312999845    0.1575941931299984    0.15642879813534716    0.15417248094134167    0.1509962344122423    
  0.14717154983752948    0.14302814578208675    0.1388847689841574    0.13499661582105318    0.14625988079665164    
  0.1388847689841574    0.13217036417226374    0.1263009145636116    0.12137665699035355    0.11743295317620234    
  0.11445706053667842    0.11240262141395822    0.11120704740005402    0.11081578576876253    0.11120704740005402    
  0.11240262141395826    0.11445706053667845    0.11743295317620235    0.12137665699035351    0.12630091456361148    
  0.1321703641722638    0.13888476898415736    0.14625988079665161    0.15400964743568762    0.16173816887306847    
  0.16895864274909483    0.1751555934977329    0.17987834419747561    0.18281623498099836    0.1838104436864647    
  0.18281623498099836    0.17987834419747561    0.1751555934977329    0.16895864274909483    0.16173816887306847    
  0.15400964743568762    0.14625988079665164    0.16568688469061668    0.15400964743568762    0.14302814578208675    
  0.13313215959985278    0.12456023300157743    0.11743295317620235    0.11179144536213075    0.1076261968019645    
  0.10489616124657239    0.10354934725110894    0.10354934725110893    0.10489616124657239    0.10762619680196454    
  0.11179144536213079    0.11743295317620234    0.12456023300157743    0.13313215959985275    0.14302814578208675    
  0.15400964743568762    0.16568688469061668    0.17750928387479242    0.18879434124734934    0.19880455612897177    
  0.20686384922513473    0.21246814672243422    0.21532790697682444    0.2153279069768245    0.21246814672243425    
  0.2068638492251347    0.19880455612897177    0.18879434124734937    0.1775092838747924    0.16568688469061668    
  0.19377661138524713    0.17750928387479242    0.16173816887306847    0.14717154983752942    0.13428611682101915    
  0.12334613245516313    0.11445706053667845    0.1076261968019645    0.10281128606753577    0.09995457524142407    
  0.09900846298562012    0.09995457524142404    0.10281128606753578    0.10762619680196452    0.11445706053667845    
  0.12334613245516313    0.13428611682101915    0.14717154983752942    0.16173816887306847    0.17750928387479242    
  0.19377661138524704    0.20963726865523113    0.22409507698598627    0.23621267943142438    0.24526489671463542    
  0.2508165147330592    0.25268150430721525    0.25081651473305927    0.24526489671463542    0.23621267943142443    
  0.22409507698598627    0.2096372686552311    0.19377661138524713    0.23032987156988638    0.20963726865523113    
  0.18879434124734934    0.16895864274909486    0.15099623441224236    0.1354473160720106    0.12256610764344508    
  0.11240262141395824    0.10489616124657239    0.09995457524142404    0.09750310437658799    0.09750310437658798    
  0.09995457524142407    0.1048961612465724    0.11240262141395824    0.12256610764344508    0.13544731607201058    
  0.1509962344122423    0.1689586427490948    0.1887943412473494    0.20963726865523113    0.23032987156988632    
  0.2495565075216654    0.26606558557364984    0.2789066097118767    0.28756063267047777    0.2918794000789218    
  0.2918794000789218    0.2875606326704777    0.27890660971187675    0.26606558557364984    0.2495565075216654    
  0.23032987156988638    0.2734344556757419    0.2495565075216654    0.2240950769859862    0.19880455612897177    
  0.1751555934977329    0.15417248094134167    0.1364264107075939    0.12211829243993615    0.11120704740005402    
  0.10354934725110894    0.09900846298562015    0.09750310437658802    0.09900846298562015    0.10354934725110895    
  0.11120704740005402    0.12211829243993612    0.13642641070759393    0.15417248094134164    0.1751555934977329    
  0.19880455612897177    0.22409507698598627    0.24955650752166544    0.2734344556757419    0.29403654369676024    
  0.310153235429576    0.32131875187911374    0.32771935983312184    0.32978322093647044    0.32771935983312184    
  0.3213187518791138    0.31015323542957607    0.29403654369676024    0.2734344556757419    0.3177347773948715    
  0.29403654369676024    0.2660655855736499    0.2362126794314245    0.20686384922513476    0.17987834419747561    
  0.15642879813534713    0.13707305706463127    0.12191807976354134    0.1108157857687625    0.10354934725110894    
  0.09995457524142407    0.09995457524142409    0.10354934725110895    0.11081578576876248    0.12191807976354134    
  0.13707305706463127    0.15642879813534713    0.17987834419747561    0.2068638492251348    0.23621267943142438    
  0.26606558557364984    0.29403654369676024    0.31773477739487144    0.33553128440522906    0.3471299226563876    
  0.35350034018323506    0.35614722828296674    0.35614722828296674    0.3535003401832352    0.3471299226563876    
  0.33553128440522906    0.3177347773948715    0.35263265616001094    0.33553128440522906    0.310153235429576    
  0.2789066097118767    0.24526489671463542    0.21246814672243425    0.18281623498099836    0.15759419312999842    
  0.1372980695068105    0.12191807976354131    0.11120704740005402    0.10489616124657233    0.10281128606753578    
  0.10489616124657242    0.11120704740005402    0.12191807976354134    0.13729806950681053    0.15759419312999842    
  0.18281623498099836    0.21246814672243425    0.24526489671463542    0.2789066097118767    0.31015323542957607    
  0.335531284405229    0.35263265616001094    0.3612796152069933    0.363637996215733    0.3630822178945243    
  0.362521057279167    0.36308221789452433    0.36363799621573295    0.3612796152069933    0.35263265616001094    
  0.3634057156175532    0.36127961520699337    0.34712992265638765    0.3213187518791138    0.28756063267047777    
  0.2508165147330593    0.2153279069768245    0.18381044368646476    0.15759419312999842    0.13707305706463127    
  0.12211829243993617    0.11240262141395829    0.10762619680196452    0.10762619680196454    0.11240262141395824    
  0.12211829243993612    0.13707305706463127    0.15759419312999842    0.1838104436864648    0.21532790697682452    
  0.2508165147330592    0.28756063267047777    0.3213187518791138    0.3471299226563877    0.3612796152069933    
  0.3634057156175531    0.35704830070927845    0.34804281310084095    0.3419285584276363    0.34192855842763636    
  0.3480428131008409    0.35704830070927845    0.3634057156175532    0.3385194960309814    0.35704830070927845    
  0.363637996215733    0.3535003401832352    0.32771935983312184    0.2918794000789218    0.2526815043072153    
  0.2153279069768245    0.18281623498099836    0.1564287981353471    0.13642641070759395    0.1225661076434451    
  0.11445706053667846    0.11179144536213081    0.11445706053667845    0.1225661076434451    0.13642641070759393    
  0.15642879813534713    0.18281623498099836    0.21532790697682452    0.25268150430721525    0.2918794000789218    
  0.32771935983312195    0.35350034018323506    0.363637996215733    0.3570483007092784    0.33851949603098147    
  0.3165946946296686    0.29971739299459266    0.29346836913825813    0.29971739299459277    0.3165946946296686    
  0.3385194960309814    0.27998415465938253    0.3165946946296686    0.34804281310084095    0.3630822178945243    
  0.35614722828296674    0.32978322093647044    0.29187940007892177    0.2508165147330592    0.21246814672243422    
  0.1798783441974756    0.15417248094134167    0.13544731607201052    0.12334613245516315    0.11743295317620234    
  0.11743295317620231    0.12334613245516313    0.13544731607201058    0.15417248094134164    0.17987834419747561    
  0.21246814672243425    0.2508165147330592    0.2918794000789218    0.32978322093647044    0.35614722828296674    
  0.3630822178945242    0.34804281310084095    0.3165946946296686    0.27998415465938253    0.24953359357519506    
  0.23270471912482055    0.2327047191248205    0.24953359357519508    0.27998415465938253    0.20572182193106908    
  0.24953359357519506    0.2997173929945927    0.34192855842763636    0.362521057279167    0.35614722828296674    
  0.32771935983312184    0.28756063267047777    0.24526489671463542    0.20686384922513473    0.1751555934977329    
  0.15099623441224236    0.13428611682101912    0.12456023300157748    0.12137665699035351    0.12456023300157745    
  0.13428611682101915    0.15099623441224236    0.1751555934977329    0.2068638492251348    0.24526489671463542    
  0.28756063267047777    0.32771935983312195    0.35614722828296674    0.362521057279167    0.3419285584276363    
  0.29971739299459277    0.249533593575195    0.20572182193106903    0.1772905018185923    0.16761252769461582    
  0.17729050181859235    0.20572182193106908    0.13837567841564002    0.1772905018185924    0.23270471912482055    
  0.293468369138258    0.3419285584276364    0.3630822178945242    0.35350034018323506    0.32131875187911374    
  0.2789066097118767    0.23621267943142443    0.19880455612897174    0.16895864274909478    0.14717154983752942    
  0.13313215959985278    0.1263009145636115    0.1263009145636115    0.13313215959985275    0.14717154983752942    
  0.16895864274909478    0.19880455612897177    0.23621267943142438    0.2789066097118767    0.3213187518791138    
  0.35350034018323506    0.3630822178945242    0.3419285584276363    0.2934683691382581    0.23270471912482055    
  0.17729050181859232    0.13837567841564002    0.11912640694847657    0.11912640694847657    0.13837567841564002    
  0.09138593886329133    0.11912640694847655    0.16761252769461576    0.23270471912482055    0.29971739299459266    
  0.34804281310084095    0.363637996215733    0.34712992265638765    0.310153235429576    0.2660655855736499    
  0.22409507698598627    0.18879434124734934    0.16173816887306847    0.1430281457820868    0.13217036417226377    
  0.1286256385043592    0.1321703641722638    0.14302814578208678    0.16173816887306847    0.18879434124734942    
  0.2240950769859862    0.2660655855736499    0.3101532354295761    0.3471299226563876    0.36363799621573295    
  0.34804281310084095    0.29971739299459277    0.2327047191248205    0.16761252769461576    0.11912640694847657    
  0.09138593886329129    0.08261189508667197    0.09138593886329133    0.06602036944995475    0.08261189508667192    
  0.11912640694847657    0.17729050181859238    0.24953359357519506    0.3165946946296686    0.35704830070927845    
  0.3612796152069932    0.33553128440522906    0.29403654369676013    0.24955650752166544    0.20963726865523116    
  0.17750928387479242    0.15400964743568762    0.13888476898415736    0.1315407569906178    0.1315407569906178    
  0.1388847689841574    0.15400964743568762    0.17750928387479242    0.20963726865523113    0.24955650752166544    
  0.29403654369676024    0.335531284405229    0.3612796152069933    0.3570483007092784    0.3165946946296686    
  0.249533593575195    0.17729050181859232    0.11912640694847655    0.08261189508667197    0.06602036944995475    
  0.06602036944995475    0.0582836870062691    0.06602036944995476    0.09138593886329126    0.13837567841564002    
  0.20572182193106903    0.27998415465938253    0.33851949603098147    0.3634057156175531    0.35263265616001094    
  0.31773477739487144    0.2734344556757419    0.23032987156988627    0.19377661138524704    0.16568688469061668    
  0.1462598807966516    0.13499661582105316    0.13132272654566055    0.13499661582105316    0.1462598807966516    
  0.16568688469061668    0.19377661138524704    0.23032987156988627    0.2734344556757419    0.31773477739487144    
  0.35263265616001094    0.3634057156175531    0.33851949603098147    0.27998415465938253    0.20572182193106903    
  0.13837567841564002    0.09138593886329126    0.06602036944995476    0.0582836870062691    0.06622419855416982    
  0.07434965258905171    0.10063400313579149    0.14830237920071093    0.2150388584054536    0.286885819786799    
  0.3418617766183226    0.3634227903335344    0.35053871597604686    0.31482163933749296    0.27053144919203137    
  0.2277871362704462    0.19165870584450237    0.16393310765671448    0.1447666883080445    0.13365443931892246    
  0.13002933547278914    0.13365443931892246    0.1447666883080445    0.16393310765671448    0.19165870584450237    
  0.2277871362704462    0.27053144919203137    0.31482163933749296    0.35053871597604686    0.3634227903335344    
  0.3418617766183226    0.286885819786799    0.2150388584054536    0.14830237920071093    0.10063400313579149    
  0.07434965258905171    0.06622419855416982    0.07434965258905171    0.07434965258905166    0.09159623880936883    
  0.12890731268431482    0.18705861352159828    0.2576489309546434    0.32153223604161246    0.35842781445009775    
  0.3599650945410411    0.33285974492035525    0.2910637503422447    0.24682856161894176    0.20732561247268247    
  0.17559818026335622    0.15241031811282452    0.1374886433510771    0.13024245136734863    0.13024245136734863    
  0.13748864335107708    0.15241031811282457    0.1755981802633562    0.20732561247268252    0.24682856161894182    
  0.2910637503422446    0.33285974492035536    0.35996509454104103    0.35842781445009786    0.32153223604161246    
  0.2576489309546434    0.18705861352159833    0.12890731268431485    0.0915962388093688    0.07434965258905171    
  0.10063400313579154    0.09159623880936883    0.10063400313579154    0.12890731268431482    0.17747242709503672    
  0.24135663586883868    0.3056470025351064    0.3505053164939494    0.3631050021096594    0.3448114705520486    
  0.30721352415160247    0.2632150402205637    0.22161946811800795    0.1867351986434425    0.16003076277296938    
  0.14157127043793857    0.130858400198982    0.1273604516227503    0.13085840019898198    0.14157127043793863    
  0.16003076277296938    0.18673519864344243    0.22161946811800795    0.2632150402205637    0.3072135241516024    
  0.3448114705520486    0.36310500210965946    0.3505053164939494    0.3056470025351063    0.24135663586883874    
  0.17747242709503672    0.12890731268431485    0.10063400313579154    0.14830237920071093    0.12890731268431488    
  0.12890731268431482    0.14830237920071093    0.18705861352159828    0.24135663586883874    0.29972809618243207    
  0.3449804077810307    0.3631199100852446    0.35152498400270754    0.3184751604987295    0.27599604366148317    
  0.23361475731812678    0.1966190615313432    0.1671504431257886    0.14565260646697056    0.13180068678277407    
  0.12505948179791535    0.12505948179791535    0.13180068678277412    0.14565260646697062    0.16715044312578858    
  0.19661906153134318    0.23361475731812684    0.2759960436614831    0.31847516049872937    0.3515249840027076    
  0.36311991008524463    0.3449804077810308    0.29972809618243207    0.24135663586883874    0.18705861352159833    
  0.14830237920071093    0.2150388584054536    0.18705861352159828    0.17747242709503674    0.18705861352159828    
  0.2150388584054536    0.2576489309546434    0.3056470025351064    0.3449804077810307    0.3627667937878143    
  0.3543814045163664    0.3249719554793167    0.2846343620988559    0.24258879051100357    0.2045826526746498    
  0.17326286202026853    0.14942033088204504    0.13293308659443215    0.12333549817126109    0.12019327543907371    
  0.12333549817126115    0.13293308659443212    0.14942033088204504    0.17326286202026855    0.20458265267464976    
  0.24258879051100357    0.2846343620988559    0.3249719554793167    0.3543814045163664    0.3627667937878143    
  0.34498040778103073    0.3056470025351064    0.2576489309546434    0.2150388584054536    0.286885819786799    
  0.2576489309546434    0.24135663586883868    0.24135663586883874    0.2576489309546434    0.28688581978679895    
  0.32153223604161246    0.3505053164939494    0.3631199100852446    0.3543814045163664    0.3270754077934109    