#     DFTpy    
  CRYSTAL 
    
  PRIMVEC    
  1.0482171259644701    -1.8155653195342802    0.0    
  1.0482171259644701    1.8155653195342802    0.0    
  0.0    0.0    1.9730835120000005    
  PRIMCOORD    
  1    1    
  Si    0.0    0.0    0.0    
  BEGIN_BLOCK_DATAGRID_3D    
  3d_datagrid_density    
  BEGIN_DATAGRID_3D#0    
  21    21    21    
  0.0    0.0    0.0    
  1.04821712987434    -1.8155653263063736    0.0    
  1.04821712987434    1.8155653263063736    0.0    
  0.0    0.0    1.9730835193596397    
  0.04954314504992168    0.058723686439192804    0.09050477421761316    0.15477823793138373    0.25730427496378494    
  0.3870546671537435    0.5155766157914897    0.6145108480967095    0.6735045641478512    0.7002627086166734    
  0.7073366931840066    0.7002627086166734    0.6735045641478512    0.6145108480967095    0.5155766157914897    
  0.3870546671537435    0.25730427496378494    0.15477823793138373    0.09050477421761316    0.058723686439192804    
  0.04954314504992168    0.058723686439192804    0.058723686439192804    0.07924600186321781    0.12768466802736672    
  0.2125149544977433    0.33111440052149377    0.46212452732358883    0.5751942529927628    0.6510363192709246    
  0.6903032891334074    0.7050088812362907    0.7050088812362907    0.6903032891334075    0.6510363192709248    
  0.5751942529927628    0.46212452732358883    0.3311144005214939    0.21251495449774316    0.1276846680273668    
  0.07924600186321781    0.058723686439192804    0.09050477421761312    0.07924600186321787    0.09050477421761316    
  0.12768466802736672    0.19776314517919896    0.30188460616321994    0.425776127695175    0.5423654386603631    
  0.6282787565296569    0.6774837274637017    0.6989259931586309    0.7044147110680286    0.6989259931586309    
  0.6774837274637017    0.628278756529657    0.5423654386603631    0.4257761276951748    0.3018846061632201    
  0.197763145179199    0.12768466802736667    0.09050477421761312    0.15477823793138373    0.12768466802736658    
  0.12768466802736672    0.15477823793138376    0.21251495449774327    0.30188460616322005    0.4129915214349842    
  0.5238331390259617    0.6114358518653354    0.6656191990424912    0.6914297925870404    0.7003008724202635    
  0.7003008724202635    0.6914297925870403    0.6656191990424913    0.6114358518653354    0.5238331390259617    
  0.41299152143498424    0.3018846061632201    0.21251495449774313    0.15477823793138373    0.257304274963785    
  0.21251495449774313    0.19776314517919896    0.2125149544977432    0.25730427496378505    0.33111440052149377    
  0.425776127695175    0.5238331390259617    0.6052409228774529    0.6585182342962498    0.6853834365777259    
  0.6954072552220921    0.6976032977196048    0.6954072552220921    0.685383436577726    0.6585182342962498    
  0.6052409228774529    0.5238331390259617    0.4257761276951748    0.33111440052149366    0.257304274963785    
  0.3870546671537435    0.33111440052149377    0.30188460616321994    0.30188460616322005    0.3311144005214938    
  0.3870546671537435    0.4621245273235889    0.542365438660363    0.6114358518653354    0.6585182342962498    
  0.6830782050100586    0.6922382026031563    0.6943466048242509    0.6943466048242509    0.6922382026031565    
  0.6830782050100586    0.6585182342962499    0.6114358518653354    0.542365438660363    0.46212452732358883    
  0.3870546671537435    0.5155766157914897    0.46212452732358883    0.4257761276951748    0.4129915214349842    
  0.4257761276951748    0.4621245273235889    0.5155766157914897    0.5751942529927628    0.6282787565296569    
  0.6656191990424911    0.6853834365777259    0.6922382026031563    0.6929797290394234    0.6926454459079594    
  0.6929797290394235    0.6922382026031565    0.6853834365777259    0.6656191990424913    0.6282787565296569    
  0.5751942529927628    0.5155766157914897    0.6145108480967096    0.5751942529927628    0.5423654386603631    
  0.5238331390259617    0.5238331390259617    0.542365438660363    0.5751942529927628    0.6145108480967096    
  0.6510363192709248    0.6774837274637019    0.6914297925870404    0.6954072552220921    0.694346604824251    
  0.6926454459079594    0.6926454459079594    0.6943466048242509    0.6954072552220921    0.6914297925870404    
  0.6774837274637018    0.6510363192709248    0.6145108480967096    0.6735045641478511    0.6510363192709246    
  0.6282787565296569    0.6114358518653356    0.6052409228774528    0.6114358518653353    0.628278756529657    
  0.6510363192709246    0.6735045641478511    0.6903032891334074    0.6989259931586309    0.7003008724202635    
  0.6976032977196048    0.6943466048242509    0.6929797290394235    0.6943466048242508    0.6976032977196048    
  0.7003008724202636    0.6989259931586308    0.6903032891334074    0.6735045641478511    0.7002627086166734    
  0.6903032891334075    0.6774837274637017    0.6656191990424912    0.6585182342962497    0.6585182342962499    
  0.6656191990424912    0.6774837274637019    0.6903032891334077    0.7002627086166734    0.7050088812362907    
  0.7044147110680288    0.7003008724202636    0.6954072552220921    0.6922382026031565    0.6922382026031563    
  0.6954072552220921    0.7003008724202634    0.7044147110680286    0.7050088812362908    0.7002627086166734    
  0.7073366931840068    0.7050088812362908    0.6989259931586309    0.6914297925870405    0.6853834365777259    
  0.6830782050100586    0.6853834365777259    0.6914297925870404    0.6989259931586309    0.7050088812362907    
  0.7073366931840066    0.7050088812362907    0.6989259931586309    0.6914297925870404    0.6853834365777259    
  0.6830782050100586    0.6853834365777259    0.6914297925870405    0.6989259931586309    0.7050088812362908    
  0.7073366931840068    0.7002627086166734    0.7050088812362908    0.7044147110680286    0.7003008724202634    
  0.6954072552220921    0.6922382026031563    0.6922382026031565    0.6954072552220921    0.7003008724202636    
  0.7044147110680288    0.7050088812362907    0.7002627086166734    0.6903032891334077    0.6774837274637019    
  0.6656191990424912    0.6585182342962499    0.6585182342962497    0.6656191990424912    0.6774837274637017    
  0.6903032891334075    0.7002627086166734    0.6735045641478511    0.6903032891334074    0.6989259931586308    
  0.7003008724202636    0.6976032977196048    0.6943466048242508    0.6929797290394235    0.6943466048242509    
  0.6976032977196048    0.7003008724202635    0.6989259931586309    0.6903032891334074    0.6735045641478511    
  0.6510363192709246    0.628278756529657    0.6114358518653353    0.6052409228774528    0.6114358518653356    
  0.6282787565296569    0.6510363192709246    0.6735045641478511    0.6145108480967096    0.6510363192709248    
  0.6774837274637018    0.6914297925870404    0.6954072552220921    0.6943466048242509    0.6926454459079594    
  0.6926454459079594    0.694346604824251    0.6954072552220921    0.6914297925870404    0.6774837274637019    
  0.6510363192709248    0.6145108480967096    0.5751942529927628    0.542365438660363    0.5238331390259617    
  0.5238331390259617    0.5423654386603631    0.5751942529927628    0.6145108480967096    0.5155766157914897    
  0.5751942529927628    0.6282787565296569    0.6656191990424913    0.6853834365777259    0.6922382026031565    
  0.6929797290394235    0.6926454459079594    0.6929797290394234    0.6922382026031563    0.6853834365777259    
  0.6656191990424911    0.6282787565296569    0.5751942529927628    0.5155766157914897    0.4621245273235889    
  0.4257761276951748    0.4129915214349842    0.4257761276951748    0.46212452732358883    0.5155766157914897    
  0.3870546671537435    0.46212452732358883    0.542365438660363    0.6114358518653354    0.6585182342962499    
  0.6830782050100586    0.6922382026031565    0.6943466048242509    0.6943466048242509    0.6922382026031563    
  0.6830782050100586    0.6585182342962498    0.6114358518653354    0.542365438660363    0.4621245273235889    
  0.3870546671537435    0.3311144005214938    0.30188460616322005    0.30188460616321994    0.33111440052149377    
  0.3870546671537435    0.257304274963785    0.33111440052149366    0.4257761276951748    0.5238331390259617    
  0.6052409228774529    0.6585182342962498    0.685383436577726    0.6954072552220921    0.6976032977196048    
  0.6954072552220921    0.6853834365777259    0.6585182342962498    0.6052409228774529    0.5238331390259617    
  0.425776127695175    0.33111440052149377    0.25730427496378505    0.2125149544977432    0.19776314517919896    
  0.21251495449774313    0.257304274963785    0.15477823793138373    0.21251495449774313    0.3018846061632201    
  0.41299152143498424    0.5238331390259617    0.6114358518653354    0.6656191990424913    0.6914297925870403    
  0.7003008724202635    0.7003008724202635    0.6914297925870404    0.6656191990424912    0.6114358518653354    
  0.5238331390259617    0.4129915214349842    0.30188460616322005    0.21251495449774327    0.15477823793138376    
  0.12768466802736672    0.12768466802736658    0.15477823793138373    0.09050477421761312    0.12768466802736667    
  0.197763145179199    0.3018846061632201    0.4257761276951748    0.5423654386603631    0.628278756529657    
  0.6774837274637017    0.6989259931586309    0.7044147110680286    0.6989259931586309    0.6774837274637017    
  0.6282787565296569    0.5423654386603631    0.425776127695175    0.30188460616321994    0.19776314517919896    
  0.12768466802736672    0.09050477421761316    0.07924600186321787    0.09050477421761312    0.058723686439192804    
  0.07924600186321781    0.1276846680273668    0.21251495449774316    0.3311144005214939    0.46212452732358883    
  0.5751942529927628    0.6510363192709248    0.6903032891334075    0.7050088812362907    0.7050088812362907    
  0.6903032891334074    0.6510363192709246    0.5751942529927628    0.46212452732358883    0.33111440052149377    
  0.2125149544977433    0.12768466802736672    0.07924600186321781    0.058723686439192804    0.058723686439192804    
  0.04954314504992168    0.058723686439192804    0.09050477421761316    0.15477823793138373    0.25730427496378494    
  0.3870546671537435    0.5155766157914897    0.6145108480967095    0.6735045641478512    0.7002627086166734    
  0.7073366931840066    0.7002627086166734    0.6735045641478512    0.6145108480967095    0.5155766157914897    
  0.3870546671537435    0.25730427496378494    0.15477823793138373    0.09050477421761316    0.058723686439192804    
  0.04954314504992168    0.058349566225517784    0.06813993359344082    0.1014607220628261    0.16719848140884835    
  0.2695343468319884    0.3963644206560778    0.5198001042788734    0.6133254429006654    0.668201795413112    
  0.6926514367061453    0.6990159271312385    0.6926514367061453    0.668201795413112    0.6133254429006654    
  0.5198001042788734    0.3963644206560778    0.2695343468319884    0.16719848140884835    0.1014607220628261    
  0.06813993359344082    0.058349566225517784    0.06813993359344082    0.06813993359344082    0.08974063530523202    
  0.1396905618444235    0.22511812156457892    0.3419888517805184    0.46872184136511996    0.5763395758163268    
  0.6473946659125275    0.683546361211775    0.6968324413453327    0.6968324413453326    0.6835463612117751    
  0.6473946659125275    0.5763395758163268    0.46872184136511996    0.3419888517805184    0.22511812156457878    
  0.1396905618444236    0.08974063530523202    0.06813993359344082    0.10146072206282604    0.08974063530523207    
  0.1014607220628261    0.1396905618444235    0.2104006265078404    0.3134092142759601    0.43379813878958223    
  0.5452861854226219    0.6261726039612185    0.6717010639921001    0.6911229444714417    0.6959953852103749    
  0.6911229444714417    0.6717010639921001    0.6261726039612188    0.5452861854226219    0.4337981387895821    
  0.31340921427596014    0.21040062650784044    0.13969056184442347    0.10146072206282604    0.16719848140884835    
  0.13969056184442336    0.1396905618444235    0.1671984814088484    0.22511812156457886    0.3134092142759601    
  0.42147859772530766    0.5276982922929427    0.6104046229171937    0.660684011626063    0.6840794255913941    
  0.6918732945268122    0.6918732945268122    0.684079425591394    0.6606840116260633    0.6104046229171937    
  0.5276982922929428    0.42147859772530766    0.31340921427596014    0.22511812156457872    0.16719848140884835    
  0.2695343468319885    0.22511812156457872    0.2104006265078403    0.22511812156457886    0.26953434683198857    
  0.34198885178051835    0.43379813878958223    0.5276982922929428    0.6045943776090261    0.6540739717698986    
  0.6783921964153892    0.6870696123580943    0.6888589537322535    0.6870696123580942    0.6783921964153893    
  0.6540739717698986    0.6045943776090261    0.5276982922929427    0.4337981387895821    0.34198885178051824    
  0.2695343468319885    0.3963644206560778    0.3419888517805184    0.3134092142759601    0.3134092142759601    
  0.3419888517805184    0.3963644206560778    0.4687218413651201    0.5452861854226217    0.6104046229171937    
  0.6540739717698986    0.6762224750314467    0.6839748129585764    0.685463472556361    0.685463472556361    
  0.6839748129585765    0.6762224750314467    0.6540739717698986    0.6104046229171937    0.5452861854226219    
  0.46872184136511996    0.3963644206560778    0.5198001042788734    0.46872184136511996    0.4337981387895821    
  0.4214785977253076    0.433798138789582    0.46872184136511996    0.5198001042788732    0.5763395758163268    
  0.6261726039612187    0.660684011626063    0.6783921964153892    0.6839748129585764    0.6840578614842614    
  0.6835227286011689    0.6840578614842615    0.6839748129585765    0.6783921964153891    0.6606840116260633    
  0.6261726039612185    0.5763395758163268    0.5198001042788734    0.6133254429006655    0.5763395758163268    
  0.5452861854226219    0.5276982922929428    0.5276982922929428    0.5452861854226217    0.5763395758163268    
  0.6133254429006655    0.6473946659125275    0.6717010639921002    0.6840794255913941    0.6870696123580942    
  0.6854634725563611    0.6835227286011689    0.6835227286011689    0.685463472556361    0.6870696123580942    
  0.6840794255913941    0.6717010639921002    0.6473946659125275    0.6133254429006655    0.6682017954131119    
  0.6473946659125274    0.6261726039612185    0.6104046229171938    0.604594377609026    0.6104046229171936    
  0.6261726039612188    0.6473946659125274    0.6682017954131118    0.683546361211775    0.6911229444714417    
  0.6918732945268123    0.6888589537322535    0.685463472556361    0.6840578614842615    0.685463472556361    
  0.6888589537322535    0.6918732945268123    0.6911229444714417    0.683546361211775    0.6682017954131119    
  0.6926514367061453    0.6835463612117751    0.6717010639921001    0.660684011626063    0.6540739717698985    
  0.6540739717698986    0.6606840116260632    0.6717010639921002    0.6835463612117751    0.6926514367061454    
  0.6968324413453327    0.695995385210375    0.6918732945268123    0.6870696123580942    0.6839748129585765    
  0.6839748129585764    0.6870696123580942    0.6918732945268122    0.6959953852103747    0.6968324413453327    
  0.6926514367061453    0.6990159271312387    0.6968324413453327    0.6911229444714418    0.6840794255913941    
  0.6783921964153891    0.6762224750314467    0.6783921964153892    0.6840794255913941    0.6911229444714417    
  0.6968324413453327    0.6990159271312385    0.6968324413453327    0.6911229444714417    0.6840794255913941    
  0.6783921964153892    0.6762224750314467    0.6783921964153891    0.6840794255913941    0.6911229444714418    
  0.6968324413453327    0.6990159271312387    0.6926514367061453    0.6968324413453327    0.6959953852103747    
  0.6918732945268122    0.6870696123580942    0.6839748129585764    0.6839748129585765    0.6870696123580942    
  0.6918732945268123    0.695995385210375    0.6968324413453327    0.6926514367061454    0.6835463612117751    
  0.6717010639921002    0.6606840116260632    0.6540739717698986    0.6540739717698985    0.660684011626063    
  0.6717010639921001    0.6835463612117751    0.6926514367061453    0.6682017954131119    0.683546361211775    
  0.6911229444714417    0.6918732945268123    0.6888589537322535    0.685463472556361    0.6840578614842615    
  0.685463472556361    0.6888589537322535    0.6918732945268123    0.6911229444714417    0.683546361211775    
  0.6682017954131118    0.6473946659125274    0.6261726039612188    0.6104046229171936    0.604594377609026    
  0.6104046229171938    0.6261726039612185    0.6473946659125274    0.6682017954131119    0.6133254429006655    
  0.6473946659125275    0.6717010639921002    0.6840794255913941    0.6870696123580942    0.685463472556361    
  0.6835227286011689    0.6835227286011689    0.6854634725563611    0.6870696123580942    0.6840794255913941    
  0.6717010639921002    0.6473946659125275    0.6133254429006655    0.5763395758163268    0.5452861854226217    
  0.5276982922929428    0.5276982922929428    0.5452861854226219    0.5763395758163268    0.6133254429006655    
  0.5198001042788734    0.5763395758163268    0.6261726039612185    0.6606840116260633    0.6783921964153891    
  0.6839748129585765    0.6840578614842615    0.6835227286011689    0.6840578614842614    0.6839748129585764    
  0.6783921964153892    0.660684011626063    0.6261726039612187    0.5763395758163268    0.5198001042788732    
  0.46872184136511996    0.433798138789582    0.4214785977253076    0.4337981387895821    0.46872184136511996    
  0.5198001042788734    0.3963644206560778    0.46872184136511996    0.5452861854226219    0.6104046229171937    
  0.6540739717698986    0.6762224750314467    0.6839748129585765    0.685463472556361    0.685463472556361    
  0.6839748129585764    0.6762224750314467    0.6540739717698986    0.6104046229171937    0.5452861854226217    
  0.4687218413651201    0.3963644206560778    0.3419888517805184    0.3134092142759601    0.3134092142759601    
  0.3419888517805184    0.3963644206560778    0.2695343468319885    0.34198885178051824    0.4337981387895821    
  0.5276982922929427    0.6045943776090261    0.6540739717698986    0.6783921964153893    0.6870696123580942    
  0.6888589537322535    0.6870696123580943    0.6783921964153892    0.6540739717698986    0.6045943776090261    
  0.5276982922929428    0.43379813878958223    0.34198885178051835    0.26953434683198857    0.22511812156457886    
  0.2104006265078403    0.22511812156457872    0.2695343468319885    0.16719848140884835    0.22511812156457872    
  0.31340921427596014    0.42147859772530766    0.5276982922929428    0.6104046229171937    0.6606840116260633    
  0.684079425591394    0.6918732945268122    0.6918732945268122    0.6840794255913941    0.660684011626063    
  0.6104046229171937    0.5276982922929427    0.42147859772530766    0.3134092142759601    0.22511812156457886    
  0.1671984814088484    0.1396905618444235    0.13969056184442336    0.16719848140884835    0.10146072206282604    
  0.13969056184442347    0.21040062650784044    0.31340921427596014    0.4337981387895821    0.5452861854226219    
  0.6261726039612188    0.6717010639921001    0.6911229444714417    0.6959953852103749    0.6911229444714417    
  0.6717010639921001    0.6261726039612185    0.5452861854226219    0.43379813878958223    0.3134092142759601    
  0.2104006265078404    0.1396905618444235    0.1014607220628261    0.08974063530523207    0.10146072206282604    
  0.06813993359344082    0.08974063530523202    0.1396905618444236    0.22511812156457878    0.3419888517805184    
  0.46872184136511996    0.5763395758163268    0.6473946659125275    0.6835463612117751    0.6968324413453326    
  0.6968324413453327    0.683546361211775    0.6473946659125275    0.5763395758163268    0.46872184136511996    
  0.3419888517805184    0.22511812156457892    0.1396905618444235    0.08974063530523202    0.06813993359344082    
  0.06813993359344082    0.058349566225517784    0.06813993359344082    0.1014607220628261    0.16719848140884835    
  0.2695343468319884    0.3963644206560778    0.5198001042788734    0.6133254429006654    0.668201795413112    
  0.6926514367061453    0.6990159271312385    0.6926514367061453    0.668201795413112    0.6133254429006654    
  0.5198001042788734    0.3963644206560778    0.2695343468319884    0.16719848140884835    0.1014607220628261    
  0.06813993359344082    0.058349566225517784    0.0888008030841235    0.10016159354516344    0.1372338418058791    
  0.2058692172593968    0.3059748288049825    0.4230246041348858    0.5312477334120408    0.6093343033950035    
  0.652745561492364    0.670850241311787    0.6752751851778174    0.670850241311787    0.652745561492364    
  0.6093343033950035    0.5312477334120408    0.4230246041348858    0.3059748288049825    0.2058692172593968    
  0.1372338418058791    0.10016159354516344    0.0888008030841235    0.10016159354516344    0.10016159354516344    
  0.12442923196095408    0.17770288164869266    0.2632995313283335    0.37364155708794833    0.48713499522978737    
  0.5789240436639709    0.636520634276642    0.6640655498792135    0.6734628125989337    0.6734628125989337    
  0.6640655498792136    0.6365206342766421    0.578924043663971    0.48713499522978726    0.3736415570879484    
  0.26329953132833345    0.17770288164869272    0.12442923196095408    0.10016159354516344    0.1372338418058791    
  0.12442923196095418    0.1372338418058791    0.17770288164869266    0.24892281008056305    0.34724551094954637    
  0.45647160101016904    0.5529203573389012    0.6195379165510206    0.6548476477070616    0.6687151300259744    
  0.6719005716978543    0.6687151300259744    0.6548476477070616    0.6195379165510208    0.5529203573389012    
  0.45647160101016887    0.34724551094954653    0.24892281008056316    0.17770288164869258    0.1372338418058791    
  0.2058692172593968    0.17770288164869255    0.17770288164869266    0.20586921725939686    0.2632995313283335    
  0.3472455109495464    0.44556029044968687    0.5380366113974039    0.6067447411445045    0.6461126830566801    
  0.6628410672115692    0.667677288275268    0.667677288275268    0.6628410672115691    0.6461126830566802    
  0.6067447411445045    0.5380366113974039    0.445560290449687    0.3472455109495465    0.26329953132833334    
  0.2058692172593968    0.30597482880498256    0.26329953132833334    0.24892281008056305    0.2632995313283335    
  0.3059748288049828    0.37364155708794833    0.45647160101016904    0.538036611397404    0.6020010176257463    
  0.6408251263511862    0.6580843761107008    0.6630504461891895    0.6637200875243631    0.6630504461891894    
  0.6580843761107009    0.6408251263511863    0.6020010176257464    0.5380366113974039    0.45647160101016887    
  0.3736415570879482    0.30597482880498256    0.4230246041348858    0.37364155708794833    0.34724551094954637    
  0.3472455109495464    0.3736415570879484    0.4230246041348858    0.48713499522978737    0.5529203573389011    
  0.6067447411445045    0.6408251263511862    0.6562664378301621    0.6601195068669551    0.6598914195657591    
  0.659891419565759    0.6601195068669552    0.6562664378301621    0.6408251263511863    0.6067447411445045    
  0.5529203573389011    0.48713499522978726    0.4230246041348858    0.5312477334120408    0.48713499522978726    
  0.456471601010169    0.44556029044968687    0.45647160101016887    0.48713499522978737    0.5312477334120407    
  0.5789240436639709    0.6195379165510208    0.6461126830566801    0.6580843761107008    0.6601195068669551    
  0.6583608574695843    0.6572622210225566    0.6583608574695845    0.6601195068669552    0.6580843761107008    
  0.6461126830566802    0.6195379165510206    0.5789240436639711    0.5312477334120408    0.6093343033950036    
  0.5789240436639709    0.5529203573389012    0.538036611397404    0.538036611397404    0.5529203573389012    
  0.5789240436639709    0.6093343033950036    0.636520634276642    0.6548476477070618    0.6628410672115692    
  0.6630504461891894    0.6598914195657591    0.6572622210225566    0.6572622210225566    0.6598914195657591    
  0.6630504461891894    0.6628410672115692    0.6548476477070617    0.6365206342766421    0.6093343033950036    
  0.6527455614923638    0.636520634276642    0.6195379165510206    0.6067447411445046    0.6020010176257463    
  0.6067447411445044    0.6195379165510208    0.636520634276642    0.6527455614923638    0.6640655498792135    
  0.6687151300259744    0.6676772882752681    0.6637200875243631    0.6598914195657591    0.6583608574695843    
  0.659891419565759    0.663720087524363    0.667677288275268    0.6687151300259744    0.6640655498792135    
  0.6527455614923638    0.670850241311787    0.6640655498792136    0.6548476477070616    0.6461126830566801    
  0.6408251263511862    0.6408251263511863    0.6461126830566801    0.6548476477070618    0.6640655498792136    
  0.6708502413117872    0.6734628125989337    0.6719005716978546    0.667677288275268    0.6630504461891894    
  0.6601195068669552    0.6601195068669551    0.6630504461891894    0.667677288275268    0.6719005716978542    
  0.6734628125989337    0.670850241311787    0.6752751851778175    0.6734628125989337    0.6687151300259744    
  0.6628410672115692    0.6580843761107007    0.656266437830162    0.6580843761107008    0.6628410672115692    
  0.6687151300259744    0.6734628125989337    0.6752751851778174    0.6734628125989337    0.6687151300259744    
  0.6628410672115692    0.6580843761107008    0.656266437830162    0.6580843761107007    0.6628410672115692    
  0.6687151300259744    0.6734628125989337    0.6752751851778175    0.670850241311787    0.6734628125989337    
  0.6719005716978542    0.667677288275268    0.6630504461891894    0.6601195068669551    0.6601195068669552    
  0.6630504461891894    0.667677288275268    0.6719005716978546    0.6734628125989337    0.6708502413117872    
  0.6640655498792136    0.6548476477070618    0.6461126830566801    0.6408251263511863    0.6408251263511862    
  0.6461126830566801    0.6548476477070616    0.6640655498792136    0.670850241311787    0.6527455614923638    
  0.6640655498792135    0.6687151300259744    0.667677288275268    0.663720087524363    0.659891419565759    
  0.6583608574695843    0.6598914195657591    0.6637200875243631    0.6676772882752681    0.6687151300259744    
  0.6640655498792135    0.6527455614923638    0.636520634276642    0.6195379165510208    0.6067447411445044    
  0.6020010176257463    0.6067447411445046    0.6195379165510206    0.636520634276642    0.6527455614923638    
  0.6093343033950036    0.6365206342766421    0.6548476477070617    0.6628410672115692    0.6630504461891894    
  0.6598914195657591    0.6572622210225566    0.6572622210225566    0.6598914195657591    0.6630504461891894    
  0.6628410672115692    0.6548476477070618    0.636520634276642    0.6093343033950036    0.5789240436639709    
  0.5529203573389012    0.538036611397404    0.538036611397404    0.5529203573389012    0.5789240436639709    
  0.6093343033950036    0.5312477334120408    0.5789240436639711    0.6195379165510206    0.6461126830566802    
  0.6580843761107008    0.6601195068669552    0.6583608574695845    0.6572622210225566    0.6583608574695843    
  0.6601195068669551    0.6580843761107008    0.6461126830566801    0.6195379165510208    0.5789240436639709    
  0.5312477334120407    0.48713499522978737    0.45647160101016887    0.44556029044968687    0.456471601010169    
  0.48713499522978726    0.5312477334120408    0.4230246041348858    0.48713499522978726    0.5529203573389011    
  0.6067447411445045    0.6408251263511863    0.6562664378301621    0.6601195068669552    0.659891419565759    
  0.6598914195657591    0.6601195068669551    0.6562664378301621    0.6408251263511862    0.6067447411445045    
  0.5529203573389011    0.48713499522978737    0.4230246041348858    0.3736415570879484    0.3472455109495464    
  0.34724551094954637    0.37364155708794833    0.4230246041348858    0.30597482880498256    0.3736415570879482    
  0.45647160101016887    0.5380366113974039    0.6020010176257464    0.6408251263511863    0.6580843761107009    
  0.6630504461891894    0.6637200875243631    0.6630504461891895    0.6580843761107008    0.6408251263511862    
  0.6020010176257463    0.538036611397404    0.45647160101016904    0.37364155708794833    0.3059748288049828    
  0.2632995313283335    0.24892281008056305    0.26329953132833334    0.30597482880498256    0.2058692172593968    
  0.26329953132833334    0.3472455109495465    0.445560290449687    0.5380366113974039    0.6067447411445045    
  0.6461126830566802    0.6628410672115691    0.667677288275268    0.667677288275268    0.6628410672115692    
  0.6461126830566801    0.6067447411445045    0.5380366113974039    0.44556029044968687    0.3472455109495464    
  0.2632995313283335    0.20586921725939686    0.17770288164869266    0.17770288164869255    0.2058692172593968    
  0.1372338418058791    0.17770288164869258    0.24892281008056316    0.34724551094954653    0.45647160101016887    
  0.5529203573389012    0.6195379165510208    0.6548476477070616    0.6687151300259744    0.6719005716978543    
  0.6687151300259744    0.6548476477070616    0.6195379165510206    0.5529203573389012    0.45647160101016904    
  0.34724551094954637    0.24892281008056305    0.17770288164869266    0.1372338418058791    0.12442923196095418    
  0.1372338418058791    0.10016159354516344    0.12442923196095408    0.17770288164869272    0.26329953132833345    
  0.3736415570879484    0.48713499522978726    0.578924043663971    0.6365206342766421    0.6640655498792136    
  0.6734628125989337    0.6734628125989337    0.6640655498792135    0.636520634276642    0.5789240436639709    