#     DFTpy    
  CRYSTAL 
    
  PRIMVEC    
  1.2108715075796401    -2.0972909725654603    0.0    
  1.2108715075796401    2.0972909725654603    0.0    
  0.0    0.0    2.2792516431724104    
  PRIMCOORD    
  1    1    
  Si    0.0    0.0    0.0    
  BEGIN_BLOCK_DATAGRID_3D    
  3d_datagrid_density    
  BEGIN_DATAGRID_3D#0    
  25    25    25    
  0.0    0.0    0.0    
  1.210871512096214    -2.0972909803883955    0.0    
  1.210871512096214    2.0972909803883955    0.0    
  0.0    0.0    2.279251651674062    
  0.04754059575909506    0.05484532089248761    0.07942629451705599    0.12716779937711484    0.20045741948235055    
  0.2901336184327029    0.3754472815462789    0.4358736511601313    0.46393823480760504    0.46668598937474726    
  0.4574138550204464    0.4475373456367517    0.4435806832413024    0.4475373456367517    0.4574138550204464    
  0.46668598937474726    0.46393823480760504    0.43587365116013144    0.3754472815462789    0.2901336184327029    
  0.20045741948235055    0.12716779937711484    0.07942629451705599    0.05484532089248761    0.04754059575909506    
  0.05484532089248761    0.0548453208924877    0.07082047059175663    0.10727306415283791    0.1687347061926918    
  0.25178151007929045    0.34041205718726886    0.41269663660377426    0.45454656791337245    0.4669389234167222    
  0.46125819023508435    0.45027106445486376    0.4427672039641839    0.4427672039641839    0.45027106445486365    
  0.4612581902350843    0.46693892341672233    0.45454656791337233    0.4126966366037742    0.34041205718726886    
  0.2517815100792904    0.16873470619269165    0.10727306415283787    0.07082047059175667    0.05484532089248761    
  0.07942629451705599    0.07082047059175667    0.07942629451705603    0.10727306415283797    0.15817684045231853    
  0.23146864699446137    0.31598560192124286    0.3920677608953891    0.4426832931968522    0.4633999623991142    
  0.462061487583093    0.4510716629186974    0.44065148172751184    0.4365873334833922    0.4406514817275117    
  0.4510716629186974    0.462061487583093    0.4633999623991143    0.4426832931968522    0.3920677608953891    
  0.3159856019212429    0.23146864699446137    0.1581768404523185    0.10727306415283783    0.07942629451705599    
  0.1271677993771148    0.10727306415283783    0.10727306415283791    0.12716779937711475    0.16873470619269176    
  0.23146864699446137    0.3072979513721908    0.38007368640461653    0.4330833988529418    0.4586842963095244    
  0.46098589159862413    0.4506133803348152    0.43801446456925847    0.430125813760402    0.430125813760402    
  0.43801446456925835    0.4506133803348152    0.4609858915986242    0.4586842963095243    0.4330833988529418    
  0.38007368640461653    0.30729795137219085    0.2314686469944613    0.16873470619269162    0.1271677993771148    
  0.20045741948235052    0.16873470619269165    0.15817684045231858    0.1687347061926917    0.20045741948235055    
  0.25178151007929045    0.31598560192124286    0.38007368640461653    0.42942836313334043    0.455491856123006    
  0.45953140771399775    0.4497453718939368    0.43567079464234193    0.42453485129962615    0.4203999497474691    
  0.42453485129962604    0.43567079464234204    0.44974537189393676    0.45953140771399775    0.455491856123006    
  0.42942836313334043    0.38007368640461653    0.31598560192124286    0.2517815100792903    0.20045741948235052    
  0.2901336184327028    0.2517815100792903    0.2314686469944613    0.23146864699446132    0.2517815100792904    
  0.29013361843270297    0.3404120571872688    0.3920677608953891    0.4330833988529418    0.45549185612300597    
  0.45889645156064063    0.4491399396781023    0.43414192080434805    0.4205880681112832    0.4127923562146455    
  0.41279235621464555    0.42058806811128324    0.43414192080434805    0.4491399396781022    0.45889645156064063    
  0.455491856123006    0.43308339885294167    0.3920677608953891    0.34041205718726875    0.2901336184327028    
  0.37544728154627893    0.34041205718726875    0.3159856019212429    0.30729795137219085    0.315985601921243    
  0.34041205718726886    0.3754472815462789    0.41269663660377426    0.4426832931968522    0.4586842963095243    
  0.4595314077139977    0.4491399396781022    0.43362194269457066    0.4185936774260367    0.4080441803321536    
  0.40427624902858844    0.4080441803321537    0.4185936774260367    0.43362194269457055    0.4491399396781022    
  0.45953140771399786    0.4586842963095244    0.4426832931968522    0.41269663660377426    0.37544728154627893    
  0.43587365116013144    0.41269663660377426    0.3920677608953891    0.38007368640461653    0.38007368640461653    
  0.3920677608953891    0.4126966366037742    0.4358736511601313    0.45454656791337245    0.4633999623991142    
  0.46098589159862413    0.4497453718939368    0.43414192080434805    0.4185936774260367    0.4064416401614633    
  0.3998336259614222    0.39983362596142225    0.4064416401614633    0.4185936774260366    0.43414192080434805    
  0.4497453718939368    0.4609858915986242    0.4633999623991142    0.45454656791337233    0.43587365116013144    
  0.46393823480760504    0.45454656791337245    0.4426832931968522    0.4330833988529418    0.42942836313334043    
  0.4330833988529418    0.4426832931968522    0.4545465679133723    0.46393823480760504    0.4669389234167222    
  0.462061487583093    0.4506133803348151    0.43567079464234193    0.4205880681112832    0.40804418033215367    
  0.3998336259614222    0.3969835849236816    0.3998336259614222    0.4080441803321536    0.42058806811128324    
  0.43567079464234193    0.4506133803348151    0.462061487583093    0.4669389234167222    0.46393823480760504    
  0.46668598937474726    0.4669389234167222    0.4633999623991142    0.4586842963095244    0.45549185612300597    
  0.455491856123006    0.4586842963095243    0.4633999623991142    0.46693892341672233    0.46668598937474737    
  0.4612581902350843    0.4510716629186974    0.43801446456925847    0.42453485129962604    0.4127923562146455    
  0.4042762490285885    0.3998336259614223    0.3998336259614222    0.40427624902858844    0.4127923562146455    
  0.42453485129962604    0.43801446456925835    0.4510716629186974    0.46125819023508435    0.46668598937474726    
  0.45741385502044646    0.46125819023508435    0.462061487583093    0.4609858915986242    0.45953140771399786    
  0.45889645156064063    0.45953140771399775    0.4609858915986242    0.462061487583093    0.4612581902350843    
  0.4574138550204464    0.45027106445486376    0.44065148172751184    0.430125813760402    0.4203999497474691    
  0.4127923562146455    0.4080441803321537    0.4064416401614633    0.4080441803321536    0.4127923562146455    
  0.4203999497474692    0.430125813760402    0.4406514817275118    0.45027106445486376    0.45741385502044646    
  0.44753734563675157    0.45027106445486376    0.4510716629186974    0.4506133803348152    0.4497453718939368    
  0.4491399396781023    0.4491399396781022    0.44974537189393676    0.4506133803348152    0.4510716629186974    
  0.45027106445486365    0.4475373456367517    0.4427672039641839    0.4365873334833922    0.430125813760402    
  0.42453485129962604    0.4205880681112832    0.4185936774260367    0.4185936774260366    0.42058806811128324    
  0.42453485129962604    0.430125813760402    0.4365873334833922    0.4427672039641839    0.44753734563675157    
  0.44358068324130234    0.4427672039641839    0.4406514817275118    0.43801446456925824    0.43567079464234193    
  0.43414192080434805    0.43362194269457055    0.43414192080434805    0.43567079464234204    0.43801446456925835    
  0.4406514817275117    0.4427672039641839    0.4435806832413024    0.4427672039641839    0.4406514817275117    
  0.43801446456925835    0.43567079464234204    0.43414192080434805    0.43362194269457055    0.43414192080434805    
  0.43567079464234193    0.43801446456925824    0.4406514817275118    0.4427672039641839    0.44358068324130234    
  0.4475373456367517    0.4427672039641839    0.4365873334833922    0.430125813760402    0.42453485129962615    
  0.42058806811128324    0.4185936774260366    0.41859367742603665    0.42058806811128324    0.42453485129962604    
  0.430125813760402    0.4365873334833922    0.4427672039641839    0.4475373456367517    0.45027106445486365    
  0.4510716629186974    0.4506133803348152    0.44974537189393676    0.44913993967810206    0.4491399396781022    
  0.44974537189393676    0.4506133803348152    0.4510716629186974    0.45027106445486376    0.4475373456367517    
  0.45741385502044646    0.45027106445486376    0.4406514817275118    0.430125813760402    0.4203999497474692    
  0.4127923562146456    0.4080441803321536    0.40644164016146317    0.4080441803321537    0.4127923562146455    
  0.4203999497474691    0.430125813760402    0.44065148172751184    0.45027106445486376    0.4574138550204464    
  0.4612581902350843    0.462061487583093    0.4609858915986242    0.45953140771399775    0.45889645156064063    
  0.45953140771399786    0.4609858915986243    0.462061487583093    0.46125819023508435    0.45741385502044646    
  0.46668598937474737    0.46125819023508435    0.4510716629186974    0.43801446456925824    0.42453485129962604    
  0.4127923562146456    0.40427624902858844    0.3998336259614221    0.3998336259614222    0.4042762490285885    
  0.4127923562146455    0.42453485129962615    0.43801446456925847    0.4510716629186974    0.4612581902350843    
  0.46668598937474737    0.46693892341672233    0.4633999623991142    0.4586842963095243    0.45549185612300597    
  0.45549185612300597    0.4586842963095244    0.4633999623991142    0.4669389234167222    0.46668598937474737    
  0.46393823480760504    0.4669389234167222    0.462061487583093    0.4506133803348151    0.43567079464234193    
  0.42058806811128335    0.4080441803321536    0.3998336259614221    0.3969835849236816    0.3998336259614222    
  0.40804418033215367    0.42058806811128324    0.43567079464234193    0.4506133803348152    0.462061487583093    
  0.4669389234167222    0.46393823480760504    0.45454656791337233    0.4426832931968522    0.4330833988529418    
  0.42942836313334043    0.4330833988529418    0.44268329319685207    0.45454656791337245    0.46393823480760504    
  0.43587365116013144    0.45454656791337245    0.4633999623991142    0.4609858915986242    0.4497453718939368    
  0.43414192080434805    0.4185936774260366    0.4064416401614632    0.3998336259614222    0.3998336259614222    
  0.4064416401614632    0.4185936774260367    0.43414192080434805    0.4497453718939368    0.46098589159862413    
  0.4633999623991142    0.45454656791337245    0.43587365116013144    0.4126966366037743    0.39206776089538914    
  0.38007368640461653    0.38007368640461653    0.3920677608953891    0.41269663660377426    0.43587365116013144    
  0.37544728154627893    0.41269663660377426    0.4426832931968522    0.4586842963095244    0.45953140771399786    
  0.4491399396781022    0.43362194269457055    0.41859367742603665    0.4080441803321537    0.40427624902858844    
  0.4080441803321536    0.4185936774260367    0.43362194269457066    0.4491399396781022    0.4595314077139977    
  0.4586842963095243    0.4426832931968522    0.4126966366037743    0.3754472815462789    0.34041205718726886    
  0.315985601921243    0.30729795137219085    0.3159856019212429    0.34041205718726875    0.37544728154627893    
  0.29013361843270286    0.34041205718726875    0.3920677608953891    0.4330833988529418    0.455491856123006    
  0.45889645156064063    0.44913993967810206    0.43414192080434805    0.42058806811128324    0.41279235621464555    
  0.41279235621464544    0.4205880681112832    0.43414192080434805    0.4491399396781022    0.45889645156064063    
  0.455491856123006    0.4330833988529418    0.3920677608953891    0.34041205718726886    0.29013361843270286    
  0.2517815100792904    0.23146864699446137    0.23146864699446137    0.2517815100792903    0.29013361843270286    
  0.20045741948235052    0.2517815100792902    0.3159856019212429    0.38007368640461653    0.42942836313334043    
  0.455491856123006    0.45953140771399775    0.44974537189393665    0.43567079464234204    0.42453485129962604    
  0.4203999497474691    0.42453485129962604    0.43567079464234193    0.4497453718939368    0.45953140771399775    
  0.45549185612300597    0.42942836313334043    0.38007368640461653    0.31598560192124286    0.2517815100792904    
  0.20045741948235055    0.1687347061926917    0.15817684045231858    0.16873470619269162    0.20045741948235052    
  0.12716779937711473    0.16873470619269165    0.23146864699446132    0.30729795137219085    0.38007368640461653    
  0.4330833988529418    0.4586842963095243    0.4609858915986242    0.4506133803348152    0.43801446456925835    
  0.4301258137604019    0.430125813760402    0.43801446456925847    0.4506133803348152    0.46098589159862413    
  0.4586842963095244    0.4330833988529418    0.38007368640461653    0.3072979513721908    0.23146864699446137    
  0.16873470619269176    0.12716779937711484    0.10727306415283797    0.10727306415283783    0.12716779937711473    
  0.07942629451705599    0.10727306415283783    0.1581768404523185    0.23146864699446132    0.3159856019212429    
  0.3920677608953892    0.4426832931968522    0.4633999623991142    0.462061487583093    0.4510716629186974    
  0.4406514817275117    0.4365873334833922    0.44065148172751184    0.4510716629186974    0.462061487583093    
  0.4633999623991142    0.4426832931968522    0.3920677608953891    0.31598560192124286    0.23146864699446137    
  0.15817684045231853    0.10727306415283797    0.07942629451705603    0.07082047059175663    0.07942629451705599    
  0.0548453208924877    0.07082047059175667    0.10727306415283797    0.1687347061926917    0.2517815100792904    
  0.34041205718726886    0.4126966366037743    0.45454656791337233    0.46693892341672233    0.4612581902350843    
  0.45027106445486365    0.4427672039641839    0.4427672039641839    0.45027106445486376    0.46125819023508435    
  0.4669389234167222    0.45454656791337245    0.4126966366037743    0.3404120571872688    0.2517815100792904    
  0.16873470619269176    0.10727306415283791    0.07082047059175657    0.054845320892487656    0.0548453208924877    
  0.04754059575909506    0.05484532089248761    0.07942629451705599    0.12716779937711484    0.20045741948235055    
  0.2901336184327029    0.3754472815462789    0.4358736511601313    0.46393823480760504    0.46668598937474726    
  0.4574138550204464    0.4475373456367517    0.4435806832413024    0.4475373456367517    0.4574138550204464    
  0.46668598937474726    0.46393823480760504    0.43587365116013144    0.3754472815462789    0.2901336184327029    
  0.20045741948235055    0.12716779937711484    0.07942629451705599    0.05484532089248761    0.04754059575909506    
  0.05449072543427544    0.06220845045184597    0.08782528151722077    0.13654889778725077    0.20973312986553724    
  0.2975025546921741    0.37943929051395386    0.436214223293695    0.46144816492137813    0.4625260324110778    
  0.452476392223496    0.4423085990112064    0.4382822717770526    0.4423085990112064    0.45247639222349606    
  0.4625260324110778    0.46144816492137813    0.43621422329369514    0.37943929051395386    0.2975025546921741    
  0.20973312986553722    0.13654889778725077    0.08782528151722077    0.06220845045184597    0.05449072543427544    
  0.06220845045184597    0.06220845045184606    0.0789098882362947    0.11637494621279568    0.17824618614528018    
  0.26017425744296435    0.3459840750741517    0.41461520680737285    0.453205850516207    0.46342634574115626    
  0.4566188786522393    0.4451628805596829    0.4375066793965041    0.437506679396504    0.4451628805596827    
  0.4566188786522392    0.46342634574115626    0.4532058505162069    0.41461520680737274    0.3459840750741517    
  0.2601742574429643    0.17824618614528007    0.11637494621279562    0.07890988823629476    0.06220845045184597    
  0.08782528151722077    0.07890988823629476    0.08782528151722083    0.11637494621279568    0.16770692444642735    
  0.24028174084606096    0.32249564786835866    0.39517483722179053    0.44238939091440177    0.46058656269959575    
  0.45780472881922535    0.4461561371730796    0.43549234512406054    0.43137030083644934    0.4354923451240605    
  0.4461561371730796    0.4578047288192254    0.46058656269959586    0.44238939091440177    0.39517483722179053    
  0.3224956478683587    0.24028174084606096    0.16770692444642737    0.11637494621279554    0.08782528151722077    
  0.1365488977872507    0.11637494621279555    0.11637494621279565    0.13654889778725066    0.17824618614528015    
  0.24028174084606096    0.31411209505760906    0.3838076043499267    0.4335140374884902    0.4564617102659248    
  0.4571098537665617    0.44591796775888143    0.4329889140582732    0.4249952085775085    0.4249952085775085    
  0.4329889140582731    0.44591796775888143    0.45710985376656177    0.4564617102659248    0.4335140374884902    
  0.3838076043499268    0.3141120950576091    0.2402817408460609    0.17824618614527998    0.1365488977872507    
  0.20973312986553722    0.17824618614528004    0.1677069244464274    0.17824618614528012    0.20973312986553722    
  0.26017425744296435    0.32249564786835866    0.3838076043499267    0.430116671572506    0.45360644602198635    
  0.45593519379731623    0.4452401697518655    0.43077332070574553    0.41949862214703365    0.41533171965275834    
  0.41949862214703365    0.4307733207057456    0.4452401697518655    0.45593519379731623    0.45360644602198635    
  0.430116671572506    0.3838076043499268    0.32249564786835866    0.2601742574429642    0.20973312986553722    
  0.29750255469217396    0.26017425744296424    0.2402817408460609    0.2402817408460609    0.2601742574429643    
  0.2975025546921741    0.3459840750741517    0.39517483722179053    0.4335140374884902    0.45360644602198635    
  0.45540293557157707    0.44474435795041223    0.4293348128317739    0.415627473847635    0.40778671036697445    
  0.40778671036697456    0.41562747384763504    0.4293348128317737    0.4447443579504121    0.45540293557157707    
  0.45360644602198646    0.4335140374884901    0.39517483722179053    0.34598407507415163    0.29750255469217396    
  0.3794392905139539    0.3459840750741517    0.32249564786835866    0.3141120950576091    0.3224956478683587    
  0.34598407507415174    0.37943929051395386    0.41461520680737285    0.44238939091440177    0.4564617102659248    
  0.45593519379731623    0.4447443579504121    0.4288472091364375    0.4136742776904993    0.40308216694028964    
  0.39930644770718465    0.4030821669402897    0.41367427769049936    0.4288472091364375    0.4447443579504121    
  0.4559351937973163    0.4564617102659249    0.44238939091440177    0.4146152068073728    0.3794392905139539    
  0.43621422329369514    0.4146152068073728    0.39517483722179053    0.3838076043499267    0.3838076043499267    
  0.39517483722179053    0.41461520680737274    0.436214223293695    0.453205850516207    0.46058656269959586    
  0.4571098537665617    0.4452401697518655    0.4293348128317738    0.4136742776904993    0.40149509369678166    
  0.3948859965830034    0.3948859965830034    0.4014950936967817    0.41367427769049925    0.4293348128317738    
  0.4452401697518655    0.45710985376656177    0.46058656269959575    0.4532058505162069    0.43621422329369514    
  0.461448164921378    0.4532058505162069    0.44238939091440177    0.4335140374884902    0.430116671572506    
  0.4335140374884902    0.44238939091440177    0.4532058505162069    0.46144816492137813    0.46342634574115626    
  0.45780472881922535    0.4459179677588813    0.43077332070574553    0.415627473847635    0.4030821669402897    
  0.3948859965830034    0.392043127696159    0.3948859965830034    0.40308216694028964    0.41562747384763504    
  0.4307733207057454    0.4459179677588813    0.45780472881922535    0.46342634574115626    0.461448164921378    
  0.4625260324110778    0.46342634574115615    0.46058656269959575    0.4564617102659249    0.45360644602198635    
  0.45360644602198646    0.4564617102659248    0.46058656269959575    0.46342634574115626    0.4625260324110779    
  0.4566188786522392    0.4461561371730796    0.4329889140582732    0.41949862214703365    0.40778671036697445    
  0.39930644770718465    0.39488599658300344    0.3948859965830034    0.39930644770718465    0.40778671036697456    
  0.41949862214703365    0.4329889140582731    0.4461561371730795    0.45661887865223943    0.4625260324110778    
  0.45247639222349606    0.4566188786522393    0.45780472881922535    0.45710985376656177    0.4559351937973164    
  0.4554029355715771    0.45593519379731623    0.4571098537665617    0.4578047288192254    0.4566188786522392    
  0.452476392223496    0.4451628805596829    0.43549234512406054    0.4249952085775085    0.41533171965275834    
  0.40778671036697456    0.40308216694028975    0.4014950936967817    0.40308216694028964    0.40778671036697456    
  0.41533171965275856    0.4249952085775085    0.4354923451240605    0.44516288055968284    0.45247639222349606    
  0.4423085990112063    0.4451628805596829    0.4461561371730795    0.4459179677588813    0.4452401697518655    
  0.44474435795041223    0.4447443579504121    0.44524016975186537    0.44591796775888143    0.4461561371730796    
  0.4451628805596827    0.4423085990112064    0.437506679396504    0.43137030083644934    0.4249952085775085    
  0.41949862214703365    0.415627473847635    0.41367427769049936    0.41367427769049925    0.41562747384763504    
  0.41949862214703365    0.4249952085775085    0.4313703008364492    0.437506679396504    0.4423085990112063    
  0.4382822717770525    0.4375066793965041    0.4354923451240605    0.4329889140582731    0.4307733207057454    
  0.4293348128317739    0.4288472091364375    0.4293348128317737    0.4307733207057456    0.4329889140582731    
  0.4354923451240605    0.437506679396504    0.4382822717770526    0.437506679396504    0.4354923451240605    
  0.4329889140582731    0.4307733207057456    0.4293348128317737    0.4288472091364375    0.4293348128317738    
  0.4307733207057454    0.4329889140582731    0.4354923451240605    0.4375066793965041    0.4382822717770525    
  0.4423085990112065    0.4375066793965041    0.43137030083644934    0.4249952085775085    0.41949862214703365    
  0.41562747384763504    0.41367427769049925    0.41367427769049925    0.4156274738476351    0.41949862214703365    
  0.4249952085775085    0.43137030083644934    0.4375066793965041    0.4423085990112064    0.4451628805596827    
  0.4461561371730796    0.44591796775888143    0.4452401697518655    0.44474435795041206    0.4447443579504121    
  0.4452401697518655    0.44591796775888143    0.4461561371730795    0.44516288055968284    0.4423085990112065    
  0.45247639222349606    0.4451628805596829    0.4354923451240605    0.4249952085775085    0.4153317196527585    
  0.40778671036697467    0.40308216694028964    0.40149509369678155    0.40308216694028975    0.40778671036697456    
  0.41533171965275834    0.4249952085775085    0.43549234512406054    0.4451628805596829    0.452476392223496    
  0.4566188786522392    0.4578047288192254    0.45710985376656177    0.45593519379731623    0.45540293557157707    
  0.4559351937973164    0.45710985376656177    0.45780472881922535    0.45661887865223943    0.45247639222349606    
  0.4625260324110778    0.4566188786522392    0.4461561371730796    0.4329889140582731    0.41949862214703365    
  0.40778671036697467    0.39930644770718465    0.3948859965830033    0.3948859965830034    0.3993064477071847    
  0.40778671036697445    0.41949862214703365    0.4329889140582732    0.4461561371730795    0.4566188786522392    
  0.4625260324110779    0.46342634574115626    0.46058656269959586    0.4564617102659248    0.45360644602198635    
  0.45360644602198635    0.4564617102659249    0.46058656269959575    0.46342634574115626    0.4625260324110778    
  0.461448164921378    0.46342634574115626    0.45780472881922535    0.4459179677588813    0.4307733207057454    
  0.41562747384763515    0.40308216694028964    0.3948859965830033    0.392043127696159    0.3948859965830034    
  0.4030821669402897    0.41562747384763504    0.43077332070574553    0.4459179677588813    0.45780472881922535    
  0.46342634574115626    0.46144816492137813    0.4532058505162069    0.44238939091440177    0.4335140374884902    
  0.430116671572506    0.4335140374884902    0.44238939091440177    0.4532058505162069    0.461448164921378    
  0.43621422329369514    0.4532058505162069    0.46058656269959575    0.4571098537665617    0.4452401697518655    
  0.4293348128317739    0.41367427769049925    0.4014950936967816    0.3948859965830034    0.3948859965830034    
  0.40149509369678166    0.41367427769049936    0.4293348128317739    0.4452401697518655    0.4571098537665617    
  0.46058656269959586    0.453205850516207    0.436214223293695    0.41461520680737285    0.3951748372217906    
  0.3838076043499268    0.3838076043499267    0.39517483722179053    0.4146152068073728    0.43621422329369514    
  0.3794392905139539    0.4146152068073728    0.44238939091440177    0.4564617102659249    0.4559351937973163    
  0.4447443579504121    0.4288472091364375    0.41367427769049925    0.4030821669402897    0.39930644770718465    
  0.40308216694028964    0.4136742776904993    0.4288472091364375    0.4447443579504121    0.45593519379731623    
  0.4564617102659248    0.44238939091440177    0.41461520680737285    0.37943929051395386    0.3459840750741517    
  0.3224956478683587    0.3141120950576091    0.32249564786835866    0.3459840750741517    0.3794392905139539    
  0.29750255469217407    0.3459840750741517    0.39517483722179053    0.4335140374884902    0.45360644602198646    
  0.45540293557157707    0.44474435795041206    0.4293348128317737    0.41562747384763504    0.40778671036697456    
  0.40778671036697445    0.415627473847635    0.4293348128317738    0.4447443579504121    0.45540293557157707    
  0.45360644602198646    0.4335140374884902    0.39517483722179053    0.3459840750741517    0.29750255469217407    
  0.2601742574429643    0.240281740846061    0.24028174084606096    0.26017425744296424    0.29750255469217407    
  0.20973312986553722    0.2601742574429642    0.32249564786835866    0.3838076043499268    0.430116671572506    
  0.45360644602198646    0.45593519379731623    0.44524016975186537    0.4307733207057456    0.41949862214703365    
  0.41533171965275834    0.41949862214703365    0.43077332070574553    0.4452401697518655    0.45593519379731623    
  0.45360644602198635    0.430116671572506    0.3838076043499268    0.32249564786835866    0.26017425744296435    
  0.20973312986553722    0.17824618614528012    0.1677069244464274    0.17824618614527998    0.20973312986553722    
  0.1365488977872507    0.17824618614528004    0.2402817408460609    0.3141120950576091    0.3838076043499268    
  0.4335140374884902    0.4564617102659248    0.45710985376656177    0.44591796775888143    0.4329889140582731    
  0.4249952085775085    0.4249952085775086    0.4329889140582732    0.44591796775888143    0.4571098537665617    
  0.4564617102659249    0.4335140374884902    0.3838076043499268    0.31411209505760906    0.24028174084606096    
  0.17824618614528015    0.13654889778725074    0.11637494621279569    0.11637494621279558    0.1365488977872507    
  0.08782528151722077    0.11637494621279554    0.16770692444642732    0.2402817408460609    0.3224956478683587    
  0.39517483722179064    0.44238939091440177    0.46058656269959586    0.4578047288192254    0.4461561371730795    
  0.4354923451240605    0.43137030083644934    0.43549234512406054    0.4461561371730796    0.45780472881922535    
  0.46058656269959575    0.44238939091440177    0.39517483722179053    0.32249564786835866    0.24028174084606096    
  0.16770692444642735    0.11637494621279569    0.08782528151722083    0.07890988823629466    0.08782528151722077    
  0.06220845045184606    0.0789098882362947    0.11637494621279569    0.1782461861452801    0.26017425744296435    
  0.3459840750741518    0.41461520680737285    0.4532058505162069    0.46342634574115626    0.4566188786522392    
  0.4451628805596827    0.437506679396504    0.437506679396504    0.4451628805596829    0.4566188786522393    
  0.46342634574115626    0.453205850516207    0.41461520680737285    0.3459840750741517    0.26017425744296435    
  0.17824618614528015    0.11637494621279565    0.07890988823629462    0.06220845045184601    0.06220845045184606    
  0.05449072543427544    0.06220845045184597    0.08782528151722077    0.13654889778725077    0.20973312986553724    
  0.2975025546921741    0.37943929051395386    0.436214223293695    0.46144816492137813    0.4625260324110778    
  0.452476392223496    0.4423085990112064    0.4382822717770526    0.4423085990112064    0.45247639222349606    
  0.4625260324110778    0.46144816492137813    0.43621422329369514    0.37943929051395386    0.2975025546921741    
  0.20973312986553722    0.13654889778725077    0.08782528151722077    0.06220845045184597    0.05449072543427544    
  0.07788748000776426    0.08666559742137539    0.11480345180023949    0.16547369055624672    0.23721265218560447    
  0.31850783781180975    0.3902374465250746    0.43650231738816797    0.45381557065166744    0.4503094642631049    
  0.43815787407322315    0.42721368076942123    0.4230037059408695    0.42721368076942123    0.43815787407322315    
  0.4503094642631049    0.45381557065166744    0.436502317388168    0.3902374465250746    0.3185078378118098    
  0.2372126521856044    0.16547369055624672    0.11480345180023949    0.08666559742137539    0.07788748000776426    