#     DFTpy    
  CRYSTAL 
    
  PRIMVEC    
  1.1295443167720502    -1.9564281460498705    0.0    
  1.1295443167720502    1.9564281460498705    0.0    
  0.0    0.0    2.1261675775862106    
  PRIMCOORD    
  1    1    
  Si    0.0    0.0    0.0    
  BEGIN_BLOCK_DATAGRID_3D    
  3d_datagrid_density    
  BEGIN_DATAGRID_3D#0    
  25    25    21    
  0.0    0.0    0.0    
  1.129544320985272    -1.9564281533473848    0.0    
  1.129544320985272    1.9564281533473848    0.0    
  0.0    0.0    2.126167585516856    
  0.04763464917361978    0.05429643111133206    0.07661404078474637    0.12023142339559884    0.18949249162477128    
  0.28067130744342766    0.3788506663741331    0.46386182551301    0.5216483115135517    0.5508787911619166    
  0.5601291174061516    0.5604183662067961    0.5596123850838346    0.5604183662067961    0.5601291174061516    
  0.5508787911619166    0.5216483115135517    0.4638618255130101    0.3788506663741331    0.2806713074434277    
  0.18949249162477128    0.12023142339559884    0.07661404078474637    0.05429643111133206    0.04763464917361978    
  0.0542964311113321    0.05429643111133206    0.0688061351036787    0.10196227491754276    0.1590719232039732    
  0.2406050456630976    0.3367218628202976    0.42879558047062727    0.49904147158424816    0.540193441288521    
  0.5569473622644594    0.5599202913859025    0.5587913316023346    0.5587913316023345    0.5599202913859025    
  0.5569473622644594    0.5401934412885211    0.4990414715842482    0.42879558047062727    0.33672186282029765    
  0.2406050456630976    0.1590719232039731    0.10196227491754267    0.06880613510367879    0.0542964311113321    
  0.07661404078474641    0.06880613510367883    0.07661404078474633    0.10196227491754267    0.14910912246285368    
  0.22009669344496674    0.3090950631920573    0.4009385734541236    0.47747790764373865    0.5274433190408991    
  0.5512089873539384    0.557460972557472    0.5564577570769964    0.5553159550949747    0.5564577570769964    
  0.557460972557472    0.5512089873539384    0.5274433190408993    0.4774779076437385    0.40093857345412365    
  0.3090950631920574    0.22009669344496666    0.14910912246285365    0.10196227491754285    0.07661404078474641    
  0.12023142339559893    0.10196227491754281    0.10196227491754276    0.12023142339559884    0.15907192320397315    
  0.22009669344496674    0.29953800550280907    0.38564145073017114    0.4620854342923828    0.516115401023271    
  0.5446810496595004    0.5537883460228428    0.5530570096278894    0.5505749350990671    0.5505749350990671    
  0.5530570096278893    0.5537883460228428    0.5446810496595005    0.5161154010232708    0.46208543429238275    
  0.3856414507301712    0.299538005502809    0.22009669344496674    0.1590719232039732    0.12023142339559893    
  0.18949249162477128    0.15907192320397315    0.14910912246285368    0.15907192320397315    0.18949249162477122    
  0.2406050456630976    0.3090950631920573    0.38564145073017114    0.4565194476948984    0.5094771897362502    
  0.5395494117399324    0.5501524983738585    0.5494118072517991    0.5454354745828063    0.543521599110543    
  0.5454354745828063    0.5494118072517992    0.5501524983738585    0.5395494117399326    0.5094771897362503    
  0.45651944769489833    0.3856414507301712    0.3090950631920574    0.2406050456630976    0.18949249162477128    
  0.2806713074434278    0.2406050456630976    0.22009669344496666    0.2200966934449668    0.2406050456630976    
  0.2806713074434278    0.3367218628202976    0.4009385734541236    0.4620854342923828    0.5094771897362502    
  0.5376085648064258    0.547897861480464    0.5465894034862054    0.541012821991582    0.5367939533510833    
  0.5367939533510834    0.5410128219915821    0.5465894034862054    0.547897861480464    0.5376085648064258    
  0.5094771897362502    0.46208543429238275    0.4009385734541235    0.33672186282029765    0.2806713074434278    
  0.37885066637413317    0.33672186282029765    0.3090950631920574    0.2995380055028091    0.30909506319205743    
  0.33672186282029765    0.3788506663741331    0.42879558047062727    0.47747790764373854    0.516115401023271    
  0.5395494117399324    0.547897861480464    0.5455239756914333    0.5384360009114325    0.5319333548836288    
  0.5293893401348532    0.5319333548836288    0.5384360009114326    0.5455239756914333    0.547897861480464    
  0.5395494117399325    0.516115401023271    0.4774779076437385    0.4287955804706272    0.37885066637413317    
  0.46386182551301    0.4287955804706272    0.4009385734541235    0.38564145073017114    0.3856414507301712    
  0.4009385734541235    0.42879558047062727    0.46386182551301    0.49904147158424816    0.5274433190408991    
  0.5446810496595005    0.5501524983738585    0.5465894034862054    0.5384360009114326    0.5301567068159303    
  0.5251292247210767    0.5251292247210768    0.5301567068159303    0.5384360009114325    0.5465894034862054    
  0.5501524983738585    0.5446810496595004    0.5274433190408991    0.49904147158424816    0.46386182551301    
  0.5216483115135518    0.49904147158424816    0.4774779076437385    0.46208543429238275    0.45651944769489833    
  0.46208543429238275    0.4774779076437385    0.49904147158424816    0.5216483115135518    0.540193441288521    
  0.5512089873539384    0.5537883460228428    0.5494118072517991    0.541012821991582    0.5319333548836288    
  0.5251292247210767    0.5226212948130957    0.5251292247210768    0.5319333548836288    0.541012821991582    
  0.5494118072517992    0.5537883460228428    0.5512089873539383    0.540193441288521    0.5216483115135518    
  0.5508787911619167    0.540193441288521    0.5274433190408991    0.5161154010232709    0.50947718973625    
  0.5094771897362503    0.5161154010232708    0.5274433190408993    0.5401934412885211    0.5508787911619166    
  0.5569473622644594    0.557460972557472    0.5530570096278894    0.5454354745828063    0.5367939533510833    
  0.5293893401348532    0.5251292247210768    0.5251292247210768    0.5293893401348532    0.5367939533510833    
  0.5454354745828063    0.5530570096278894    0.557460972557472    0.5569473622644593    0.5508787911619167    
  0.5601291174061517    0.5569473622644594    0.5512089873539384    0.5446810496595004    0.5395494117399324    
  0.5376085648064258    0.5395494117399326    0.5446810496595005    0.5512089873539384    0.5569473622644594    
  0.5601291174061516    0.5599202913859025    0.5564577570769964    0.5505749350990671    0.5435215991105429    
  0.5367939533510833    0.5319333548836289    0.5301567068159303    0.5319333548836288    0.5367939533510833    
  0.543521599110543    0.5505749350990671    0.5564577570769965    0.5599202913859025    0.5601291174061517    
  0.5604183662067962    0.5599202913859025    0.557460972557472    0.5537883460228428    0.5501524983738585    
  0.547897861480464    0.547897861480464    0.5501524983738585    0.5537883460228428    0.557460972557472    
  0.5599202913859025    0.5604183662067962    0.5587913316023345    0.5553159550949748    0.5505749350990671    
  0.5454354745828063    0.5410128219915821    0.5384360009114326    0.5384360009114325    0.541012821991582    
  0.5454354745828063    0.5505749350990671    0.555315955094975    0.5587913316023346    0.5604183662067962    
  0.5596123850838347    0.5587913316023346    0.5564577570769964    0.5530570096278894    0.5494118072517991    
  0.5465894034862054    0.5455239756914333    0.5465894034862055    0.5494118072517992    0.5530570096278893    
  0.5564577570769964    0.5587913316023346    0.5596123850838346    0.5587913316023345    0.5564577570769964    
  0.5530570096278894    0.5494118072517992    0.5465894034862055    0.5455239756914333    0.5465894034862054    
  0.5494118072517991    0.5530570096278894    0.5564577570769964    0.5587913316023346    0.5596123850838347    
  0.5604183662067962    0.5587913316023346    0.5553159550949749    0.5505749350990671    0.5454354745828063    
  0.5410128219915821    0.5384360009114325    0.5384360009114326    0.541012821991582    0.5454354745828063    
  0.5505749350990671    0.5553159550949748    0.5587913316023346    0.5604183662067961    0.5599202913859025    
  0.557460972557472    0.5537883460228428    0.5501524983738585    0.547897861480464    0.547897861480464    
  0.5501524983738585    0.5537883460228428    0.557460972557472    0.5599202913859025    0.5604183662067962    
  0.5601291174061517    0.5599202913859025    0.5564577570769965    0.5505749350990671    0.5435215991105429    
  0.5367939533510833    0.5319333548836288    0.5301567068159303    0.5319333548836289    0.5367939533510834    
  0.5435215991105429    0.5505749350990671    0.5564577570769964    0.5599202913859025    0.5601291174061516    
  0.5569473622644594    0.5512089873539384    0.5446810496595005    0.5395494117399326    0.5376085648064259    
  0.5395494117399324    0.5446810496595004    0.5512089873539384    0.5569473622644594    0.5601291174061517    
  0.5508787911619167    0.5569473622644593    0.5574609725574718    0.5530570096278894    0.5454354745828063    
  0.5367939533510833    0.5293893401348532    0.5251292247210768    0.5251292247210768    0.5293893401348532    
  0.5367939533510833    0.5454354745828063    0.5530570096278894    0.557460972557472    0.5569473622644594    
  0.5508787911619166    0.5401934412885211    0.5274433190408993    0.5161154010232709    0.5094771897362503    
  0.5094771897362502    0.5161154010232708    0.5274433190408993    0.540193441288521    0.5508787911619167    
  0.5216483115135518    0.540193441288521    0.5512089873539383    0.5537883460228428    0.5494118072517992    
  0.541012821991582    0.5319333548836288    0.5251292247210768    0.5226212948130957    0.5251292247210768    
  0.5319333548836288    0.541012821991582    0.5494118072517991    0.5537883460228428    0.5512089873539384    
  0.540193441288521    0.5216483115135518    0.49904147158424816    0.4774779076437385    0.46208543429238275    
  0.45651944769489833    0.46208543429238275    0.4774779076437385    0.49904147158424816    0.5216483115135518    
  0.46386182551301    0.49904147158424816    0.5274433190408991    0.5446810496595005    0.5501524983738585    
  0.5465894034862055    0.5384360009114325    0.5301567068159304    0.5251292247210769    0.5251292247210768    
  0.5301567068159303    0.5384360009114326    0.5465894034862054    0.5501524983738585    0.5446810496595004    
  0.5274433190408993    0.4990414715842482    0.46386182551301    0.42879558047062727    0.40093857345412354    
  0.38564145073017125    0.38564145073017114    0.40093857345412354    0.4287955804706272    0.46386182551301    
  0.37885066637413317    0.4287955804706272    0.4774779076437385    0.5161154010232709    0.5395494117399325    
  0.547897861480464    0.5455239756914333    0.5384360009114326    0.5319333548836288    0.5293893401348532    
  0.5319333548836288    0.5384360009114326    0.5455239756914333    0.547897861480464    0.5395494117399324    
  0.516115401023271    0.47747790764373854    0.42879558047062727    0.3788506663741331    0.33672186282029765    
  0.30909506319205743    0.2995380055028091    0.3090950631920574    0.33672186282029765    0.37885066637413317    
  0.2806713074434278    0.3367218628202977    0.40093857345412354    0.46208543429238275    0.5094771897362502    
  0.5376085648064258    0.547897861480464    0.5465894034862055    0.541012821991582    0.5367939533510833    
  0.5367939533510833    0.541012821991582    0.5465894034862054    0.547897861480464    0.5376085648064258    
  0.5094771897362502    0.46208543429238275    0.40093857345412354    0.3367218628202976    0.2806713074434277    
  0.24060504566309765    0.2200966934449667    0.22009669344496666    0.2406050456630976    0.2806713074434278    
  0.18949249162477128    0.2406050456630976    0.3090950631920574    0.38564145073017114    0.45651944769489833    
  0.5094771897362503    0.5395494117399326    0.5501524983738585    0.5494118072517992    0.5454354745828063    
  0.543521599110543    0.5454354745828063    0.5494118072517991    0.5501524983738585    0.5395494117399324    
  0.5094771897362502    0.4565194476948984    0.3856414507301712    0.3090950631920573    0.2406050456630976    
  0.18949249162477122    0.15907192320397315    0.14910912246285368    0.1590719232039731    0.18949249162477128    
  0.12023142339559897    0.15907192320397315    0.22009669344496666    0.29953800550280907    0.3856414507301712    
  0.46208543429238275    0.5161154010232709    0.5446810496595005    0.5537883460228428    0.5530570096278893    
  0.5505749350990671    0.5505749350990671    0.5530570096278894    0.5537883460228428    0.5446810496595005    
  0.516115401023271    0.4620854342923828    0.38564145073017125    0.29953800550280907    0.22009669344496685    
  0.15907192320397315    0.12023142339559884    0.10196227491754271    0.10196227491754276    0.12023142339559897    
  0.07661404078474641    0.10196227491754276    0.14910912246285365    0.22009669344496666    0.3090950631920574    
  0.40093857345412354    0.4774779076437385    0.5274433190408993    0.5512089873539384    0.5574609725574721    
  0.5564577570769964    0.5553159550949748    0.5564577570769964    0.557460972557472    0.5512089873539384    
  0.5274433190408991    0.47747790764373865    0.40093857345412365    0.3090950631920573    0.22009669344496685    
  0.14910912246285365    0.10196227491754276    0.07661404078474633    0.06880613510367879    0.07661404078474641    
  0.0542964311113321    0.06880613510367883    0.10196227491754267    0.15907192320397306    0.2406050456630976    
  0.33672186282029765    0.42879558047062727    0.49904147158424816    0.5401934412885211    0.5569473622644594    
  0.5599202913859025    0.5587913316023346    0.5587913316023345    0.5599202913859025    0.5569473622644594    
  0.540193441288521    0.4990414715842482    0.42879558047062727    0.3367218628202976    0.2406050456630976    
  0.15907192320397315    0.10196227491754271    0.06880613510367875    0.05429643111133206    0.0542964311113321    
  0.04763464917361978    0.05429643111133206    0.07661404078474637    0.12023142339559884    0.18949249162477128    
  0.28067130744342766    0.3788506663741331    0.46386182551301    0.5216483115135517    0.5508787911619166    
  0.5601291174061516    0.5604183662067961    0.5596123850838346    0.5604183662067961    0.5601291174061516    
  0.5508787911619166    0.5216483115135517    0.4638618255130101    0.3788506663741331    0.2806713074434277    
  0.18949249162477128    0.12023142339559884    0.07661404078474637    0.05429643111133206    0.04763464917361978    
  0.05691261383656849    0.06406903793577072    0.08767233760698455    0.13269336353171696    0.20235838263231262    
  0.2919234471910072    0.38637143226254966    0.46656819359824697    0.5198930275745445    0.5459220511055339    
  0.5533286675261415    0.5527673209739694    0.5517265196308572    0.5527673209739694    0.5533286675261415    
  0.5459220511055339    0.5198930275745445    0.46656819359824697    0.38637143226254966    0.29192344719100727    
  0.20235838263231262    0.132693363531717    0.08767233760698455    0.06406903793577072    0.05691261383656849    
  0.06406903793577078    0.06406903793577072    0.07947072066647211    0.11397694090208782    0.1719727195459439    
  0.2528045297643514    0.34605804582564464    0.4336528963837058    0.4991512331654182    0.5364940286080285    
  0.5508233801722248    0.5525464365344605    0.5509288815815618    0.5509288815815617    0.5525464365344605    
  0.5508233801722249    0.5364940286080288    0.4991512331654183    0.4336528963837058    0.3460580458256447    
  0.2528045297643514    0.17197271954594381    0.11397694090208772    0.07947072066647219    0.06406903793577078    
  0.08767233760698459    0.07947072066647225    0.0876723376069845    0.11397694090208772    0.1619522750036869    
  0.23263231188723696    0.3194181037043454    0.40726925441694767    0.47909669148943596    0.5249035705506693    
  0.5457792854726433    0.5504055243577751    0.5486655815630475    0.5473226247843821    0.5486655815630475    
  0.5504055243577751    0.5457792854726433    0.5249035705506694    0.47909669148943573    0.4072692544169477    
  0.3194181037043454    0.23263231188723688    0.16195227500368684    0.11397694090208792    0.08767233760698459    
  0.1326933635317171    0.11397694090208788    0.11397694090208782    0.13269336353171696    0.17197271954594384    
  0.23263231188723696    0.31016479564056515    0.39270338689512624    0.46466882065900006    0.514457994531335    
  0.5398571832353914    0.5470520230751623    0.5453756713691661    0.5425361488281668    0.5425361488281668    
  0.545375671369166    0.5470520230751623    0.5398571832353917    0.5144579945313349    0.464668820659    
  0.3927033868951263    0.31016479564056515    0.23263231188723696    0.1719727195459439    0.1326933635317171    
  0.20235838263231262    0.17197271954594384    0.1619522750036869    0.17197271954594384    0.2023583826323126    
  0.2528045297643514    0.3194181037043454    0.3927033868951262    0.4594323413221324    0.5082938471640186    
  0.5351392782419913    0.5436798118640996    0.5418583171724592    0.5374232581673067    0.5353899856515244    
  0.5374232581673067    0.5418583171724594    0.5436798118640996    0.5351392782419913    0.5082938471640187    
  0.4594323413221323    0.39270338689512624    0.31941810370434554    0.2528045297643514    0.20235838263231262    
  0.2919234471910073    0.2528045297643514    0.23263231188723688    0.23263231188723696    0.25280452976435147    
  0.29192344719100727    0.3460580458256446    0.40726925441694767    0.46466882065900006    0.5082938471640186    
  0.5333453565632407    0.5415755449940552    0.5391401999760711    0.5330624621657408    0.5286739128558272    
  0.5286739128558273    0.5330624621657409    0.539140199976071    0.5415755449940552    0.5333453565632407    
  0.5082938471640186    0.464668820659    0.40726925441694756    0.3460580458256447    0.2919234471910073    
  0.3863714322625497    0.3460580458256447    0.31941810370434554    0.3101647956405652    0.31941810370434554    
  0.3460580458256447    0.38637143226254966    0.4336528963837058    0.47909669148943584    0.514457994531335    
  0.5351392782419913    0.5415755449940552    0.5381151887517267    0.5305341056540878    0.5238613407442663    
  0.5212820999704086    0.5238613407442664    0.5305341056540879    0.5381151887517267    0.5415755449940554    
  0.5351392782419913    0.514457994531335    0.47909669148943573    0.4336528963837057    0.3863714322625497    
  0.46656819359824697    0.4336528963837057    0.40726925441694756    0.3927033868951262    0.3927033868951263    
  0.40726925441694756    0.4336528963837058    0.46656819359824697    0.4991512331654182    0.5249035705506693    
  0.5398571832353916    0.5436798118640996    0.539140199976071    0.5305341056540879    0.5221087985838464    
  0.5170579774383941    0.5170579774383941    0.5221087985838464    0.5305341056540878    0.539140199976071    
  0.5436798118640996    0.5398571832353914    0.5249035705506693    0.4991512331654182    0.46656819359824697    
  0.5198930275745445    0.4991512331654182    0.47909669148943573    0.464668820659    0.4594323413221323    
  0.464668820659    0.47909669148943573    0.4991512331654182    0.5198930275745445    0.5364940286080285    
  0.5457792854726433    0.5470520230751624    0.5418583171724592    0.5330624621657408    0.5238613407442663    
  0.5170579774383941    0.5145634239946572    0.5170579774383941    0.5238613407442663    0.5330624621657409    
  0.5418583171724594    0.5470520230751623    0.5457792854726432    0.5364940286080286    0.5198930275745445    
  0.545922051105534    0.5364940286080286    0.5249035705506693    0.514457994531335    0.5082938471640185    
  0.5082938471640187    0.5144579945313349    0.5249035705506694    0.5364940286080288    0.545922051105534    
  0.5508233801722248    0.5504055243577751    0.5453756713691661    0.5374232581673067    0.5286739128558272    
  0.5212820999704086    0.5170579774383941    0.5170579774383941    0.5212820999704086    0.5286739128558273    
  0.5374232581673067    0.5453756713691661    0.5504055243577751    0.5508233801722248    0.545922051105534    
  0.5533286675261416    0.5508233801722248    0.5457792854726433    0.5398571832353914    0.5351392782419911    
  0.5333453565632407    0.5351392782419913    0.5398571832353916    0.5457792854726433    0.5508233801722248    
  0.5533286675261415    0.5525464365344605    0.5486655815630475    0.5425361488281668    0.5353899856515244    
  0.5286739128558273    0.5238613407442665    0.5221087985838464    0.5238613407442663    0.5286739128558273    
  0.5353899856515244    0.5425361488281668    0.5486655815630477    0.5525464365344605    0.5533286675261416    
  0.5527673209739695    0.5525464365344606    0.5504055243577751    0.5470520230751623    0.5436798118640996    
  0.5415755449940554    0.5415755449940552    0.5436798118640996    0.5470520230751624    0.5504055243577751    
  0.5525464365344605    0.5527673209739695    0.5509288815815617    0.5473226247843822    0.5425361488281668    
  0.5374232581673067    0.5330624621657409    0.5305341056540879    0.5305341056540878    0.5330624621657409    
  0.5374232581673067    0.5425361488281668    0.5473226247843823    0.5509288815815618    0.5527673209739695    
  0.5517265196308573    0.5509288815815618    0.5486655815630476    0.5453756713691661    0.5418583171724592    
  0.539140199976071    0.5381151887517267    0.5391401999760711    0.5418583171724594    0.5453756713691661    
  0.5486655815630475    0.5509288815815618    0.5517265196308572    0.5509288815815617    0.5486655815630475    
  0.5453756713691661    0.5418583171724594    0.5391401999760711    0.5381151887517267    0.539140199976071    
  0.5418583171724592    0.5453756713691661    0.5486655815630476    0.5509288815815618    0.5517265196308573    
  0.5527673209739695    0.5509288815815618    0.5473226247843823    0.5425361488281668    0.5374232581673067    
  0.5330624621657409    0.5305341056540878    0.5305341056540879    0.5330624621657409    0.5374232581673067    
  0.5425361488281668    0.5473226247843822    0.5509288815815618    0.5527673209739694    0.5525464365344605    
  0.5504055243577751    0.5470520230751624    0.5436798118640997    0.5415755449940552    0.5415755449940554    
  0.5436798118640996    0.5470520230751623    0.5504055243577751    0.5525464365344605    0.5527673209739695    
  0.5533286675261416    0.5525464365344606    0.5486655815630477    0.5425361488281668    0.5353899856515244    
  0.5286739128558273    0.5238613407442663    0.5221087985838464    0.5238613407442665    0.5286739128558273    
  0.5353899856515244    0.5425361488281668    0.5486655815630475    0.5525464365344605    0.5533286675261415    
  0.5508233801722249    0.5457792854726433    0.5398571832353917    0.5351392782419913    0.5333453565632408    
  0.5351392782419911    0.5398571832353914    0.5457792854726433    0.5508233801722249    0.5533286675261416    
  0.5459220511055342    0.5508233801722248    0.550405524357775    0.5453756713691661    0.5374232581673067    
  0.5286739128558272    0.5212820999704086    0.5170579774383941    0.5170579774383941    0.5212820999704086    
  0.5286739128558273    0.5374232581673068    0.5453756713691661    0.5504055243577751    0.5508233801722248    
  0.545922051105534    0.5364940286080288    0.5249035705506694    0.5144579945313349    0.5082938471640187    
  0.5082938471640186    0.5144579945313349    0.5249035705506694    0.5364940286080286    0.5459220511055342    
  0.5198930275745445    0.5364940286080286    0.5457792854726432    0.5470520230751622    0.5418583171724594    
  0.5330624621657409    0.5238613407442663    0.5170579774383941    0.5145634239946572    0.5170579774383941    
  0.5238613407442663    0.5330624621657409    0.5418583171724592    0.5470520230751623    0.5457792854726433    
  0.5364940286080285    0.5198930275745445    0.4991512331654182    0.47909669148943573    0.464668820659    
  0.4594323413221323    0.464668820659    0.47909669148943573    0.4991512331654182    0.5198930275745445    
  0.46656819359824697    0.4991512331654182    0.5249035705506693    0.5398571832353916    0.5436798118640996    
  0.5391401999760711    0.5305341056540878    0.5221087985838464    0.5170579774383941    0.5170579774383941    
  0.5221087985838464    0.5305341056540879    0.5391401999760711    0.5436798118640996    0.5398571832353914    
  0.5249035705506694    0.4991512331654183    0.46656819359824686    0.4336528963837058    0.4072692544169476    
  0.39270338689512635    0.39270338689512624    0.40726925441694756    0.4336528963837057    0.46656819359824697    
  0.3863714322625497    0.4336528963837057    0.47909669148943573    0.514457994531335    0.5351392782419913    
  0.5415755449940554    0.5381151887517267    0.5305341056540879    0.5238613407442664    0.5212820999704086    
  0.5238613407442663    0.5305341056540879    0.5381151887517267    0.5415755449940552    0.5351392782419913    
  0.514457994531335    0.47909669148943584    0.4336528963837058    0.38637143226254966    0.3460580458256447    
  0.31941810370434554    0.3101647956405652    0.31941810370434554    0.3460580458256447    0.3863714322625497    
  0.2919234471910073    0.34605804582564476    0.40726925441694756    0.464668820659    0.5082938471640186    
  0.5333453565632407    0.5415755449940552    0.5391401999760711    0.5330624621657408    0.5286739128558273    
  0.5286739128558272    0.5330624621657409    0.539140199976071    0.5415755449940552    0.5333453565632408    
  0.5082938471640186    0.464668820659    0.4072692544169476    0.34605804582564464    0.29192344719100727    
  0.25280452976435147    0.23263231188723688    0.23263231188723688    0.2528045297643514    0.2919234471910073    
  0.20235838263231262    0.2528045297643514    0.31941810370434554    0.3927033868951262    0.4594323413221323    
  0.5082938471640187    0.5351392782419913    0.5436798118640996    0.5418583171724594    0.5374232581673067    
  0.5353899856515244    0.5374232581673067    0.5418583171724592    0.5436798118640996    0.5351392782419913    
  0.5082938471640186    0.4594323413221324    0.39270338689512624    0.3194181037043454    0.2528045297643514    
  0.2023583826323126    0.17197271954594384    0.1619522750036869    0.17197271954594381    0.20235838263231262    
  0.13269336353171715    0.17197271954594384    0.23263231188723688    0.31016479564056515    0.39270338689512624    
  0.464668820659    0.5144579945313349    0.5398571832353916    0.5470520230751623    0.545375671369166    
  0.5425361488281668    0.5425361488281668    0.5453756713691661    0.5470520230751623    0.5398571832353916    
  0.514457994531335    0.46466882065900006    0.39270338689512635    0.31016479564056515    0.23263231188723701    
  0.17197271954594384    0.132693363531717    0.11397694090208778    0.11397694090208782    0.13269336353171715    
  0.08767233760698459    0.11397694090208782    0.16195227500368684    0.23263231188723688    0.3194181037043454    
  0.40726925441694756    0.47909669148943573    0.5249035705506694    0.5457792854726433    0.5504055243577752    
  0.5486655815630475    0.5473226247843822    0.5486655815630475    0.5504055243577751    0.5457792854726433    
  0.5249035705506693    0.47909669148943596    0.4072692544169477    0.3194181037043454    0.23263231188723701    
  0.1619522750036869    0.11397694090208782    0.0876723376069845    0.07947072066647219    0.08767233760698459    
  0.06406903793577078    0.07947072066647225    0.11397694090208772    0.17197271954594376    0.25280452976435147    
  0.34605804582564476    0.4336528963837058    0.4991512331654182    0.5364940286080288    0.5508233801722249    
  0.5525464365344605    0.5509288815815618    0.5509288815815617    0.5525464365344605    0.5508233801722248    
  0.5364940286080285    0.4991512331654183    0.4336528963837058    0.3460580458256446    0.2528045297643514    
  0.17197271954594384    0.11397694090208778    0.07947072066647215    0.06406903793577072    0.06406903793577078    
  0.05691261383656849    0.06406903793577072    0.08767233760698455    0.13269336353171696    0.20235838263231262    
  0.2919234471910072    0.38637143226254966    0.46656819359824697    0.5198930275745445    0.5459220511055339    
  0.5533286675261415    0.5527673209739694    0.5517265196308572    0.5527673209739694    0.5533286675261415    
  0.5459220511055339    0.5198930275745445    0.46656819359824697    0.38637143226254966    0.29192344719100727    
  0.20235838263231262    0.132693363531717    0.08767233760698455    0.06406903793577072    0.05691261383656849    
  0.0892699381137508    0.09765403010363218    0.12427694765368252    0.17204941618135808    0.24114108183864766    
  0.3244093807552861    0.40710836718429233    0.4732340833040094    0.5140081909173606    0.5312176766383763    
  0.533589931109341    0.530704102063295    0.5290184025715158    0.530704102063295    0.533589931109341    
  0.5312176766383763    0.5140081909173606    0.4732340833040094    0.40710836718429233    0.32440938075528614    
  0.24114108183864766    0.1720494161813581    0.12427694765368252    0.09765403010363218    0.0892699381137508    
  0.09765403010363222    0.09765403010363218    0.11518170084217812    0.1525705269868629    0.2115665458884162    
  0.2886569324040553    0.3723601930130035    0.44652673007706306    0.4984815768164137    0.5252512827723194    
  0.532943314533676    0.5312551948530515    0.5282980381710815    0.5282980381710813    0.5312551948530515    
  0.5329433145336762    0.5252512827723195    0.4984815768164139    0.44652673007706306    0.3723601930130036    