#     DFTpy    
  CRYSTAL 
    
  PRIMVEC    
  1.7259437160277005    -2.9894222071642105    0.0    
  1.7259437160277005    2.9894222071642105    0.0    
  0.0    0.0    3.2487840585517205    
  PRIMCOORD    
  1    1    
  Si    0.0    0.0    0.0    
  BEGIN_BLOCK_DATAGRID_3D    
  3d_datagrid_density    
  BEGIN_DATAGRID_3D#0    
  37    37    33    
  0.0    0.0    0.0    
  1.7259437224655034    -2.9894222183148123    0.0    
  1.7259437224655034    2.9894222183148123    0.0    
  0.0    0.0    3.248784070669747    
  0.059584661252612685    0.06662953425907638    0.08951267888293123    0.1316509648328564    0.19277648351784613    
  0.2630752931604507    0.3237893967709466    0.35699268227269576    0.35632140004150004    0.32856428509313074    
  0.2865771500268348    0.2416846852808044    0.2006661011072877    0.16641853413008223    0.13958561896180788    
  0.11977652417186581    0.10627696819369109    0.0984435432168797    0.09587583657738079    0.0984435432168797    
  0.10627696819369109    0.11977652417186585    0.13958561896180788    0.1664185341300822    0.2006661011072877    
  0.24168468528080433    0.2865771500268348    0.3285642850931308    0.35632140004150004    0.3569926822726958    
  0.3237893967709466    0.2630752931604507    0.19277648351784613    0.1316509648328563    0.08951267888293123    
  0.0666295342590764    0.059584661252612685    0.06662953425907635    0.06662953425907636    0.08162283913229088    
  0.11437872057875549    0.1667616260941495    0.23367221959033188    0.30000687399679055    0.34639566839436486    
  0.36058088594439996    0.34375114986622934    0.30682065925817703    0.26229079719477394    0.21901689155865364    
  0.18147997513681244    0.151194126523788    0.12814990143637436    0.11172684110550025    0.10121613235140615    
  0.0960910834934162    0.09609108349341618    0.10121613235140615    0.1117268411055002    0.12814990143637442    
  0.15119412652378797    0.1814799751368124    0.21901689155865364    0.26229079719477394    0.3068206592581771    
  0.34375114986622934    0.36058088594439985    0.34639566839436486    0.3000068739967904    0.23367221959033194    
  0.16676162609414946    0.11437872057875549    0.08162283913229088    0.06662953425907635    0.0895126788829312    
  0.08162283913229086    0.08951267888293123    0.11437872057875552    0.1579698397513635    0.21774551609603857    
  0.2825805881488573    0.33480923889364644    0.35944495045505753    0.3527052637073432    0.3220948998639123    
  0.27965384778838187    0.23551349895306437    0.19560975588832177    0.16243338503412433    0.13648320291056606    
  0.1173351767937286    0.10428345734872878    0.09670604814557694    0.09422128650137578    0.09670604814557693    
  0.10428345734872875    0.11733517679372857    0.1364832029105661    0.16243338503412433    0.19560975588832175    
  0.23551349895306437    0.27965384778838187    0.3220948998639122    0.3527052637073432    0.35944495045505753    
  0.3348092388936465    0.28258058814885734    0.21774551609603857    0.15796983975136344    0.11437872057875549    
  0.0895126788829312    0.13165096483285638    0.11437872057875548    0.11437872057875545    0.1316509648328564    
  0.16676162609414946    0.2177455160960385    0.2762534642400971    0.32752785651824223    0.35669726108376415    
  0.35696999598198953    0.3322955794348926    0.29295049518688954    0.24922630683700184    0.20802004190276896    
  0.17271041201365805    0.14435912425868574    0.12282239447681782    0.10747205670268148    0.09763754516300376    
  0.09283680137350613    0.09283680137350613    0.09763754516300371    0.1074720567026815    0.12282239447681781    
  0.1443591242586858    0.172710412013658    0.20802004190276893    0.2492263068370019    0.29295049518688954    
  0.3322955794348925    0.35696999598198953    0.35669726108376415    0.3275278565182423    0.27625346424009706    
  0.21774551609603862    0.16676162609414946    0.13165096483285638    0.19277648351784607    0.16676162609414943    
  0.1579698397513635    0.16676162609414946    0.19277648351784613    0.23367221959033188    0.2825805881488573    
  0.3275278565182422    0.3553957636945335    0.358460884955703    0.33795470645390285    0.3018076560245703    
  0.2594400911267248    0.21799290442027275    0.1814374134351596    0.1513435520245256    0.12788730208728652    
  0.11058384990413109    0.09877033918837753    0.09189694313403968    0.089639770275193    0.09189694313403965    
  0.09877033918837753    0.11058384990413107    0.12788730208728655    0.15134355202452562    0.1814374134351596    
  0.2179929044202728    0.2594400911267248    0.30180765602457044    0.3379547064539028    0.35846088495570305    
  0.3553957636945335    0.32752785651824223    0.2825805881488572    0.23367221959033188    0.19277648351784607    
  0.26307529316045075    0.23367221959033188    0.21774551609603857    0.21774551609603862    0.23367221959033194    
  0.26307529316045064    0.30000687399679055    0.33480923889364644    0.3566972610837642    0.358460884955703    
  0.3397427288350737    0.30619624883322855    0.2657084915082907    0.22495797137715343    0.18808999377147081    
  0.1570225467411129    0.1322312028742151    0.11341525669756937    0.09997497831803769    0.09133483781503814    
  0.08710509205404163    0.08710509205404161    0.09133483781503816    0.09997497831803766    0.11341525669756934    
  0.1322312028742151    0.15702254674111293    0.18808999377147081    0.22495797137715348    0.26570849150829057    
  0.3061962488332286    0.3397427288350737    0.358460884955703    0.35669726108376415    0.33480923889364644    
  0.30000687399679055    0.26307529316045075    0.32378939677094654    0.30000687399679055    0.2825805881488573    
  0.2762534642400971    0.2825805881488573    0.3000068739967905    0.3237893967709466    0.34639566839436486    
  0.35944495045505753    0.3569699959819895    0.33795470645390285    0.3061962488332286    0.26781749982672365    
  0.22853388987376583    0.19225674758422384    0.16103694508628294    0.13557718675070166    0.1157682438189897    
  0.1011166459438341    0.09106660667009371    0.08519328554681928    0.08325960541102496    0.08519328554681932    
  0.0910666066700937    0.10111664594383409    0.11576824381898965    0.13557718675070166    0.16103694508628302    
  0.1922567475842238    0.22853388987376577    0.26781749982672365    0.3061962488332286    0.3379547064539028    
  0.3569699959819894    0.35944495045505753    0.34639566839436486    0.32378939677094654    0.3569926822726958    
  0.34639566839436486    0.33480923889364655    0.32752785651824234    0.3275278565182423    0.33480923889364644    
  0.34639566839436486    0.3569926822726958    0.3605808859443999    0.35270526370734323    0.3322955794348926    
  0.30180765602457044    0.2657084915082906    0.22853388987376583    0.1936756549357922    0.163117188179934    
  0.13769213525704188    0.11746125948712195    0.10206093216141734    0.0909958058324315    0.08384045652794953    
  0.08032366816692275    0.08032366816692281    0.08384045652794951    0.0909958058324315    0.10206093216141732    
  0.11746125948712192    0.13769213525704194    0.16311718817993404    0.19367565493579217    0.22853388987376583    
  0.2657084915082906    0.3018076560245705    0.3322955794348925    0.3527052637073432    0.36058088594439985    
  0.3569926822726958    0.35632140004150015    0.3605808859443999    0.35944495045505753    0.35669726108376415    
  0.3553957636945335    0.35669726108376415    0.35944495045505753    0.36058088594439985    0.3563214000415001    
  0.34375114986622934    0.3220948998639122    0.29295049518688954    0.2594400911267247    0.22495797137715343    
  0.19225674758422384    0.16311718817993398    0.1384162565788187    0.11834901755439237    0.10268633878969459    
  0.09102243320747903    0.08296503727622476    0.07823287134490825    0.07667134036345398    0.07823287134490825    
  0.08296503727622474    0.09102243320747903    0.10268633878969456    0.11834901755439237    0.13841625657881873    
  0.16311718817993406    0.19225674758422384    0.22495797137715343    0.2594400911267247    0.29295049518688954    
  0.3220948998639122    0.34375114986622934    0.35632140004150015    0.32856428509313085    0.34375114986622934    
  0.3527052637073432    0.3569699959819895    0.358460884955703    0.358460884955703    0.35696999598198953    
  0.3527052637073432    0.34375114986622934    0.3285642850931308    0.30682065925817703    0.27965384778838187    
  0.24922630683700184    0.21799290442027275    0.18808999377147081    0.16103694508628297    0.1376921352570419    
  0.11834901755439237    0.10290550244059726    0.09106078497846706    0.08248305491915474    0.07690620242254802    
  0.07415864214749009    0.07415864214749006    0.07690620242254805    0.08248305491915474    0.09106078497846705    
  0.10290550244059726    0.1183490175543924    0.13769213525704188    0.161036945086283    0.18808999377147081    
  0.2179929044202728    0.24922630683700173    0.27965384778838187    0.306820659258177    0.32856428509313085    
  0.2865771500268349    0.3068206592581771    0.3220948998639122    0.3322955794348925    0.3379547064539028    
  0.33974272883507367    0.3379547064539028    0.3322955794348925    0.32209489986391227    0.306820659258177    
  0.2865771500268348    0.26229079719477394    0.23551349895306437    0.20802004190276893    0.1814374134351596    
  0.1570225467411129    0.13557718675070168    0.11746125948712192    0.10268633878969459    0.09106078497846706    
  0.08233041516200401    0.07626663114609938    0.07269892805629354    0.07152174586123379    0.07269892805629351    
  0.07626663114609937    0.08233041516200403    0.09106078497846708    0.10268633878969459    0.11746125948712195    
  0.13557718675070168    0.157022546741113    0.18143741343515965    0.2080200419027689    0.2355134989530643    
  0.26229079719477394    0.2865771500268349    0.2416846852808044    0.26229079719477394    0.27965384778838187    
  0.29295049518688954    0.3018076560245705    0.3061962488332286    0.3061962488332286    0.30180765602457044    
  0.29295049518688954    0.2796538477883819    0.262290797194774    0.24168468528080433    0.21901689155865367    
  0.19560975588832177    0.17271041201365803    0.1513435520245256    0.1322312028742151    0.1157682438189897    
  0.10206093216141734    0.09102243320747903    0.08248305491915474    0.07626663114609937    0.07222153783733731    
  0.07023177518539817    0.0702317751853982    0.07222153783733724    0.07626663114609937    0.08248305491915475    
  0.09102243320747909    0.1020609321614173    0.1157682438189897    0.1322312028742151    0.15134355202452562    
  0.172710412013658    0.19560975588832175    0.21901689155865364    0.2416846852808044    0.2006661011072877    
  0.21901689155865364    0.23551349895306437    0.24922630683700178    0.2594400911267248    0.2657084915082906    
  0.26781749982672365    0.2657084915082906    0.2594400911267247    0.24922630683700184    0.23551349895306437    
  0.21901689155865364    0.2006661011072877    0.18147997513681244    0.16243338503412433    0.14435912425868577    
  0.12788730208728652    0.11341525669756934    0.1011166459438341    0.0909958058324315    0.08296503727622474    
  0.07690620242254799    0.07269892805629354    0.07023177518539815    0.06942017987837912    0.07023177518539817    
  0.0726989280562935    0.07690620242254802    0.08296503727622473    0.09099580583243147    0.10111664594383407    
  0.11341525669756933    0.12788730208728658    0.14435912425868577    0.16243338503412436    0.18147997513681238    
  0.2006661011072877    0.16641853413008223    0.1814799751368124    0.19560975588832175    0.20802004190276893    
  0.2179929044202728    0.22495797137715348    0.22853388987376583    0.22853388987376583    0.22495797137715343    
  0.2179929044202728    0.20802004190276893    0.19560975588832175    0.1814799751368124    0.16641853413008223    
  0.15119412652378797    0.1364832029105661    0.12282239447681785    0.11058384990413107    0.09997497831803769    
  0.09106660667009371    0.08384045652794951    0.07823287134490821    0.07415864214749006    0.0715217458612338    
  0.07023177518539815    0.07023177518539815    0.07152174586123379    0.07415864214749009    0.07823287134490828    
  0.08384045652794954    0.09106660667009368    0.09997497831803766    0.11058384990413114    0.12282239447681778    
  0.13648320291056612    0.151194126523788    0.16641853413008223    0.13958561896180785    0.151194126523788    
  0.16243338503412433    0.172710412013658    0.1814374134351596    0.18808999377147084    0.19225674758422387    
  0.1936756549357922    0.19225674758422387    0.18808999377147081    0.1814374134351596    0.172710412013658    
  0.16243338503412433    0.151194126523788    0.13958561896180785    0.12814990143637436    0.11733517679372857    
  0.10747205670268145    0.09877033918837753    0.09133483781503814    0.08519328554681925    0.08032366816692277    
  0.07667134036345397    0.07415864214749003    0.07269892805629354    0.07222153783733729    0.07269892805629352    
  0.07415864214749006    0.07667134036345394    0.08032366816692278    0.08519328554681928    0.0913348378150382    
  0.09877033918837753    0.10747205670268144    0.1173351767937286    0.12814990143637442    0.13958561896180785    
  0.11977652417186588    0.12814990143637445    0.13648320291056606    0.1443591242586858    0.15134355202452562    
  0.15702254674111296    0.16103694508628302    0.163117188179934    0.16311718817993404    0.16103694508628302    
  0.15702254674111296    0.1513435520245256    0.14435912425868583    0.13648320291056612    0.12814990143637442    
  0.11977652417186585    0.11172684110550023    0.10428345734872878    0.09763754516300376    0.09189694313403968    
  0.08710509205404163    0.08325960541102496    0.08032366816692278    0.07823287134490821    0.07690620242254803    
  0.07626663114609937    0.07626663114609934    0.07690620242254806    0.07823287134490824    0.08032366816692268    
  0.08325960541102502    0.08710509205404164    0.0918969431340397    0.09763754516300364    0.10428345734872875    
  0.11172684110550025    0.11977652417186588    0.10627696819369113    0.11172684110550025    0.11733517679372853    
  0.12282239447681785    0.1278873020872866    0.13223120287421514    0.13557718675070168    0.13769213525704194    
  0.13841625657881876    0.1376921352570419    0.13557718675070168    0.13223120287421508    0.12788730208728655    
  0.12282239447681782    0.11733517679372857    0.1117268411055002    0.10627696819369109    0.10121613235140615    
  0.09670604814557694    0.0928368013735061    0.08963977027519303    0.0871050920540416    0.08519328554681929    
  0.08384045652794951    0.08296503727622477    0.08248305491915471    0.08233041516200398    0.08248305491915474    
  0.08296503727622478    0.08384045652794951    0.08519328554681926    0.08710509205404166    0.08963977027519308    
  0.09283680137350614    0.09670604814557689    0.10121613235140617    0.10627696819369113    0.09844354321687973    
  0.10121613235140615    0.10428345734872875    0.10747205670268148    0.11058384990413112    0.11341525669756934    
  0.1157682438189897    0.11746125948712195    0.1183490175543924    0.11834901755439237    0.11746125948712192    
  0.11576824381898965    0.11341525669756937    0.11058384990413109    0.1074720567026815    0.10428345734872875    
  0.10121613235140615    0.0984435432168797    0.0960910834934162    0.09422128650137578    0.09283680137350611    
  0.09189694313403966    0.09133483781503816    0.0910666066700937    0.0909958058324315    0.09102243320747905    
  0.09106078497846704    0.09106078497846706    0.09102243320747906    0.09099580583243147    0.0910666066700937    
  0.09133483781503818    0.09189694313403968    0.09283680137350607    0.09422128650137575    0.0960910834934162    
  0.09844354321687973    0.09587583657738079    0.09609108349341615    0.09670604814557691    0.09763754516300374    
  0.09877033918837753    0.09997497831803764    0.1011166459438341    0.10206093216141732    0.10268633878969456    
  0.10290550244059724    0.10268633878969456    0.10206093216141729    0.10111664594383411    0.09997497831803766    
  0.09877033918837753    0.0976375451630037    0.09670604814557691    0.09609108349341618    0.09587583657738079    
  0.09609108349341618    0.09670604814557691    0.09763754516300371    0.09877033918837753    0.09997497831803764    
  0.10111664594383411    0.10206093216141732    0.10268633878969456    0.10290550244059722    0.10268633878969456    
  0.10206093216141729    0.1011166459438341    0.09997497831803766    0.09877033918837755    0.09763754516300369    
  0.09670604814557691    0.09609108349341618    0.09587583657738079    0.09844354321687976    0.09609108349341616    
  0.0942212865013757    0.09283680137350613    0.09189694313403968    0.09133483781503814    0.0910666066700937    
  0.09099580583243146    0.09102243320747906    0.09106078497846706    0.09106078497846708    0.09102243320747902    
  0.0909958058324315    0.09106660667009372    0.09133483781503815    0.09189694313403964    0.09283680137350611    
  0.09422128650137578    0.0960910834934162    0.0984435432168797    0.10121613235140615    0.10428345734872875    
  0.10747205670268148    0.11058384990413109    0.11341525669756937    0.11576824381898967    0.11746125948712192    
  0.11834901755439237    0.11834901755439237    0.11746125948712191    0.11576824381898967    0.11341525669756937    
  0.11058384990413114    0.10747205670268144    0.10428345734872876    0.10121613235140618    0.09844354321687976    
  0.10627696819369113    0.10121613235140615    0.09670604814557689    0.09283680137350615    0.08963977027519307    
  0.08710509205404166    0.08519328554681926    0.08384045652794951    0.0829650372762248    0.08248305491915475    
  0.082330415162004    0.08248305491915471    0.08296503727622477    0.08384045652794954    0.08519328554681929    
  0.0871050920540416    0.08963977027519303    0.09283680137350611    0.09670604814557694    0.10121613235140614    
  0.10627696819369109    0.11172684110550023    0.11733517679372857    0.12282239447681781    0.12788730208728655    
  0.1322312028742151    0.13557718675070166    0.1376921352570419    0.13841625657881873    0.13769213525704194    
  0.13557718675070168    0.13223120287421514    0.1278873020872866    0.12282239447681781    0.11733517679372853    
  0.11172684110550028    0.10627696819369113    0.11977652417186585    0.11172684110550025    0.10428345734872875    
  0.0976375451630037    0.09189694313403968    0.08710509205404164    0.08325960541102499    0.08032366816692278    
  0.07823287134490825    0.07690620242254806    0.07626663114609937    0.07626663114609937    0.07690620242254805    
  0.07823287134490825    0.08032366816692278    0.08325960541102496    0.08710509205404164    0.09189694313403968    
  0.09763754516300376    0.10428345734872875    0.11172684110550023    0.11977652417186584    0.12814990143637442    
  0.1364832029105661    0.14435912425868583    0.15134355202452562    0.15702254674111293    0.16103694508628302    
  0.16311718817993404    0.16311718817993404    0.16103694508628302    0.157022546741113    0.15134355202452562    
  0.14435912425868572    0.13648320291056606    0.12814990143637442    0.11977652417186585    0.13958561896180785    
  0.12814990143637442    0.11733517679372857    0.10747205670268148    0.09877033918837753    0.09133483781503818    
  0.08519328554681928    0.08032366816692281    0.07667134036345394    0.07415864214749006    0.07269892805629354    
  0.07222153783733727    0.07269892805629354    0.07415864214749006    0.07667134036345397    0.08032366816692274    
  0.08519328554681925    0.09133483781503814    0.09877033918837753    0.10747205670268145    0.11733517679372857    
  0.12814990143637436    0.13958561896180785    0.15119412652378797    0.16243338503412433    0.172710412013658    
  0.1814374134351596    0.18808999377147081    0.19225674758422387    0.1936756549357922    0.19225674758422387    
  0.18808999377147087    0.1814374134351596    0.17271041201365797    0.16243338503412433    0.151194126523788    
  0.13958561896180785    0.16641853413008223    0.151194126523788    0.1364832029105661    0.12282239447681782    
  0.11058384990413109    0.09997497831803766    0.09106660667009368    0.08384045652794954    0.07823287134490825    
  0.07415864214749006    0.07152174586123382    0.07023177518539815    0.07023177518539818    0.07152174586123379    
  0.07415864214749006    0.07823287134490821    0.08384045652794951    0.09106660667009372    0.09997497831803769    
  0.11058384990413109    0.12282239447681782    0.1364832029105661    0.151194126523788    0.1664185341300822    
  0.18147997513681238    0.19560975588832177    0.20802004190276893    0.2179929044202727    0.22495797137715343    
  0.22853388987376574    0.22853388987376583    0.22495797137715348    0.21799290442027275    0.20802004190276885    
  0.19560975588832175    0.1814799751368124    0.16641853413008223    0.2006661011072877    0.1814799751368124    
  0.16243338503412433    0.14435912425868583    0.12788730208728658    0.11341525669756934    0.10111664594383409    
  0.09099580583243148    0.08296503727622474    0.07690620242254806    0.07269892805629352    0.07023177518539815    
  0.0694201798783791    0.07023177518539818    0.07269892805629354    0.07690620242254798    0.08296503727622474    
  0.0909958058324315    0.1011166459438341    0.11341525669756937    0.12788730208728652    0.14435912425868577    
  0.16243338503412433    0.18147997513681238    0.2006661011072877    0.21901689155865364    0.23551349895306437    
  0.24922630683700178    0.2594400911267247    0.2657084915082906    0.26781749982672365    0.2657084915082907    
  0.2594400911267248    0.24922630683700173    0.23551349895306437    0.21901689155865364    0.2006661011072877    
  0.2416846852808044    0.21901689155865364    0.19560975588832175    0.17271041201365803    0.15134355202452562    
  0.1322312028742151    0.11576824381898965    0.1020609321614173    0.09102243320747906    0.08248305491915475    
  0.0762666311460994    0.07222153783733726    0.07023177518539815    0.07023177518539818    0.07222153783733729    
  0.07626663114609934    0.08248305491915474    0.09102243320747905    0.10206093216141734    0.11576824381898967    
  0.1322312028742151    0.1513435520245256    0.172710412013658    0.19560975588832175    0.21901689155865367    
  0.2416846852808044    0.26229079719477394    0.27965384778838187    0.29295049518688954    0.30180765602457044    
  0.30619624883322855    0.3061962488332286    0.3018076560245705    0.29295049518688954    0.27965384778838187    
  0.26229079719477394    0.2416846852808044    0.2865771500268349    0.26229079719477394    0.2355134989530643    
  0.20802004190276893    0.18143741343515965    0.157022546741113    0.13557718675070168    0.11746125948712198    
  0.10268633878969459    0.09106078497846708    0.08233041516200403    0.07626663114609937    0.07269892805629351    
  0.0715217458612338    0.07269892805629354    0.07626663114609933    0.08233041516200401    0.09106078497846706    
  0.10268633878969459    0.11746125948712195    0.13557718675070168    0.15702254674111293    0.1814374134351596    
  0.2080200419027689    0.23551349895306437    0.2622907971947739    0.2865771500268348    0.306820659258177    
  0.3220948998639122    0.3322955794348926    0.3379547064539028    0.33974272883507367    0.3379547064539028    
  0.3322955794348925    0.3220948998639122    0.30682065925817703    0.2865771500268349    0.32856428509313085    
  0.30682065925817703    0.27965384778838187    0.24922630683700173    0.2179929044202728    0.18808999377147081    
  0.16103694508628297    0.13769213525704194    0.1183490175543924    0.10290550244059729    0.09106078497846706    
  0.08248305491915474    0.07690620242254805    0.07415864214749006    0.07415864214749007    0.07690620242254799    
  0.08248305491915474    0.09106078497846708    0.10290550244059726    0.11834901755439237    0.1376921352570419    
  0.161036945086283    0.18808999377147084    0.2179929044202727    0.24922630683700178    0.27965384778838187    
  0.3068206592581771    0.3285642850931308    0.34375114986622934    0.3527052637073432    0.35696999598198953    
  0.35846088495570305    0.3584608849557031    0.35696999598198953    0.3527052637073432    0.34375114986622934    
  0.32856428509313085    0.35632140004150015    0.34375114986622934    0.3220948998639122    0.29295049518688954    
  0.2594400911267247    0.22495797137715343    0.19225674758422384    0.16311718817993406    0.13841625657881873    
  0.11834901755439237    0.10268633878969459    0.09102243320747902    0.08296503727622477    0.07823287134490826    
  0.07667134036345398    0.07823287134490818    0.08296503727622476    0.09102243320747903    0.10268633878969459    
  0.11834901755439237    0.1384162565788187    0.16311718817993404    0.19225674758422384    0.2249579713771534    
  0.2594400911267247    0.29295049518688954    0.3220948998639122    0.34375114986622934    0.3563214000415001    
  0.36058088594439985    0.35944495045505753    0.35669726108376415    0.3553957636945335    0.3566972610837642    
  0.35944495045505753    0.36058088594439985    0.35632140004150015    0.3569926822726958    0.36058088594439985    
  0.3527052637073432    0.3322955794348925    0.3018076560245705    0.2657084915082906    0.22853388987376583    
  0.1936756549357922    0.163117188179934    0.13769213525704194    0.11746125948712198    0.1020609321614173    
  0.09099580583243148    0.08384045652794954    0.08032366816692278    0.08032366816692274    0.08384045652794953    
  0.09099580583243148    0.10206093216141734    0.11746125948712192    0.13769213525704188    0.163117188179934    
  0.1936756549357922    0.22853388987376583    0.2657084915082907    0.3018076560245704    0.3322955794348926    
  0.35270526370734323    0.36058088594439985    0.35699268227269576    0.34639566839436486    0.33480923889364644    
  0.32752785651824223    0.32752785651824223    0.33480923889364655    0.34639566839436486    0.3569926822726958    
  0.3237893967709466    0.34639566839436486    0.35944495045505753    0.35696999598198953    0.3379547064539028    
  0.3061962488332286    0.26781749982672365    0.22853388987376577    0.19225674758422384    0.16103694508628302    
  0.13557718675070168    0.11576824381898967    0.10111664594383409    0.09106660667009374    0.08519328554681932    
  0.08325960541102495    0.08519328554681928    0.09106660667009371    0.1011166459438341    0.11576824381898967    
  0.13557718675070168    0.16103694508628297    0.19225674758422384    0.22853388987376577    0.26781749982672365    
  0.30619624883322855    0.3379547064539028    0.35696999598198953    0.35944495045505753    0.34639566839436486    
  0.3237893967709466    0.3000068739967905    0.2825805881488573    0.27625346424009706    0.2825805881488573    
  0.30000687399679044    0.3237893967709466    0.26307529316045075    0.30000687399679055    0.33480923889364655    
  0.35669726108376415    0.358460884955703    0.33974272883507367    0.3061962488332286    0.2657084915082906    
  0.22495797137715343    0.18808999377147084    0.157022546741113    0.1322312028742151    0.11341525669756934    
  0.09997497831803769    0.09133483781503814    0.08710509205404159    0.08710509205404164    0.09133483781503814    
  0.09997497831803769    0.11341525669756937    0.1322312028742151    0.1570225467411129    0.18808999377147081    
  0.2249579713771534    0.2657084915082906    0.3061962488332286    0.33974272883507367    0.35846088495570305    
  0.35669726108376415    0.33480923889364644    0.30000687399679055    0.26307529316045064    0.233672219590332    
  0.2177455160960385    0.21774551609603862    0.23367221959033188    0.26307529316045075    0.19277648351784607    
  0.23367221959033188    0.2825805881488572    0.3275278565182423    0.35539576369453346    0.3584608849557031    
  0.3379547064539028    0.30180765602457044    0.2594400911267248    0.21799290442027275    0.1814374134351596    
  0.15134355202452562    0.12788730208728655    0.11058384990413112    0.09877033918837753    0.09189694313403961    
  0.089639770275193    0.09189694313403968    0.09877033918837753    0.11058384990413109    0.12788730208728652    
  0.1513435520245256    0.1814374134351596    0.2179929044202727    0.2594400911267248    0.30180765602457044    
  0.33795470645390285    0.358460884955703    0.3553957636945335    0.3275278565182423    0.2825805881488573    
  0.23367221959033188    0.19277648351784613    0.16676162609414943    0.1579698397513635    0.16676162609414943    
  0.19277648351784607    0.13165096483285638    0.16676162609414946    0.21774551609603862    0.2762534642400971    
  0.3275278565182423    0.35669726108376415    0.35696999598198953    0.3322955794348925    0.29295049518688954    
  0.24922630683700178    0.20802004190276893    0.172710412013658    0.14435912425868583    0.12282239447681785    
  0.1074720567026815    0.09763754516300369    0.09283680137350611    0.09283680137350613    0.09763754516300376    
  0.10747205670268145    0.12282239447681782    0.14435912425868577    0.17271041201365805    0.20802004190276893    
  0.24922630683700178    0.29295049518688954    0.3322955794348925    0.35696999598198953    0.35669726108376415    
  0.3275278565182422    0.2762534642400971    0.21774551609603857    0.16676162609414952    0.1316509648328563    
  0.11437872057875549    0.11437872057875552    0.13165096483285638    0.0895126788829312    0.11437872057875545    