#     DFTpy    
  CRYSTAL 
    
  PRIMVEC    
  1.3464168255922901    -2.3320623500914506    0.0    
  1.3464168255922901    2.3320623500914506    0.0    
  0.0    0.0    2.5343917524827604    
  PRIMCOORD    
  1    1    
  Si    0.0    0.0    0.0    
  BEGIN_BLOCK_DATAGRID_3D    
  3d_datagrid_density    
  BEGIN_DATAGRID_3D#0    
  26    26    25    
  0.0    0.0    0.0    
  1.3464168306144506    -2.3320623587900875    0.0    
  1.3464168306144506    2.3320623587900875    0.0    
  0.0    0.0    2.53439176193609    
  0.0513657341980041    0.059700311524538856    0.08766214604484639    0.14081107639671114    0.2177019119034135    
  0.301341647392114    0.3653200481458337    0.3926122158959984    0.38604879329223735    0.3609061332319607    
  0.3322861882368725    0.3095647659868198    0.29729889260534637    0.29729889260534637    0.3095647659868198    
  0.3322861882368725    0.3609061332319607    0.38604879329223735    0.3926122158959984    0.3653200481458337    
  0.301341647392114    0.2177019119034135    0.14081107639671114    0.08766214604484639    0.059700311524538856    
  0.0513657341980041    0.05970031152453881    0.059700311524538856    0.07790202869881531    0.11891458684057823    
  0.185269928209692    0.2673090184495447    0.34158496135195593    0.385201897044563    0.3920536158369928    
  0.3731050517687757    0.3444445108844763    0.31804262829254254    0.30031403522064715    0.2941289845323706    
  0.3003140352206472    0.31804262829254254    0.3444445108844764    0.3731050517687757    0.3920536158369927    
  0.38520189704456304    0.3415849613519559    0.26730901844954474    0.1852699282096919    0.11891458684057829    
  0.07790202869881525    0.05970031152453881    0.08766214604484641    0.07790202869881525    0.08766214604484639    
  0.11891458684057833    0.17421343397505715    0.24833856718031774    0.3231159237945131    0.3753608957353225    
  0.3928435283130633    0.38076276104619344    0.35373197951752383    0.3251036401484184    0.3029154531150623    
  0.2910453588394345    0.2910453588394345    0.3029154531150623    0.3251036401484185    0.35373197951752383    
  0.3807627610461934    0.3928435283130633    0.37536089573532255    0.32311592379451315    0.2483385671803177    
  0.17421343397505712    0.11891458684057833    0.08766214604484641    0.14081107639671117    0.11891458684057829    
  0.11891458684057833    0.14081107639671114    0.18526992820969204    0.2483385671803178    0.3162381777937853    
  0.36873973019497425    0.391457901245302    0.3846907664414821    0.35994637823372355    0.33035321398284323    
  0.3048957226550154    0.2882417940314183    0.2824866288874247    0.2882417940314183    0.30489572265501547    
  0.33035321398284323    0.3599463782337235    0.38469076644148203    0.391457901245302    0.36873973019497425    
  0.3162381777937854    0.24833856718031774    0.18526992820969196    0.14081107639671117    0.21770191190341348    
  0.18526992820969193    0.17421343397505717    0.1852699282096919    0.2177019119034135    0.26730901844954474    
  0.3231159237945131    0.36873973019497425    0.3906358224485802    0.3861859039765828    0.3633749108786131    
  0.3337071424979283    0.3061784130917325    0.2858822779227735    0.2752445110295938    0.27524451102959374    
  0.28588227792277354    0.3061784130917325    0.33370714249792827    0.36337491087861323    0.3861859039765827    
  0.3906358224485802    0.36873973019497425    0.32311592379451315    0.2673090184495447    0.21770191190341348    
  0.301341647392114    0.26730901844954474    0.2483385671803177    0.24833856718031774    0.26730901844954474    
  0.301341647392114    0.34158496135195593    0.37536089573532255    0.39145790124530205    0.38618590397658276    
  0.36445134348237296    0.3353050908343532    0.3068427347232824    0.2841409027327151    0.2697690362598252    
  0.2648689549470467    0.26976903625982523    0.2841409027327151    0.3068427347232824    0.3353050908343532    
  0.36445134348237296    0.38618590397658276    0.391457901245302    0.3753608957353225    0.341584961351956    
  0.301341647392114    0.36532004814583363    0.3415849613519558    0.3231159237945131    0.3162381777937853    
  0.3231159237945131    0.341584961351956    0.3653200481458337    0.385201897044563    0.3928435283130632    
  0.3846907664414821    0.3633749108786132    0.3353050908343533    0.3070391910824804    0.28320418251942886    
  0.26636428220184644    0.2577182225198612    0.2577182225198612    0.2663642822018463    0.28320418251942886    
  0.3070391910824804    0.3353050908343533    0.3633749108786131    0.384690766441482    0.3928435283130633    
  0.385201897044563    0.36532004814583363    0.3926122158959983    0.385201897044563    0.3753608957353225    
  0.36873973019497425    0.36873973019497436    0.37536089573532255    0.3852018970445629    0.3926122158959983    
  0.39205361583699283    0.3807627610461935    0.3599463782337235    0.33370714249792827    0.3068427347232824    
  0.28320418251942886    0.26520929713008196    0.25409136158740686    0.25034572726153614    0.25409136158740686    
  0.265209297130082    0.28320418251942886    0.3068427347232824    0.3337071424979284    0.35994637823372355    
  0.38076276104619333    0.39205361583699283    0.3926122158959983    0.3860487932922373    0.3920536158369927    
  0.39284352831306324    0.391457901245302    0.3906358224485803    0.391457901245302    0.39284352831306324    
  0.3920536158369928    0.38604879329223735    0.37310505176877584    0.3537319795175238    0.33035321398284323    
  0.3061784130917325    0.28414090273271503    0.2663642822018464    0.25409136158740686    0.24787455146457082    
  0.24787455146457074    0.2540913615874069    0.2663642822018464    0.28414090273271503    0.30617841309173255    
  0.33035321398284323    0.35373197951752383    0.37310505176877556    0.3860487932922373    0.3609061332319606    
  0.3731050517687757    0.38076276104619333    0.38469076644148203    0.38618590397658276    0.38618590397658265    
  0.38469076644148203    0.38076276104619344    0.3731050517687757    0.3609061332319607    0.3444445108844763    
  0.32510364014841847    0.3048957226550154    0.2858822779227735    0.26976903625982523    0.25771822251986115    
  0.25034572726153603    0.24787455146457074    0.2503457272615361    0.25771822251986115    0.2697690362598252    
  0.2858822779227735    0.30489572265501536    0.3251036401484184    0.34444451088447636    0.3609061332319606    
  0.33228618823687245    0.3444445108844763    0.35373197951752383    0.3599463782337234    0.36337491087861323    
  0.3644513434823729    0.3633749108786131    0.3599463782337235    0.35373197951752383    0.3444445108844764    
  0.3322861882368725    0.31804262829254254    0.3029154531150623    0.2882417940314183    0.2752445110295938    
  0.2648689549470467    0.2577182225198612    0.25409136158740686    0.25409136158740686    0.25771822251986115    
  0.2648689549470467    0.2752445110295938    0.28824179403141825    0.3029154531150623    0.31804262829254254    
  0.33228618823687245    0.30956476598681976    0.31804262829254254    0.3251036401484184    0.3303532139828431    
  0.3337071424979283    0.3353050908343533    0.3353050908343533    0.33370714249792827    0.33035321398284323    
  0.32510364014841847    0.3180426282925425    0.3095647659868198    0.30031403522064715    0.2910453588394345    
  0.2824866288874247    0.2752445110295938    0.26976903625982523    0.2663642822018464    0.265209297130082    
  0.2663642822018464    0.26976903625982523    0.2752445110295938    0.2824866288874246    0.2910453588394345    
  0.30031403522064715    0.30956476598681976    0.29729889260534625    0.30031403522064715    0.3029154531150624    
  0.30489572265501536    0.3061784130917325    0.3068427347232823    0.3070391910824803    0.30684273472328244    
  0.3061784130917325    0.3048957226550155    0.3029154531150623    0.30031403522064715    0.2972988926053463    
  0.2941289845323706    0.2910453588394344    0.2882417940314183    0.2858822779227736    0.2841409027327151    
  0.2832041825194289    0.2832041825194288    0.28414090273271503    0.2858822779227735    0.28824179403141825    
  0.2910453588394345    0.29412898453237046    0.29729889260534625    0.29729889260534625    0.29412898453237046    
  0.2910453588394345    0.28824179403141825    0.2858822779227735    0.28414090273271503    0.2832041825194288    
  0.2832041825194289    0.2841409027327151    0.2858822779227736    0.2882417940314183    0.2910453588394344    
  0.2941289845323706    0.2972988926053463    0.30031403522064715    0.3029154531150623    0.3048957226550155    
  0.3061784130917325    0.30684273472328244    0.3070391910824803    0.3068427347232823    0.3061784130917325    
  0.30489572265501536    0.3029154531150624    0.30031403522064715    0.29729889260534625    0.30956476598681976    
  0.30031403522064715    0.2910453588394345    0.2824866288874246    0.2752445110295938    0.26976903625982523    
  0.2663642822018464    0.265209297130082    0.2663642822018464    0.26976903625982523    0.2752445110295938    
  0.2824866288874247    0.2910453588394345    0.30031403522064715    0.3095647659868198    0.3180426282925425    
  0.32510364014841847    0.33035321398284323    0.33370714249792827    0.3353050908343533    0.3353050908343533    
  0.3337071424979283    0.3303532139828431    0.3251036401484184    0.31804262829254254    0.30956476598681976    
  0.33228618823687245    0.31804262829254254    0.3029154531150623    0.28824179403141825    0.2752445110295938    
  0.2648689549470467    0.25771822251986115    0.25409136158740686    0.25409136158740686    0.2577182225198612    
  0.2648689549470467    0.2752445110295938    0.2882417940314183    0.3029154531150623    0.31804262829254254    
  0.3322861882368725    0.3444445108844764    0.35373197951752383    0.3599463782337235    0.3633749108786131    
  0.3644513434823729    0.36337491087861323    0.3599463782337234    0.35373197951752383    0.3444445108844763    
  0.33228618823687245    0.3609061332319606    0.34444451088447636    0.3251036401484184    0.30489572265501536    
  0.2858822779227735    0.2697690362598252    0.25771822251986115    0.2503457272615361    0.24787455146457074    
  0.25034572726153603    0.25771822251986115    0.26976903625982523    0.2858822779227735    0.3048957226550154    
  0.32510364014841847    0.3444445108844763    0.3609061332319607    0.3731050517687757    0.38076276104619344    
  0.38469076644148203    0.38618590397658265    0.38618590397658276    0.38469076644148203    0.38076276104619333    
  0.3731050517687757    0.3609061332319606    0.3860487932922373    0.37310505176877556    0.35373197951752383    
  0.33035321398284323    0.30617841309173255    0.28414090273271503    0.2663642822018464    0.2540913615874069    
  0.24787455146457074    0.24787455146457082    0.25409136158740686    0.2663642822018464    0.28414090273271503    
  0.3061784130917325    0.33035321398284323    0.3537319795175238    0.37310505176877584    0.38604879329223735    
  0.3920536158369928    0.39284352831306324    0.391457901245302    0.3906358224485803    0.391457901245302    
  0.39284352831306324    0.3920536158369927    0.3860487932922373    0.3926122158959983    0.39205361583699283    
  0.38076276104619333    0.35994637823372355    0.3337071424979284    0.3068427347232824    0.28320418251942886    
  0.265209297130082    0.25409136158740686    0.25034572726153614    0.25409136158740686    0.26520929713008196    
  0.28320418251942886    0.3068427347232824    0.33370714249792827    0.3599463782337235    0.3807627610461935    
  0.39205361583699283    0.3926122158959983    0.3852018970445629    0.37536089573532255    0.36873973019497436    
  0.36873973019497425    0.3753608957353225    0.385201897044563    0.3926122158959983    0.36532004814583363    
  0.385201897044563    0.3928435283130633    0.384690766441482    0.3633749108786131    0.3353050908343533    
  0.3070391910824804    0.28320418251942886    0.2663642822018463    0.2577182225198612    0.2577182225198612    
  0.26636428220184644    0.28320418251942886    0.3070391910824804    0.3353050908343533    0.3633749108786132    
  0.3846907664414821    0.3928435283130632    0.385201897044563    0.3653200481458337    0.341584961351956    
  0.3231159237945131    0.3162381777937853    0.3231159237945131    0.3415849613519559    0.36532004814583363    
  0.301341647392114    0.341584961351956    0.3753608957353225    0.391457901245302    0.38618590397658276    
  0.36445134348237296    0.3353050908343533    0.3068427347232824    0.2841409027327151    0.26976903625982523    
  0.2648689549470467    0.2697690362598252    0.2841409027327151    0.3068427347232824    0.3353050908343532    
  0.36445134348237296    0.38618590397658276    0.39145790124530205    0.37536089573532255    0.34158496135195593    
  0.301341647392114    0.26730901844954474    0.24833856718031774    0.2483385671803177    0.26730901844954474    
  0.301341647392114    0.21770191190341348    0.2673090184495447    0.32311592379451315    0.36873973019497425    
  0.3906358224485802    0.3861859039765827    0.36337491087861323    0.33370714249792827    0.3061784130917325    
  0.28588227792277354    0.27524451102959374    0.2752445110295938    0.2858822779227735    0.3061784130917325    
  0.3337071424979283    0.3633749108786131    0.3861859039765828    0.3906358224485802    0.36873973019497425    
  0.3231159237945131    0.26730901844954474    0.2177019119034135    0.1852699282096919    0.17421343397505715    
  0.18526992820969193    0.21770191190341348    0.14081107639671117    0.18526992820969196    0.24833856718031774    
  0.3162381777937854    0.36873973019497425    0.391457901245302    0.38469076644148203    0.3599463782337235    
  0.33035321398284323    0.30489572265501547    0.2882417940314183    0.2824866288874247    0.2882417940314183    
  0.3048957226550154    0.33035321398284323    0.35994637823372355    0.3846907664414821    0.391457901245302    
  0.36873973019497425    0.3162381777937853    0.2483385671803178    0.18526992820969204    0.14081107639671114    
  0.11891458684057833    0.11891458684057829    0.14081107639671117    0.08766214604484641    0.11891458684057833    
  0.17421343397505712    0.2483385671803177    0.32311592379451315    0.37536089573532255    0.3928435283130633    
  0.3807627610461934    0.35373197951752383    0.3251036401484185    0.3029154531150623    0.2910453588394345    
  0.2910453588394345    0.3029154531150623    0.3251036401484184    0.35373197951752383    0.38076276104619344    
  0.3928435283130633    0.3753608957353225    0.3231159237945131    0.24833856718031774    0.17421343397505715    
  0.11891458684057833    0.08766214604484639    0.07790202869881525    0.08766214604484641    0.05970031152453881    
  0.07790202869881525    0.11891458684057829    0.1852699282096919    0.26730901844954474    0.3415849613519559    
  0.38520189704456304    0.3920536158369927    0.3731050517687757    0.3444445108844764    0.31804262829254254    
  0.3003140352206472    0.2941289845323706    0.30031403522064715    0.31804262829254254    0.3444445108844763    
  0.3731050517687757    0.3920536158369928    0.385201897044563    0.34158496135195593    0.2673090184495447    
  0.185269928209692    0.11891458684057823    0.07790202869881531    0.059700311524538856    0.05970031152453881    
  0.0513657341980041    0.059700311524538856    0.08766214604484639    0.14081107639671114    0.2177019119034135    
  0.301341647392114    0.3653200481458337    0.3926122158959984    0.38604879329223735    0.3609061332319607    
  0.3322861882368725    0.3095647659868198    0.29729889260534637    0.29729889260534637    0.3095647659868198    
  0.3322861882368725    0.3609061332319607    0.38604879329223735    0.3926122158959984    0.3653200481458337    
  0.301341647392114    0.2177019119034135    0.14081107639671114    0.08766214604484639    0.059700311524538856    
  0.0513657341980041    0.059761280312219556    0.06860566271817854    0.09776846762408359    0.15176731499645246    
  0.22777441976742646    0.30827902235248916    0.36796698226752056    0.3915676292256112    0.3828375059212293    
  0.3568613551581282    0.3281215484058566    0.3055111322921952    0.29334525235423814    0.29334525235423814    
  0.3055111322921952    0.3281215484058566    0.3568613551581282    0.3828375059212293    0.3915676292256112    
  0.36796698226752056    0.30827902235248916    0.22777441976742652    0.15176731499645246    0.09776846762408359    
  0.06860566271817854    0.059761280312219556    0.06860566271817851    0.06860566271817854    0.08766510073005403    
  0.1297004867151287    0.1959651675058388    0.27578784976137    0.3461017698815669    0.3856165532436256    
  0.38961129077991674    0.3693079046855395    0.34028446375471894    0.31393745172328347    0.2963385688714975    
  0.290209887439461    0.2963385688714975    0.3139374517232834    0.340284463754719    0.3693079046855394    
  0.38961129077991663    0.3856165532436256    0.3461017698815669    0.27578784976137005    0.1959651675058387    
  0.12970048671512874    0.087665100730054    0.06860566271817851    0.09776846762408362    0.08766510073005397    
  0.09776846762408359    0.12970048671512877    0.18504079621008235    0.2575115790484168    0.3288190109932937    
  0.3769546383427505    0.3911674187163258    0.37728487605527317    0.34962809974552017    0.3209704125364032    
  0.2989277191477189    0.28716944923501364    0.28716944923501364    0.2989277191477189    0.32097041253640324    
  0.34962809974552017    0.37728487605527306    0.3911674187163258    0.3769546383427505    0.32881901099329375    
  0.2575115790484168    0.18504079621008238    0.1297004867151288    0.09776846762408362    0.15176731499645255    
  0.1297004867151288    0.12970048671512877    0.15176731499645246    0.1959651675058388    0.2575115790484168    
  0.32233992004189    0.37098174917998633    0.39034120826814717    0.3815080974428538    0.35592174229504786    
  0.3262080905615212    0.3008991005187899    0.2844077917527692    0.2787172654640151    0.28440779175276915    
  0.30089910051879    0.3262080905615212    0.35592174229504786    0.3815080974428537    0.39034120826814717    
  0.3709817491799864    0.32233992004189    0.2575115790484168    0.1959651675058387    0.15176731499645255    
  0.22777441976742652    0.1959651675058387    0.18504079621008238    0.1959651675058387    0.22777441976742652    
  0.27578784976137005    0.32881901099329375    0.37098174917998633    0.3897232256676134    0.3831796658157006    
  0.3594173137542029    0.32955872509487644    0.30217270576388117    0.28207943071375363    0.27157021494765626    
  0.2715702149476562    0.2820794307137537    0.30217270576388117    0.32955872509487644    0.359417313754203    
  0.38317966581570057    0.38972322566761347    0.37098174917998633    0.32881901099329375    0.27578784976137    
  0.22777441976742652    0.3082790223524892    0.27578784976137005    0.2575115790484168    0.2575115790484168    
  0.2757878497613701    0.3082790223524892    0.3461017698815669    0.3769546383427505    0.3903412082681472    
  0.3831796658157006    0.3605197738211914    0.33115643338657913    0.30282899807485447    0.28035525799596983    
  0.2661643265927925    0.26133136974375826    0.2661643265927926    0.28035525799596983    0.3028289980748545    
  0.331156433386579    0.3605197738211914    0.38317966581570057    0.3903412082681471    0.3769546383427505    
  0.34610176988156693    0.3082790223524892    0.36796698226752056    0.3461017698815668    0.3288190109932937    
  0.3223399200418899    0.3288190109932937    0.34610176988156693    0.36796698226752056    0.3856165532436256    
  0.3911674187163257    0.3815080974428538    0.35941731375420294    0.33115643338657913    0.3030221494098458    
  0.27942499950304245    0.2627993300267858    0.25427573267771797    0.254275732677718    0.2627993300267856    
  0.2794249995030425    0.3030221494098458    0.33115643338657913    0.3594173137542029    0.38150809744285363    
  0.3911674187163258    0.38561655324362554    0.36796698226752056    0.39156762922561117    0.38561655324362554    
  0.3769546383427505    0.37098174917998633    0.37098174917998644    0.3769546383427505    0.38561655324362554    
  0.39156762922561117    0.38961129077991674    0.37728487605527317    0.3559217422950478    0.3295587250948764    
  0.30282899807485447    0.2794249995030425    0.26165687498389717    0.2506962024503098    0.2470063824199831    
  0.2506962024503098    0.26165687498389717    0.27942499950304245    0.30282899807485447    0.32955872509487655    
  0.35592174229504786    0.377284876055273    0.38961129077991674    0.39156762922561117    0.3828375059212293    
  0.38961129077991663    0.39116741871632577    0.39034120826814717    0.3897232256676136    0.39034120826814717    
  0.39116741871632577    0.38961129077991674    0.3828375059212293    0.3693079046855396    0.34962809974552017    
  0.3262080905615212    0.30217270576388117    0.28035525799596983    0.26279933002678574    0.2506962024503098    
  0.2445702012443662    0.24457020124436615    0.2506962024503099    0.26279933002678574    0.2803552579959698    
  0.3021727057638812    0.3262080905615212    0.3496280997455201    0.3693079046855394    0.3828375059212293    
  0.35686135515812806    0.3693079046855395    0.377284876055273    0.3815080974428537    0.3831796658157006    
  0.3831796658157005    0.3815080974428537    0.3772848760552731    0.3693079046855395    0.3568613551581281    
  0.34028446375471894    0.3209704125364032    0.3008991005187899    0.28207943071375363    0.26616432659279254    
  0.2542757326777179    0.24700638241998302    0.24457020124436615    0.24700638241998307    0.25427573267771797    
  0.2661643265927925    0.28207943071375363    0.3008991005187899    0.3209704125364032    0.340284463754719    
  0.35686135515812806    0.32812154840585656    0.34028446375471894    0.34962809974552017    0.35592174229504775    
  0.359417313754203    0.3605197738211914    0.3594173137542029    0.35592174229504786    0.34962809974552017    
  0.340284463754719    0.32812154840585656    0.31393745172328347    0.2989277191477189    0.28440779175276915    
  0.27157021494765626    0.26133136974375826    0.254275732677718    0.2506962024503098    0.2506962024503098    
  0.2542757326777179    0.26133136974375826    0.27157021494765626    0.28440779175276903    0.2989277191477188    
  0.3139374517232834    0.32812154840585656    0.3055111322921952    0.3139374517232834    0.3209704125364032    
  0.3262080905615211    0.32955872509487644    0.3311564333865791    0.3311564333865791    0.32955872509487644    
  0.3262080905615212    0.32097041253640324    0.3139374517232834    0.3055111322921952    0.2963385688714975    
  0.28716944923501364    0.2787172654640151    0.27157021494765626    0.26616432659279254    0.26279933002678574    
  0.2616568749838971    0.26279933002678574    0.26616432659279254    0.27157021494765626    0.278717265464015    
  0.28716944923501364    0.2963385688714975    0.3055111322921952    0.293345252354238    0.2963385688714974    
  0.29892771914771893    0.3008991005187898    0.30217270576388117    0.3028289980748544    0.3030221494098457    
  0.3028289980748545    0.3021727057638812    0.30089910051879    0.2989277191477188    0.29633856887149745    
  0.29334525235423803    0.290209887439461    0.2871694492350136    0.2844077917527691    0.28207943071375374    
  0.28035525799596983    0.27942499950304256    0.27942499950304234    0.2803552579959698    0.2820794307137537    
  0.2844077917527691    0.2871694492350137    0.29020988743946097    0.293345252354238    0.293345252354238    
  0.29020988743946097    0.2871694492350137    0.2844077917527691    0.2820794307137537    0.2803552579959698    
  0.27942499950304234    0.27942499950304256    0.28035525799596983    0.28207943071375374    0.2844077917527691    
  0.2871694492350136    0.290209887439461    0.29334525235423803    0.29633856887149745    0.2989277191477188    
  0.30089910051879    0.3021727057638812    0.3028289980748545    0.3030221494098457    0.3028289980748544    
  0.30217270576388117    0.3008991005187898    0.29892771914771893    0.29633856887149745    0.293345252354238    
  0.3055111322921952    0.29633856887149745    0.28716944923501364    0.278717265464015    0.27157021494765626    
  0.26616432659279254    0.26279933002678574    0.2616568749838971    0.26279933002678574    0.26616432659279254    
  0.27157021494765626    0.2787172654640151    0.28716944923501364    0.2963385688714975    0.3055111322921952    
  0.3139374517232834    0.32097041253640324    0.3262080905615212    0.32955872509487644    0.3311564333865791    
  0.3311564333865791    0.32955872509487644    0.3262080905615211    0.3209704125364032    0.3139374517232834    
  0.3055111322921952    0.32812154840585656    0.3139374517232834    0.2989277191477189    0.2844077917527691    
  0.27157021494765626    0.26133136974375826    0.2542757326777179    0.2506962024503098    0.2506962024503098    
  0.254275732677718    0.26133136974375826    0.27157021494765626    0.28440779175276915    0.2989277191477189    
  0.31393745172328347    0.32812154840585656    0.340284463754719    0.34962809974552017    0.35592174229504786    
  0.3594173137542029    0.3605197738211914    0.359417313754203    0.35592174229504775    0.34962809974552017    
  0.34028446375471894    0.32812154840585656    0.35686135515812806    0.340284463754719    0.3209704125364032    
  0.3008991005187899    0.28207943071375363    0.2661643265927925    0.25427573267771797    0.24700638241998307    
  0.24457020124436615    0.24700638241998302    0.2542757326777179    0.26616432659279254    0.28207943071375363    
  0.3008991005187899    0.3209704125364032    0.34028446375471894    0.3568613551581281    0.3693079046855395    
  0.3772848760552731    0.3815080974428537    0.3831796658157005    0.3831796658157006    0.3815080974428537    
  0.377284876055273    0.3693079046855395    0.35686135515812806    0.3828375059212293    0.36930790468553937    
  0.3496280997455201    0.3262080905615213    0.3021727057638812    0.2803552579959698    0.26279933002678574    
  0.2506962024503099    0.24457020124436615    0.2445702012443662    0.2506962024503098    0.26279933002678574    
  0.28035525799596983    0.30217270576388117    0.3262080905615212    0.34962809974552017    0.3693079046855396    
  0.3828375059212293    0.3896112907799167    0.39116741871632577    0.39034120826814717    0.3897232256676136    
  0.39034120826814717    0.39116741871632577    0.38961129077991663    0.3828375059212293    0.39156762922561117    
  0.38961129077991674    0.377284876055273    0.35592174229504786    0.32955872509487655    0.30282899807485447    
  0.27942499950304245    0.26165687498389717    0.2506962024503098    0.2470063824199831    0.2506962024503098    
  0.26165687498389717    0.2794249995030425    0.30282899807485447    0.3295587250948764    0.3559217422950478    
  0.37728487605527317    0.38961129077991674    0.39156762922561117    0.38561655324362554    0.3769546383427505    
  0.37098174917998644    0.37098174917998633    0.3769546383427505    0.38561655324362554    0.39156762922561117    
  0.36796698226752056    0.38561655324362554    0.3911674187163258    0.3815080974428537    0.3594173137542029    
  0.33115643338657913    0.3030221494098458    0.2794249995030425    0.2627993300267857    0.254275732677718    
  0.25427573267771797    0.2627993300267858    0.27942499950304245    0.3030221494098458    0.33115643338657913    
  0.35941731375420294    0.3815080974428538    0.3911674187163257    0.3856165532436256    0.36796698226752056    
  0.34610176988156693    0.3288190109932937    0.3223399200418899    0.3288190109932937    0.3461017698815668    
  0.36796698226752056    0.3082790223524892    0.34610176988156693    0.3769546383427505    0.3903412082681471    
  0.38317966581570057    0.3605197738211914    0.3311564333865791    0.3028289980748545    0.28035525799596983    
  0.2661643265927926    0.26133136974375826    0.2661643265927925    0.28035525799596983    0.30282899807485447    
  0.33115643338657913    0.3605197738211914    0.3831796658157006    0.3903412082681472    0.3769546383427505    
  0.3461017698815669    0.3082790223524892    0.2757878497613701    0.2575115790484168    0.2575115790484168    
  0.27578784976137005    0.3082790223524892    0.22777441976742652    0.27578784976137    0.32881901099329375    
  0.37098174917998633    0.38972322566761347    0.38317966581570057    0.359417313754203    0.32955872509487644    
  0.30217270576388117    0.2820794307137537    0.2715702149476562    0.27157021494765626    0.28207943071375363    
  0.30217270576388117    0.32955872509487644    0.3594173137542029    0.3831796658157006    0.3897232256676134    
  0.37098174917998633    0.32881901099329375    0.27578784976137005    0.22777441976742652    0.1959651675058387    
  0.18504079621008238    0.19596516750583867    0.22777441976742652    0.15176731499645255    0.1959651675058387    
  0.2575115790484168    0.32233992004189    0.3709817491799864    0.39034120826814717    0.3815080974428537    
  0.35592174229504786    0.3262080905615212    0.30089910051879    0.28440779175276915    0.2787172654640151    
  0.2844077917527692    0.3008991005187899    0.3262080905615212    0.35592174229504786    0.3815080974428538    
  0.39034120826814717    0.37098174917998633    0.32233992004189    0.2575115790484168    0.1959651675058388    
  0.15176731499645246    0.12970048671512877    0.1297004867151288    0.15176731499645255    0.09776846762408362    
  0.1297004867151288    0.18504079621008238    0.2575115790484168    0.32881901099329375    0.3769546383427505    