#     DFTpy    
  CRYSTAL 
    
  PRIMVEC    
  1.4819621436049402    -2.56683372761743    0.0    
  1.4819621436049402    2.56683372761743    0.0    
  0.0    0.0    2.7895318617931006    
  PRIMCOORD    
  1    1    
  Si    0.0    0.0    0.0    
  BEGIN_BLOCK_DATAGRID_3D    
  3d_datagrid_density    
  BEGIN_DATAGRID_3D#0    
  28    28    26    
  0.0    0.0    0.0    
  1.4819621491326873    -2.566833737191769    0.0    
  1.4819621491326873    2.566833737191769    0.0    
  0.0    0.0    2.7895318721981077    
  0.055589491317953064    0.06457567451573394    0.09448733051821388    0.1502440790291728    0.22794252613903887    
  0.30689058983169726    0.3590527141708688    0.36990647881372385    0.3465292351833306    0.3067854387559037    
  0.26604537842592807    0.23271997994771415    0.2100366322516859    0.19871983022788967    0.1987198302278897    
  0.2100366322516859    0.23271997994771415    0.26604537842592807    0.3067854387559037    0.34652923518333056    
  0.3699064788137239    0.3590527141708688    0.30689058983169726    0.22794252613903887    0.15024407902917286    
  0.09448733051821391    0.06457567451573394    0.055589491317953064    0.06457567451573394    0.06457567451573389    
  0.08408798456752198    0.12744480839893943    0.19560857234941234    0.2756075054974398    0.34113756407026924    
  0.3700155677742226    0.35997605811177835    0.3254791582293809    0.2837992859059079    0.24638188919293064    
  0.21844948032790779    0.20161262832067595    0.19602803117222783    0.20161262832067597    0.21844948032790773    
  0.24638188919293064    0.28379928590590797    0.32547915822938084    0.35997605811177835    0.3700155677742225    
  0.34113756407026924    0.2756075054974398    0.1956085723494124    0.1274448083989395    0.08408798456752202    
  0.06457567451573394    0.09448733051821386    0.08408798456752205    0.09448733051821381    0.12744480839893943    
  0.18440019503961333    0.25751319521024185    0.32564244679423143    0.36511120866669566    0.36655700716164485    
  0.33882474442534793    0.29836986273285754    0.25849467826029565    0.2263161502710733    0.20452968204139454    
  0.19368687051493874    0.19368687051493869    0.20452968204139454    0.2263161502710733    0.25849467826029565    
  0.2983698627328575    0.338824744425348    0.36655700716164485    0.36511120866669566    0.32564244679423143    
  0.25751319521024185    0.1844001950396134    0.12744480839893957    0.09448733051821386    0.15024407902917283    
  0.12744480839893949    0.1274448083989395    0.15024407902917286    0.19560857234941234    0.25751319521024185    
  0.31963405308299186    0.36083886009313015    0.36874022419213975    0.346922142955291    0.3089639070870735    
  0.2682588276929796    0.2331259200156077    0.20727857392779978    0.19179614010793236    0.18667507666161987    
  0.19179614010793233    0.2072785739277998    0.23312592001560772    0.26825882769297954    0.3089639070870735    
  0.34692214295529106    0.3687402241921397    0.36083886009313004    0.31963405308299186    0.2575131952102419    
  0.19560857234941237    0.15024407902917283    0.22794252613903893    0.19560857234941234    0.18440019503961344    
  0.1956085723494123    0.22794252613903887    0.2756075054974399    0.32564244679423143    0.36083886009313015    
  0.36910828276124547    0.35060291941228217    0.31529835000702755    0.2750815132830566    0.23841414190471352    
  0.20964888468682646    0.1903901825201021    0.18085380855761343    0.18085380855761343    0.19039018252010206    
  0.2096488846868265    0.23841414190471352    0.2750815132830565    0.31529835000702755    0.35060291941228205    
  0.3691082827612454    0.3608388600931301    0.32564244679423143    0.27560750549743984    0.22794252613903893    
  0.30689058983169726    0.27560750549743984    0.25751319521024185    0.25751319521024185    0.2756075054974398    
  0.30689058983169726    0.34113756407026924    0.3651112086666957    0.36874022419213975    0.35060291941228217    
  0.3173937180615517    0.2785841694016367    0.24178095323013574    0.21141416579822553    0.1894456953846857    
  0.17637444236786307    0.1720620833470147    0.17637444236786312    0.1894456953846857    0.21141416579822564    
  0.24178095323013574    0.27858416940163666    0.3173937180615517    0.35060291941228205    0.3687402241921397    
  0.3651112086666957    0.3411375640702693    0.30689058983169726    0.3590527141708688    0.3411375640702693    
  0.32564244679423143    0.31963405308299186    0.32564244679423143    0.34113756407026924    0.3590527141708688    
  0.3700155677742226    0.3665570071616449    0.346922142955291    0.31529835000702755    0.2785841694016367    
  0.24293892337631526    0.21236331475002423    0.18891077504518097    0.1733241240074908    0.1656193052479532    
  0.16561930524795326    0.17332412400749084    0.18891077504518095    0.2123633147500243    0.24293892337631534    
  0.2785841694016366    0.31529835000702755    0.34692214295529106    0.3665570071616449    0.3700155677742227    
  0.3590527141708688    0.36990647881372385    0.3700155677742226    0.3651112086666956    0.36083886009313004    
  0.36083886009313004    0.36511120866669566    0.3700155677742225    0.3699064788137239    0.35997605811177835    
  0.338824744425348    0.30896390708707344    0.2750815132830566    0.24178095323013574    0.21236331475002423    
  0.18873856462382696    0.17177390189353567    0.16166980855602509    0.15832757695004243    0.1616698085560251    
  0.17177390189353564    0.1887385646238269    0.21236331475002423    0.2417809532301357    0.2750815132830565    
  0.3089639070870735    0.338824744425348    0.3599760581117784    0.36990647881372385    0.3465292351833306    
  0.35997605811177835    0.3665570071616449    0.36874022419213975    0.3691082827612454    0.36874022419213975    
  0.36655700716164485    0.35997605811177835    0.3465292351833307    0.3254791582293809    0.2983698627328575    
  0.2682588276929796    0.23841414190471352    0.21141416579822553    0.18891077504518095    0.17177390189353572    
  0.16033581071553205    0.1546372613861098    0.1546372613861098    0.16033581071553207    0.17177390189353567    
  0.18891077504518095    0.21141416579822558    0.23841414190471344    0.26825882769297954    0.2983698627328575    
  0.32547915822938084    0.3465292351833306    0.3067854387559037    0.32547915822938084    0.33882474442534805    
  0.346922142955291    0.35060291941228217    0.35060291941228205    0.34692214295529106    0.33882474442534805    
  0.3254791582293809    0.3067854387559037    0.28379928590590797    0.2584946782602957    0.2331259200156077    
  0.20964888468682644    0.18944569538468567    0.1733241240074908    0.16166980855602509    0.15463726138610984    
  0.1522870359487771    0.15463726138610984    0.16166980855602509    0.1733241240074908    0.18944569538468561    
  0.20964888468682646    0.23312592001560772    0.25849467826029565    0.28379928590590797    0.3067854387559037    
  0.26604537842592807    0.2837992859059079    0.29836986273285754    0.3089639070870735    0.31529835000702755    
  0.3173937180615516    0.31529835000702755    0.3089639070870735    0.2983698627328575    0.28379928590590797    
  0.26604537842592807    0.24638188919293064    0.22631615027107335    0.20727857392779978    0.19039018252010212    
  0.17637444236786312    0.1656193052479532    0.15832757695004243    0.15463726138610984    0.15463726138610984    
  0.1583275769500424    0.16561930524795318    0.1763744423678631    0.190390182520102    0.2072785739277998    
  0.22631615027107335    0.2463818891929307    0.26604537842592807    0.23271997994771415    0.2463818891929307    
  0.25849467826029565    0.26825882769297954    0.2750815132830565    0.27858416940163666    0.2785841694016367    
  0.2750815132830565    0.26825882769297954    0.2584946782602957    0.24638188919293064    0.23271997994771415    
  0.21844948032790773    0.20452968204139452    0.19179614010793236    0.1808538085576135    0.1720620833470147    
  0.1656193052479532    0.16166980855602514    0.160335810715532    0.16166980855602509    0.16561930524795318    
  0.17206208334701473    0.18085380855761332    0.1917961401079323    0.20452968204139454    0.21844948032790784    
  0.23271997994771415    0.21003663225168595    0.21844948032790773    0.22631615027107335    0.2331259200156077    
  0.23841414190471352    0.24178095323013565    0.24293892337631534    0.24178095323013574    0.23841414190471352    
  0.23312592001560772    0.22631615027107335    0.21844948032790779    0.21003663225168592    0.20161262832067595    
  0.19368687051493874    0.18667507666161987    0.18085380855761343    0.17637444236786312    0.17332412400749087    
  0.17177390189353572    0.17177390189353572    0.17332412400749084    0.176374442367863    0.18085380855761343    
  0.18667507666161987    0.19368687051493869    0.20161262832067597    0.21003663225168595    0.19871983022788972    
  0.20161262832067597    0.20452968204139463    0.20727857392779975    0.20964888468682646    0.21141416579822558    
  0.2123633147500243    0.2123633147500243    0.21141416579822564    0.20964888468682646    0.20727857392779978    
  0.20452968204139454    0.20161262832067597    0.19871983022788967    0.19602803117222783    0.19368687051493869    
  0.1917961401079323    0.1903901825201021    0.18944569538468567    0.18891077504518095    0.18873856462382696    
  0.18891077504518095    0.18944569538468561    0.1903901825201021    0.1917961401079323    0.19368687051493869    
  0.19602803117222778    0.19871983022788972    0.19871983022788972    0.19602803117222778    0.19368687051493869    
  0.1917961401079323    0.19039018252010206    0.18944569538468564    0.18891077504518095    0.18873856462382696    
  0.18891077504518095    0.18944569538468567    0.19039018252010206    0.1917961401079323    0.19368687051493869    
  0.19602803117222778    0.19871983022788975    0.20161262832067597    0.20452968204139454    0.2072785739277998    
  0.2096488846868265    0.21141416579822558    0.2123633147500243    0.2123633147500243    0.21141416579822558    
  0.20964888468682646    0.20727857392779978    0.2045296820413946    0.20161262832067597    0.19871983022788972    
  0.21003663225168592    0.20161262832067595    0.1936868705149387    0.18667507666161987    0.1808538085576134    
  0.176374442367863    0.17332412400749084    0.17177390189353567    0.17177390189353567    0.17332412400749084    
  0.17637444236786312    0.18085380855761343    0.18667507666161987    0.19368687051493869    0.201612628320676    
  0.21003663225168592    0.21844948032790773    0.22631615027107335    0.23312592001560772    0.23841414190471352    
  0.2417809532301358    0.2429389233763153    0.24178095323013565    0.23841414190471344    0.23312592001560772    
  0.2263161502710733    0.21844948032790773    0.21003663225168592    0.23271997994771415    0.21844948032790784    
  0.20452968204139452    0.1917961401079323    0.18085380855761335    0.17206208334701473    0.16561930524795312    
  0.16166980855602509    0.16033581071553205    0.1616698085560251    0.16561930524795318    0.17206208334701464    
  0.18085380855761346    0.1917961401079323    0.2045296820413946    0.21844948032790773    0.23271997994771415    
  0.2463818891929307    0.25849467826029565    0.2682588276929795    0.2750815132830566    0.2785841694016367    
  0.27858416940163666    0.27508151328305647    0.26825882769297954    0.25849467826029565    0.24638188919293075    
  0.23271997994771415    0.26604537842592807    0.24638188919293064    0.22631615027107324    0.2072785739277998    
  0.190390182520102    0.17637444236786307    0.16561930524795318    0.15832757695004243    0.15463726138610986    
  0.1546372613861098    0.15832757695004243    0.16561930524795318    0.1763744423678631    0.19039018252010206    
  0.2072785739277998    0.22631615027107335    0.24638188919293064    0.26604537842592807    0.28379928590590797    
  0.2983698627328575    0.3089639070870735    0.31529835000702755    0.31739371806155164    0.31529835000702755    
  0.30896390708707344    0.2983698627328575    0.28379928590590786    0.26604537842592807    0.3067854387559037    
  0.28379928590590797    0.2584946782602957    0.23312592001560772    0.20964888468682646    0.18944569538468564    
  0.1733241240074908    0.1616698085560251    0.1546372613861098    0.1522870359487771    0.15463726138610984    
  0.16166980855602509    0.1733241240074908    0.18944569538468564    0.20964888468682646    0.23312592001560772    
  0.2584946782602957    0.28379928590590797    0.3067854387559037    0.3254791582293809    0.33882474442534805    
  0.34692214295529106    0.35060291941228205    0.35060291941228217    0.346922142955291    0.33882474442534805    
  0.3254791582293809    0.3067854387559037    0.34652923518333056    0.3254791582293808    0.29836986273285754    
  0.2682588276929795    0.23841414190471344    0.21141416579822558    0.18891077504518092    0.17177390189353572    
  0.1603358107155321    0.1546372613861098    0.1546372613861098    0.16033581071553205    0.17177390189353572    
  0.18891077504518095    0.21141416579822558    0.23841414190471352    0.26825882769297954    0.29836986273285754    
  0.3254791582293809    0.34652923518333056    0.35997605811177835    0.36655700716164474    0.3687402241921397    
  0.3691082827612453    0.36874022419213975    0.36655700716164485    0.35997605811177835    0.34652923518333056    
  0.36990647881372385    0.35997605811177835    0.33882474442534805    0.3089639070870735    0.2750815132830565    
  0.24178095323013574    0.2123633147500243    0.1887385646238269    0.17177390189353567    0.1616698085560251    
  0.15832757695004243    0.16166980855602503    0.17177390189353572    0.18873856462382693    0.2123633147500243    
  0.24178095323013574    0.2750815132830565    0.3089639070870735    0.338824744425348    0.35997605811177824    
  0.3699064788137239    0.3700155677742225    0.36511120866669566    0.36083886009313004    0.36083886009313004    
  0.3651112086666956    0.3700155677742227    0.36990647881372385    0.3590527141708688    0.3700155677742226    
  0.3665570071616449    0.346922142955291    0.31529835000702755    0.2785841694016366    0.24293892337631534    
  0.2123633147500243    0.18891077504518095    0.17332412400749084    0.16561930524795326    0.1656193052479532    
  0.1733241240074908    0.18891077504518092    0.21236331475002432    0.2429389233763153    0.2785841694016367    
  0.31529835000702755    0.346922142955291    0.36655700716164485    0.3700155677742226    0.3590527141708688    
  0.34113756407026924    0.32564244679423143    0.31963405308299186    0.32564244679423143    0.3411375640702693    
  0.3590527141708688    0.30689058983169726    0.3411375640702693    0.3651112086666957    0.3687402241921397    
  0.35060291941228205    0.3173937180615517    0.2785841694016367    0.24178095323013574    0.21141416579822564    
  0.18944569538468567    0.1763744423678631    0.1720620833470147    0.1763744423678631    0.18944569538468564    
  0.21141416579822564    0.24178095323013574    0.27858416940163666    0.3173937180615517    0.35060291941228217    
  0.3687402241921397    0.36511120866669566    0.34113756407026924    0.30689058983169726    0.2756075054974398    
  0.25751319521024185    0.25751319521024185    0.2756075054974399    0.30689058983169726    0.22794252613903898    
  0.2756075054974399    0.32564244679423143    0.3608388600931301    0.3691082827612454    0.35060291941228205    
  0.31529835000702755    0.2750815132830565    0.23841414190471352    0.20964888468682646    0.19039018252010206    
  0.18085380855761343    0.18085380855761343    0.19039018252010206    0.20964888468682652    0.23841414190471352    
  0.2750815132830565    0.31529835000702755    0.35060291941228217    0.36910828276124547    0.36083886009313015    
  0.32564244679423143    0.2756075054974399    0.22794252613903887    0.1956085723494123    0.18440019503961344    
  0.19560857234941234    0.22794252613903898    0.15024407902917283    0.1956085723494124    0.2575131952102419    
  0.31963405308299186    0.36083886009313004    0.3687402241921397    0.346922142955291    0.3089639070870735    
  0.26825882769297954    0.23312592001560772    0.2072785739277998    0.1917961401079323    0.18667507666161987    
  0.1917961401079323    0.2072785739277998    0.2331259200156077    0.2682588276929796    0.3089639070870735    
  0.34692214295529106    0.3687402241921397    0.3608388600931302    0.31963405308299186    0.2575131952102419    
  0.19560857234941234    0.15024407902917286    0.12744480839893957    0.1274448083989395    0.15024407902917283    
  0.09448733051821384    0.12744480839893954    0.18440019503961336    0.2575131952102418    0.3256424467942314    
  0.3651112086666956    0.3665570071616448    0.33882474442534793    0.2983698627328575    0.2584946782602957    
  0.22631615027107324    0.20452968204139454    0.19368687051493869    0.19368687051493869    0.2045296820413946    
  0.2263161502710733    0.25849467826029565    0.2983698627328575    0.338824744425348    0.36655700716164474    
  0.3651112086666957    0.32564244679423143    0.2575131952102418    0.18440019503961338    0.12744480839893949    
  0.09448733051821392    0.08408798456752219    0.09448733051821384    0.06457567451573387    0.08408798456752206    
  0.12744480839893949    0.19560857234941234    0.2756075054974398    0.34113756407026924    0.3700155677742225    
  0.35997605811177835    0.32547915822938084    0.28379928590590797    0.24638188919293064    0.21844948032790773    
  0.20161262832067597    0.19602803117222778    0.20161262832067603    0.21844948032790779    0.2463818891929306    
  0.2837992859059079    0.3254791582293809    0.35997605811177835    0.3700155677742226    0.34113756407026924    
  0.2756075054974398    0.1956085723494123    0.12744480839893943    0.08408798456752202    0.06457567451573389    
  0.06457567451573387    0.055589491317953064    0.06457567451573394    0.09448733051821388    0.1502440790291728    
  0.22794252613903887    0.30689058983169726    0.3590527141708688    0.36990647881372385    0.3465292351833306    
  0.3067854387559037    0.26604537842592807    0.23271997994771415    0.2100366322516859    0.19871983022788967    
  0.1987198302278897    0.2100366322516859    0.23271997994771415    0.26604537842592807    0.3067854387559037    
  0.34652923518333056    0.3699064788137239    0.3590527141708688    0.30689058983169726    0.22794252613903887    
  0.15024407902917286    0.09448733051821391    0.06457567451573394    0.055589491317953064    0.06512004143680633    
  0.07465923914987593    0.10581421450049142    0.1622394819660783    0.23850320735565927    0.31360646428826966    
  0.36105350888316057    0.36828302532135154    0.3431230399420449    0.30297528854379513    0.2624572919516077    
  0.2294937782292978    0.20710594144664046    0.19594791518922158    0.19594791518922164    0.20710594144664046    
  0.2294937782292978    0.2624572919516077    0.30297528854379513    0.3431230399420449    0.36828302532135154    
  0.36105350888316057    0.31360646428826966    0.23850320735565927    0.16223948196607835    0.10581421450049144    
  0.07465923914987593    0.06512004143680633    0.07465923914987588    0.07465923914987585    0.09507176705729918    
  0.1393749578474082    0.20705238961556055    0.284160790586017    0.34515053218108743    0.369788336694401    
  0.3571686516016812    0.3217460268459907    0.2800842713730489    0.243005158056959    0.2154159697408105    
  0.198810145093029    0.1933057355027528    0.19881014509302902    0.21541596974081045    0.243005158056959    
  0.280084271373049    0.3217460268459907    0.35716865160168126    0.3697883366944009    0.34515053218108743    
  0.284160790586017    0.20705238961556055    0.13937495784740825    0.09507176705729922    0.07465923914987588    
  0.10581421450049139    0.09507176705729926    0.10581421450049135    0.1393749578474082    0.19605932757438943    
  0.26693583591437603    0.3310004761755381    0.36610402588625757    0.3644490613592413    0.3353077395110789    
  0.2946191498060556    0.2550170517547056    0.2232078429861939    0.20171397102775562    0.19102691653054868    
  0.19102691653054865    0.20171397102775568    0.2232078429861939    0.2550170517547057    0.2946191498060556    
  0.3353077395110789    0.3644490613592413    0.36610402588625757    0.3310004761755381    0.26693583591437603    
  0.19605932757438949    0.13937495784740833    0.10581421450049139    0.1622394819660783    0.13937495784740825    
  0.1393749578474083    0.16223948196607835    0.2070523896155605    0.26693583591437603    0.3254567857958999    
  0.36253385728538084    0.36719012054820643    0.34366087375942644    0.30524553771984064    0.26472676861163774    
  0.2299674516055854    0.2044597958755319    0.18919934042201    0.18415447002042737    0.18919934042200998    
  0.20445979587553195    0.22996745160558543    0.26472676861163774    0.30524553771984064    0.3436608737594265    
  0.3671901205482063    0.36253385728538073    0.3254567857958999    0.2669358359143761    0.20705238961556055    
  0.1622394819660783    0.23850320735565933    0.20705238961556055    0.19605932757438954    0.2070523896155605    
  0.23850320735565927    0.2841607905860171    0.3310004761755382    0.36253385728538084    0.3677702489539717    
  0.3475122965379822    0.31163258098926366    0.27152865351799493    0.2352246387088148    0.20682983558783063    
  0.18784578703607066    0.17845181374085248    0.17845181374085248    0.18784578703607066    0.2068298355878307    
  0.2352246387088148    0.2715286535179949    0.31163258098926366    0.3475122965379822    0.36777024895397165    
  0.36253385728538073    0.3310004761755382    0.28416079058601706    0.23850320735565933    0.31360646428826966    
  0.28416079058601706    0.26693583591437603    0.26693583591437603    0.284160790586017    0.31360646428826966    
  0.34515053218108743    0.3661040258862577    0.36719012054820643    0.3475122965379822    0.3137523004732073    
  0.27502703326670613    0.2385747588024434    0.20859408067629898    0.18693686639967944    0.17405949394125494    
  0.16981217322279854    0.17405949394125497    0.18693686639967944    0.20859408067629903    0.23857475880244344    
  0.27502703326670613    0.31375230047320735    0.3475122965379822    0.3671901205482063    0.3661040258862576    
  0.34515053218108743    0.31360646428826966    0.36105350888316057    0.34515053218108743    0.3310004761755382    
  0.3254567857958999    0.3310004761755382    0.34515053218108743    0.36105350888316057    0.369788336694401    
  0.3644490613592414    0.34366087375942644    0.31163258098926366    0.2750270332667062    0.23972747692327762    
  0.20954189078688326    0.1864209553718654    0.1710629633206942    0.16347194259705145    0.1634719425970515    
  0.17106296332069426    0.18642095537186534    0.20954189078688332    0.23972747692327767    0.2750270332667061    
  0.31163258098926366    0.3436608737594265    0.3644490613592414    0.369788336694401    0.36105350888316057    
  0.36828302532135154    0.369788336694401    0.36610402588625757    0.36253385728538073    0.36253385728538073    
  0.36610402588625757    0.3697883366944009    0.36828302532135154    0.3571686516016812    0.3353077395110789    
  0.3052455377198406    0.27152865351799493    0.23857475880244344    0.20954189078688326    0.18625448923291654    
  0.16953750349096547    0.1595790367168081    0.15628407703457767    0.15957903671680815    0.16953750349096544    
  0.18625448923291651    0.20954189078688326    0.2385747588024434    0.2715286535179948    0.30524553771984064    
  0.3353077395110789    0.3571686516016813    0.36828302532135154    0.34312303994204496    0.35716865160168126    
  0.3644490613592414    0.36719012054820643    0.36777024895397165    0.36719012054820643    0.3644490613592413    
  0.35716865160168126    0.3431230399420449    0.3217460268459907    0.2946191498060556    0.26472676861163774    
  0.2352246387088148    0.20859408067629898    0.18642095537186537    0.1695375034909655    0.15826278082147016    
  0.15264181570593688    0.15264181570593688    0.1582627808214702    0.16953750349096547    0.18642095537186534    
  0.20859408067629898    0.23522463870881474    0.26472676861163774    0.2946191498060556    0.3217460268459907    
  0.34312303994204496    0.30297528854379513    0.3217460268459907    0.335307739511079    0.34366087375942644    
  0.3475122965379822    0.3475122965379822    0.3436608737594265    0.33530773951107895    0.3217460268459907    
  0.30297528854379513    0.2800842713730489    0.25501705175470574    0.2299674516055854    0.20682983558783058    
  0.1869368663996794    0.1710629633206942    0.15957903671680812    0.15264181570593688    0.15032165172045173    
  0.15264181570593688    0.15957903671680812    0.17106296332069426    0.18693686639967935    0.20682983558783063    
  0.22996745160558543    0.25501705175470574    0.280084271373049    0.30297528854379513    0.2624572919516077    
  0.2800842713730489    0.2946191498060556    0.30524553771984064    0.31163258098926366    0.31375230047320724    
  0.31163258098926366    0.30524553771984064    0.2946191498060556    0.2800842713730489    0.2624572919516077    
  0.243005158056959    0.22320784298619395    0.2044597958755319    0.18784578703607066    0.174059493941255    
  0.16347194259705145    0.15628407703457767    0.1526418157059369    0.15264181570593688    0.15628407703457764    
  0.16347194259705142    0.17405949394125497    0.18784578703607058    0.20445979587553195    0.22320784298619395    
  0.243005158056959    0.2624572919516077    0.2294937782292978    0.24300515805695905    0.2550170517547057    
  0.2647267686116377    0.2715286535179949    0.27502703326670613    0.2750270332667062    0.2715286535179949    
  0.26472676861163774    0.25501705175470574    0.243005158056959    0.2294937782292978    0.21541596974081045    
  0.20171397102775562    0.18919934042201    0.17845181374085253    0.16981217322279854    0.16347194259705142    
  0.15957903671680818    0.15826278082147013    0.15957903671680812    0.1634719425970514    0.16981217322279857    
  0.17845181374085237    0.18919934042200995    0.20171397102775562    0.2154159697408105    0.2294937782292978    
  0.20710594144664052    0.2154159697408105    0.223207842986194    0.2299674516055854    0.2352246387088148    
  0.23857475880244336    0.23972747692327767    0.23857475880244344    0.2352246387088148    0.22996745160558543    
  0.223207842986194    0.2154159697408105    0.2071059414466405    0.198810145093029    0.1910269165305487    
  0.1841544700204274    0.17845181374085248    0.174059493941255    0.17106296332069432    0.16953750349096547    
  0.16953750349096547    0.17106296332069426    0.17405949394125492    0.17845181374085248    0.1841544700204274    
  0.19102691653054865    0.19881014509302902    0.20710594144664052    0.19594791518922164    0.19881014509302902    
  0.20171397102775568    0.2044597958755319    0.20682983558783063    0.20859408067629898    0.2095418907868833    
  0.20954189078688332    0.20859408067629903    0.20682983558783063    0.20445979587553195    0.20171397102775562    
  0.198810145093029    0.19594791518922164    0.1933057355027528    0.19102691653054865    0.18919934042200995    
  0.18784578703607066    0.18693686639967944    0.18642095537186537    0.18625448923291651    0.18642095537186537    
  0.18693686639967935    0.18784578703607066    0.18919934042200995    0.19102691653054865    0.19330573550275276    
  0.19594791518922164    0.19594791518922167    0.19330573550275276    0.19102691653054865    0.18919934042200995    
  0.18784578703607063    0.18693686639967935    0.18642095537186534    0.18625448923291654    0.18642095537186537    
  0.1869368663996794    0.18784578703607063    0.18919934042200992    0.19102691653054865    0.19330573550275276    
  0.19594791518922167    0.198810145093029    0.20171397102775562    0.20445979587553195    0.2068298355878307    
  0.208594080676299    0.20954189078688334    0.2095418907868833    0.20859408067629903    0.20682983558783063    
  0.2044597958755319    0.20171397102775568    0.19881014509302902    0.19594791518922167    0.2071059414466405    
  0.198810145093029    0.19102691653054868    0.18415447002042737    0.17845181374085245    0.17405949394125492    
  0.17106296332069426    0.16953750349096547    0.16953750349096547    0.17106296332069426    0.174059493941255    
  0.17845181374085248    0.18415447002042737    0.19102691653054865    0.19881014509302902    0.2071059414466405    
  0.2154159697408105    0.223207842986194    0.22996745160558543    0.2352246387088148    0.23857475880244344    
  0.23972747692327762    0.23857475880244336    0.23522463870881474    0.22996745160558543    0.22320784298619395    
  0.21541596974081045    0.2071059414466405    0.2294937782292978    0.2154159697408105    0.20171397102775562    
  0.18919934042200995    0.1784518137408524    0.16981217322279857    0.16347194259705136    0.15957903671680812    
  0.15826278082147016    0.15957903671680815    0.16347194259705142    0.16981217322279854    0.1784518137408525    
  0.18919934042200995    0.2017139710277557    0.21541596974081045    0.2294937782292978    0.243005158056959    
  0.2550170517547057    0.2647267686116377    0.27152865351799493    0.2750270332667062    0.27502703326670613    
  0.2715286535179948    0.26472676861163774    0.2550170517547057    0.24300515805695905    0.2294937782292978    
  0.2624572919516077    0.243005158056959    0.2232078429861939    0.20445979587553198    0.18784578703607055    
  0.17405949394125497    0.1634719425970514    0.15628407703457767    0.1526418157059369    0.15264181570593685    