#     DFTpy    
  CRYSTAL 
    
  PRIMVEC    
  1.31930776198976    -2.2851080745862506    0.0    
  1.31930776198976    2.2851080745862506    0.0    
  0.0    0.0    2.48336373062069    
  PRIMCOORD    
  1    1    
  Si    0.0    0.0    0.0    
  BEGIN_BLOCK_DATAGRID_3D    
  3d_datagrid_density    
  BEGIN_DATAGRID_3D#0    
  26    26    25    
  0.0    0.0    0.0    
  1.3193077669108033    -2.2851080831097472    0.0    
  1.3193077669108033    2.2851080831097472    0.0    
  0.0    0.0    2.4833637398836843    
  0.050346586696660395    0.05831108632310069    0.08500827179423609    0.13594586078862841    0.2107377293009145    
  0.29476862177774676    0.3633360060690356    0.3983308884104718    0.39960567195309965    0.3802207956837965    
  0.35491916334122753    0.3337783598614041    0.32210635775452195    0.32210635775452195    0.3337783598614041    
  0.35491916334122753    0.3802207956837965    0.39960567195309965    0.3983308884104718    0.3633360060690356    
  0.29476862177774676    0.2107377293009145    0.13594586078862841    0.08500827179423609    0.05831108632310069    
  0.050346586696660395    0.05831108632310066    0.05831108632310069    0.07568877351402852    0.11491058611779015    
  0.17898892644257283    0.2601183524138199    0.3371054274681589    0.38729711685519785    0.4022224958028862    
  0.3900784117206648    0.3657866282024407    0.3416642327763753    0.3249237898892827    0.3190055153350741    
  0.32492378988928283    0.3416642327763753    0.3657866282024407    0.39007841172066504    0.40222249580288627    
  0.3872971168551978    0.3371054274681589    0.2601183524138198    0.17898892644257278    0.1149105861177902    
  0.07568877351402845    0.05831108632310066    0.08500827179423603    0.07568877351402838    0.08500827179423609    
  0.11491058611779015    0.16824266849128547    0.24111579798672175    0.31745581402906886    0.3750630173467726    
  0.40022950751648784    0.39545576582842334    0.37362792460873673    0.347972478221676    0.32720674539820926    
  0.3158745496081094    0.31587454960810946    0.3272067453982094    0.34797247822167593    0.3736279246087367    
  0.39545576582842334    0.40022950751648784    0.3750630173467726    0.3174558140290688    0.24111579798672175    
  0.16824266849128552    0.11491058611779015    0.08500827179423603    0.1359458607886283    0.1149105861177901    
  0.11491058611779015    0.13594586078862836    0.17898892644257278    0.2411157979867218    0.3102533650038477    
  0.3672993859977427    0.3970649185096111    0.39759173315876806    0.378505381290497    0.35242614307362813    
  0.32879602121782125    0.3129378784828643    0.30739722777986356    0.31293787848286436    0.3287960212178212    
  0.352426143073628    0.37850538129049704    0.3975917331587681    0.3970649185096111    0.3672993859977427    
  0.31025336500384765    0.24111579798672175    0.1789889264425727    0.1359458607886283    0.21073772930091444    
  0.17898892644257275    0.16824266849128555    0.17898892644257272    0.21073772930091447    0.26011835241381975    
  0.3174558140290689    0.36729938599774276    0.3956378954847104    0.39811015356809837    0.38099361090786277    
  0.35511435747364    0.32970488334294445    0.31041420286374694    0.30014770159630966    0.3001477015963096    
  0.310414202863747    0.3297048833429446    0.35511435747364    0.38099361090786277    0.3981101535680984    
  0.3956378954847104    0.36729938599774276    0.3174558140290689    0.2601183524138198    0.21073772930091444    
  0.29476862177774676    0.2601183524138198    0.24111579798672172    0.24111579798672175    0.26011835241381975    
  0.29476862177774676    0.33710542746815897    0.37506301734677266    0.3970649185096112    0.39811015356809837    
  0.3817325270310696    0.35633535764298757    0.330106105288627    0.3085374386227943    0.29463068892583694    
  0.2898456391988567    0.29463068892583694    0.3085374386227944    0.3301061052886271    0.35633535764298757    
  0.3817325270310696    0.3981101535680984    0.3970649185096111    0.3750630173467726    0.33710542746815897    
  0.29476862177774676    0.3633360060690356    0.3371054274681589    0.31745581402906886    0.31025336500384765    
  0.3174558140290688    0.33710542746815897    0.36333600606903566    0.38729711685519785    0.40022950751648784    
  0.397591733158768    0.3809936109078627    0.3563353576429876    0.3302089585105535    0.3075290589188495    
  0.2911913160566699    0.28269764905565475    0.28269764905565475    0.2911913160566698    0.30752905891884974    
  0.33020895851055354    0.35633535764298757    0.38099361090786277    0.39759173315876806    0.4002295075164878    
  0.3872971168551978    0.3633360060690356    0.3983308884104717    0.38729711685519774    0.3750630173467726    
  0.36729938599774276    0.3672993859977427    0.3750630173467726    0.38729711685519774    0.3983308884104718    
  0.4022224958028862    0.39545576582842334    0.3785053812904969    0.35511435747363995    0.33010610528862705    
  0.3075290589188497    0.2900242519135037    0.279056690326631    0.2753313570771608    0.2790566903266311    
  0.29002425191350373    0.3075290589188497    0.33010610528862705    0.35511435747363995    0.37850538129049693    
  0.39545576582842334    0.40222249580288616    0.3983308884104717    0.39960567195309954    0.4022224958028861    
  0.40022950751648784    0.3970649185096112    0.3956378954847103    0.39706491850961106    0.40022950751648784    
  0.40222249580288627    0.39960567195309965    0.39007841172066493    0.37362792460873673    0.35242614307362813    
  0.3297048833429445    0.3085374386227943    0.29119131605666987    0.27905669032663105    0.27284891633797964    
  0.27284891633797975    0.2790566903266311    0.2911913160566698    0.3085374386227943    0.3297048833429445    
  0.352426143073628    0.3736279246087368    0.39007841172066493    0.39960567195309954    0.3802207956837965    
  0.3900784117206649    0.39545576582842334    0.39759173315876806    0.3981101535680984    0.39811015356809837    
  0.39759173315876806    0.39545576582842334    0.39007841172066504    0.3802207956837965    0.3657866282024408    
  0.34797247822167604    0.3287960212178212    0.3104142028637469    0.29463068892583694    0.2826976490556548    
  0.2753313570771607    0.27284891633797975    0.2753313570771608    0.2826976490556548    0.29463068892583694    
  0.310414202863747    0.32879602121782125    0.347972478221676    0.3657866282024407    0.3802207956837965    
  0.35491916334122753    0.36578662820244073    0.3736279246087367    0.378505381290497    0.38099361090786277    
  0.38173252703106947    0.3809936109078628    0.378505381290497    0.37362792460873673    0.3657866282024407    
  0.3549191633412276    0.34166423277637537    0.3272067453982092    0.31293787848286425    0.30014770159630977    
  0.2898456391988567    0.28269764905565475    0.27905669032663105    0.2790566903266311    0.2826976490556548    
  0.28984563919885664    0.3001477015963096    0.3129378784828644    0.3272067453982093    0.3416642327763753    
  0.35491916334122753    0.33377835986140403    0.3416642327763752    0.347972478221676    0.352426143073628    
  0.35511435747364    0.3563353576429875    0.35633535764298757    0.35511435747363995    0.3524261430736281    
  0.34797247822167593    0.3416642327763752    0.3337783598614041    0.3249237898892828    0.31587454960810935    
  0.3073972277798636    0.30014770159630955    0.2946306889258369    0.2911913160566698    0.29002425191350373    
  0.2911913160566698    0.2946306889258369    0.3001477015963096    0.30739722777986356    0.31587454960810946    
  0.3249237898892828    0.33377835986140403    0.322106357754522    0.32492378988928283    0.3272067453982094    
  0.3287960212178213    0.3297048833429445    0.330106105288627    0.3302089585105536    0.33010610528862705    
  0.32970488334294457    0.32879602121782125    0.3272067453982094    0.3249237898892829    0.32210635775452195    
  0.3190055153350742    0.3158745496081095    0.31293787848286436    0.31041420286374694    0.30853743862279437    
  0.3075290589188497    0.30752905891884974    0.3085374386227943    0.310414202863747    0.3129378784828644    
  0.31587454960810957    0.3190055153350742    0.322106357754522    0.322106357754522    0.3190055153350742    
  0.31587454960810957    0.3129378784828644    0.310414202863747    0.3085374386227943    0.30752905891884974    
  0.3075290589188497    0.30853743862279437    0.31041420286374694    0.31293787848286436    0.3158745496081095    
  0.3190055153350742    0.32210635775452195    0.3249237898892829    0.3272067453982094    0.32879602121782125    
  0.32970488334294457    0.33010610528862705    0.3302089585105536    0.330106105288627    0.3297048833429445    
  0.3287960212178213    0.3272067453982094    0.32492378988928283    0.322106357754522    0.33377835986140403    
  0.3249237898892828    0.31587454960810946    0.30739722777986356    0.3001477015963096    0.2946306889258369    
  0.2911913160566698    0.29002425191350373    0.2911913160566698    0.2946306889258369    0.30014770159630955    
  0.3073972277798636    0.31587454960810935    0.3249237898892828    0.3337783598614041    0.3416642327763752    
  0.34797247822167593    0.3524261430736281    0.35511435747363995    0.35633535764298757    0.3563353576429875    
  0.35511435747364    0.352426143073628    0.347972478221676    0.3416642327763752    0.33377835986140403    
  0.35491916334122753    0.3416642327763753    0.3272067453982093    0.3129378784828644    0.3001477015963096    
  0.28984563919885664    0.2826976490556548    0.2790566903266311    0.27905669032663105    0.28269764905565475    
  0.2898456391988567    0.30014770159630977    0.31293787848286425    0.3272067453982092    0.34166423277637537    
  0.3549191633412276    0.3657866282024407    0.37362792460873673    0.378505381290497    0.3809936109078628    
  0.38173252703106947    0.38099361090786277    0.378505381290497    0.3736279246087367    0.36578662820244073    
  0.35491916334122753    0.3802207956837965    0.3657866282024407    0.347972478221676    0.32879602121782125    
  0.310414202863747    0.29463068892583694    0.2826976490556548    0.2753313570771608    0.27284891633797975    
  0.2753313570771607    0.2826976490556548    0.29463068892583694    0.3104142028637469    0.3287960212178212    
  0.34797247822167604    0.3657866282024408    0.3802207956837965    0.39007841172066504    0.39545576582842334    
  0.39759173315876806    0.39811015356809837    0.3981101535680984    0.39759173315876806    0.39545576582842334    
  0.3900784117206649    0.3802207956837965    0.39960567195309954    0.39007841172066493    0.3736279246087368    
  0.352426143073628    0.3297048833429445    0.3085374386227943    0.2911913160566698    0.2790566903266311    
  0.27284891633797975    0.27284891633797964    0.27905669032663105    0.29119131605666987    0.3085374386227943    
  0.3297048833429445    0.35242614307362813    0.37362792460873673    0.39007841172066493    0.39960567195309965    
  0.40222249580288627    0.40022950751648784    0.39706491850961106    0.3956378954847103    0.3970649185096112    
  0.40022950751648784    0.4022224958028861    0.39960567195309954    0.3983308884104717    0.40222249580288616    
  0.39545576582842334    0.37850538129049693    0.35511435747363995    0.33010610528862705    0.3075290589188497    
  0.29002425191350373    0.2790566903266311    0.2753313570771608    0.279056690326631    0.2900242519135037    
  0.3075290589188497    0.33010610528862705    0.35511435747363995    0.3785053812904969    0.39545576582842334    
  0.4022224958028862    0.3983308884104718    0.38729711685519774    0.3750630173467726    0.3672993859977427    
  0.36729938599774276    0.3750630173467726    0.38729711685519774    0.3983308884104717    0.3633360060690356    
  0.3872971168551978    0.4002295075164878    0.39759173315876806    0.38099361090786277    0.35633535764298757    
  0.33020895851055354    0.30752905891884974    0.2911913160566698    0.28269764905565475    0.28269764905565475    
  0.2911913160566699    0.3075290589188495    0.3302089585105535    0.3563353576429876    0.3809936109078627    
  0.397591733158768    0.40022950751648784    0.38729711685519785    0.36333600606903566    0.33710542746815897    
  0.3174558140290688    0.31025336500384765    0.31745581402906886    0.3371054274681589    0.3633360060690356    
  0.29476862177774676    0.33710542746815897    0.3750630173467726    0.3970649185096111    0.3981101535680984    
  0.3817325270310696    0.35633535764298757    0.3301061052886271    0.3085374386227944    0.29463068892583694    
  0.2898456391988567    0.29463068892583694    0.3085374386227943    0.330106105288627    0.35633535764298757    
  0.3817325270310696    0.39811015356809837    0.3970649185096112    0.37506301734677266    0.33710542746815897    
  0.29476862177774676    0.26011835241381975    0.24111579798672175    0.24111579798672172    0.2601183524138198    
  0.29476862177774676    0.21073772930091444    0.2601183524138198    0.3174558140290689    0.36729938599774276    
  0.3956378954847104    0.3981101535680984    0.38099361090786277    0.35511435747364    0.3297048833429446    
  0.310414202863747    0.3001477015963096    0.30014770159630966    0.31041420286374694    0.32970488334294445    
  0.35511435747364    0.38099361090786277    0.39811015356809837    0.3956378954847104    0.36729938599774276    
  0.3174558140290689    0.26011835241381975    0.21073772930091447    0.17898892644257272    0.16824266849128555    
  0.17898892644257275    0.21073772930091444    0.1359458607886283    0.1789889264425727    0.24111579798672175    
  0.31025336500384765    0.3672993859977427    0.3970649185096111    0.3975917331587681    0.37850538129049704    
  0.352426143073628    0.3287960212178212    0.31293787848286436    0.30739722777986356    0.3129378784828643    
  0.32879602121782125    0.35242614307362813    0.378505381290497    0.39759173315876806    0.3970649185096111    
  0.3672993859977427    0.3102533650038477    0.2411157979867218    0.17898892644257278    0.13594586078862836    
  0.11491058611779015    0.1149105861177901    0.1359458607886283    0.08500827179423603    0.11491058611779015    
  0.16824266849128552    0.24111579798672175    0.3174558140290688    0.3750630173467726    0.40022950751648784    
  0.39545576582842334    0.3736279246087367    0.34797247822167593    0.3272067453982094    0.31587454960810946    
  0.3158745496081094    0.32720674539820926    0.347972478221676    0.37362792460873673    0.39545576582842334    
  0.40022950751648784    0.3750630173467726    0.31745581402906886    0.24111579798672175    0.16824266849128547    
  0.11491058611779015    0.08500827179423609    0.07568877351402838    0.08500827179423603    0.05831108632310066    
  0.07568877351402845    0.1149105861177902    0.17898892644257278    0.2601183524138198    0.3371054274681589    
  0.3872971168551978    0.40222249580288627    0.39007841172066504    0.3657866282024407    0.3416642327763753    
  0.32492378988928283    0.3190055153350741    0.3249237898892827    0.3416642327763753    0.3657866282024407    
  0.3900784117206648    0.4022224958028862    0.38729711685519785    0.3371054274681589    0.2601183524138199    
  0.17898892644257283    0.11491058611779015    0.07568877351402849    0.05831108632310069    0.05831108632310066    
  0.050346586696660395    0.05831108632310069    0.08500827179423609    0.13594586078862841    0.2107377293009145    
  0.29476862177774676    0.3633360060690356    0.3983308884104718    0.39960567195309965    0.3802207956837965    
  0.35491916334122753    0.3337783598614041    0.32210635775452195    0.32210635775452195    0.3337783598614041    
  0.35491916334122753    0.3802207956837965    0.39960567195309965    0.3983308884104718    0.3633360060690356    
  0.29476862177774676    0.2107377293009145    0.13594586078862841    0.08500827179423609    0.05831108632310069    
  0.050346586696660395    0.05841456672435026    0.06685735714976176    0.0946997403104968    0.1465230222048451    
  0.22066815772268294    0.30193174458600414    0.36646210625294906    0.3977471250895882    0.3966434165844562    
  0.376190898281542    0.350607217517014    0.3294908809211421    0.31788322530183705    0.31788322530183705    
  0.3294908809211421    0.350607217517014    0.376190898281542    0.3966434165844562    0.3977471250895882    
  0.36646210625294906    0.30193174458600414    0.22066815772268294    0.1465230222048451    0.0946997403104968    
  0.06685735714976176    0.05841456672435026    0.06685735714976171    0.06685735714976176    0.08504890274070917    
  0.12528529538083694    0.18942374151525962    0.2686685428078358    0.3420232157366918    0.3882171306206214    
  0.40014113879161534    0.3864014185792854    0.36154775627461777    0.33736184473887176    0.3206946438478362    
  0.3148163729499354    0.3206946438478363    0.3373618447388717    0.36154775627461777    0.38640141857928556    
  0.40014113879161545    0.3882171306206213    0.3420232157366918    0.26866854280783575    0.18942374151525956    
  0.12528529538083696    0.08504890274070917    0.06685735714976171    0.0946997403104968    0.08504890274070913    
  0.09469974031049684    0.12528529538083694    0.17877477845195006    0.250276462388401    0.32348630852243043    
  0.37716649558598064    0.39899305338066793    0.3921958720555804    0.36952105311547345    0.3436890318695129    
  0.3229917196917838    0.31173996790662617    0.3117399679066263    0.3229917196917839    0.3436890318695129    
  0.3695210531154734    0.39219587205558043    0.39899305338066793    0.37716649558598064    0.3234863085224303    
  0.25027646238840107    0.1787747784519501    0.1252852953808369    0.0946997403104968    0.14652302220484503    
  0.12528529538083688    0.1252852953808369    0.14652302220484506    0.18942374151525956    0.25027646238840107    
  0.31665360858664    0.3700433476612202    0.3964308064419249    0.3946998347869635    0.3745448438100356    
  0.3481765991036888    0.32459947767719444    0.30885983369786996    0.303371318781957    0.30885983369786996    
  0.3245994776771944    0.3481765991036888    0.37454484381003567    0.3946998347869636    0.3964308064419249    
  0.3700433476612202    0.31665360858664    0.25027646238840107    0.18942374151525948    0.14652302220484503    
  0.22066815772268286    0.18942374151525956    0.17877477845195008    0.18942374151525954    0.22066815772268294    
  0.2686685428078357    0.32348630852243043    0.3700433476612202    0.3952209694344448    0.3954326051677889    
  0.3771450537996948    0.3508958625311948    0.32551949547738906    0.3063773930068894    0.29621853494827477    
  0.2962185349482747    0.3063773930068894    0.32551949547738923    0.3508958625311948    0.3771450537996949    
  0.395432605167789    0.39522096943444485    0.3700433476612202    0.32348630852243043    0.26866854280783575    
  0.22066815772268286    0.30193174458600414    0.26866854280783575    0.250276462388401    0.25027646238840107    
  0.2686685428078357    0.30193174458600414    0.34202321573669187    0.3771664955859807    0.3964308064419249    
  0.39543260516778894    0.37792563350323966    0.3521343722650848    0.3259233832910894    0.3045211837479602    
  0.2907693077862106    0.28604467233154796    0.2907693077862106    0.30452118374796033    0.32592338329108955    
  0.35213437226508476    0.37792563350323966    0.39543260516778894    0.3964308064419249    0.37716649558598064    
  0.3420232157366918    0.30193174458600414    0.36646210625294906    0.34202321573669175    0.3234863085224304    
  0.31665360858664    0.3234863085224303    0.34202321573669187    0.3664621062529491    0.38821713062062135    
  0.3989930533806679    0.39469983478696347    0.37714505379969476    0.35213437226508487    0.3260259982319098    
  0.3035190364718184    0.287366177666282    0.27898546787876466    0.27898546787876466    0.28736617766628186    
  0.3035190364718186    0.32602599823190986    0.3521343722650848    0.3771450537996948    0.3946998347869635    
  0.3989930533806679    0.38821713062062124    0.36646210625294906    0.3977471250895881    0.38821713062062124    
  0.37716649558598064    0.3700433476612202    0.3700433476612202    0.37716649558598064    0.38821713062062124    
  0.39774712508958815    0.4001411387916154    0.3921958720555804    0.37454484381003555    0.35089586253119476    
  0.32592338329108944    0.3035190364718185    0.2862099142528921    0.27538851908046763    0.2717168942819136    
  0.27538851908046774    0.2862099142528922    0.3035190364718185    0.32592338329108944    0.35089586253119476    
  0.3745448438100356    0.39219587205558043    0.4001411387916153    0.3977471250895881    0.3966434165844562    
  0.4001411387916152    0.39899305338066793    0.3964308064419249    0.39522096943444474    0.39643080644192485    
  0.398993053380668    0.4001411387916154    0.3966434165844562    0.3864014185792855    0.36952105311547345    
  0.3481765991036888    0.3255194954773891    0.3045211837479602    0.2873661776662819    0.27538851908046763    
  0.2692682360429128    0.2692682360429129    0.27538851908046774    0.2873661776662819    0.3045211837479603    
  0.3255194954773892    0.3481765991036888    0.3695210531154735    0.38640141857928545    0.3966434165844562    
  0.37619089828154195    0.3864014185792854    0.3921958720555804    0.3946998347869635    0.39543260516778894    
  0.39543260516778894    0.3946998347869635    0.39219587205558043    0.38640141857928556    0.376190898281542    
  0.3615477562746179    0.34368903186951294    0.3245994776771944    0.3063773930068893    0.29076930778621063    
  0.2789854678787647    0.2717168942819136    0.2692682360429129    0.27171689428191365    0.27898546787876466    
  0.2907693077862106    0.30637739300688943    0.32459947767719444    0.3436890318695129    0.36154775627461777    
  0.37619089828154195    0.35060721751701407    0.36154775627461777    0.36952105311547345    0.3745448438100356    
  0.3771450537996948    0.37792563350323966    0.3771450537996949    0.3745448438100356    0.36952105311547345    
  0.36154775627461777    0.35060721751701407    0.3373618447388718    0.32299171969178375    0.30885983369786985    
  0.2962185349482748    0.28604467233154796    0.27898546787876466    0.2753885190804677    0.27538851908046774    
  0.2789854678787647    0.2860446723315479    0.29621853494827466    0.30885983369786996    0.32299171969178386    
  0.3373618447388717    0.35060721751701407    0.32949088092114204    0.33736184473887165    0.3436890318695129    
  0.34817659910368876    0.35089586253119476    0.35213437226508476    0.3521343722650848    0.35089586253119476    
  0.3481765991036888    0.34368903186951283    0.33736184473887165    0.3294908809211421    0.3206946438478362    
  0.31173996790662617    0.303371318781957    0.29621853494827466    0.2907693077862106    0.2873661776662819    
  0.28620991425289216    0.28736617766628186    0.2907693077862106    0.29621853494827466    0.30337131878195694    
  0.3117399679066262    0.3206946438478362    0.32949088092114204    0.3178832253018371    0.32069464384783625    
  0.32299171969178386    0.3245994776771945    0.3255194954773891    0.32592338329108944    0.3260259982319099    
  0.32592338329108944    0.3255194954773892    0.32459947767719444    0.3229917196917839    0.32069464384783636    
  0.3178832253018371    0.31481637294993553    0.3117399679066263    0.30885983369786996    0.3063773930068894    
  0.3045211837479602    0.3035190364718185    0.3035190364718186    0.3045211837479602    0.30637739300688943    
  0.30885983369786996    0.3117399679066263    0.31481637294993553    0.3178832253018371    0.3178832253018371    
  0.31481637294993553    0.3117399679066263    0.30885983369786996    0.30637739300688943    0.3045211837479602    
  0.3035190364718186    0.3035190364718185    0.3045211837479602    0.3063773930068894    0.30885983369786996    
  0.31173996790662634    0.31481637294993553    0.3178832253018371    0.32069464384783636    0.3229917196917839    
  0.32459947767719444    0.3255194954773892    0.32592338329108944    0.3260259982319099    0.32592338329108944    
  0.3255194954773891    0.3245994776771945    0.32299171969178386    0.32069464384783625    0.3178832253018371    
  0.32949088092114204    0.3206946438478362    0.3117399679066262    0.30337131878195694    0.29621853494827466    
  0.2907693077862106    0.28736617766628186    0.28620991425289216    0.2873661776662819    0.2907693077862106    
  0.29621853494827466    0.303371318781957    0.31173996790662617    0.3206946438478362    0.3294908809211421    
  0.33736184473887165    0.34368903186951283    0.3481765991036888    0.35089586253119476    0.3521343722650848    
  0.35213437226508476    0.35089586253119476    0.34817659910368876    0.3436890318695129    0.3373618447388716    
  0.32949088092114204    0.35060721751701407    0.3373618447388717    0.32299171969178386    0.30885983369786996    
  0.29621853494827466    0.2860446723315479    0.2789854678787647    0.27538851908046774    0.2753885190804677    
  0.27898546787876466    0.28604467233154796    0.2962185349482748    0.30885983369786985    0.32299171969178375    
  0.3373618447388718    0.35060721751701407    0.36154775627461777    0.36952105311547345    0.3745448438100356    
  0.3771450537996949    0.37792563350323966    0.3771450537996948    0.3745448438100356    0.36952105311547345    
  0.3615477562746178    0.35060721751701407    0.37619089828154195    0.36154775627461777    0.3436890318695129    
  0.32459947767719444    0.30637739300688943    0.2907693077862106    0.27898546787876466    0.27171689428191365    
  0.2692682360429129    0.2717168942819136    0.2789854678787647    0.29076930778621063    0.3063773930068893    
  0.3245994776771944    0.34368903186951294    0.3615477562746179    0.376190898281542    0.38640141857928556    
  0.39219587205558043    0.3946998347869635    0.39543260516778894    0.39543260516778894    0.3946998347869635    
  0.3921958720555804    0.3864014185792854    0.37619089828154195    0.3966434165844562    0.38640141857928545    
  0.3695210531154735    0.3481765991036888    0.3255194954773892    0.3045211837479603    0.2873661776662819    
  0.27538851908046774    0.2692682360429129    0.2692682360429128    0.27538851908046763    0.287366177666282    
  0.3045211837479602    0.3255194954773891    0.3481765991036888    0.36952105311547345    0.3864014185792855    
  0.3966434165844562    0.4001411387916154    0.398993053380668    0.39643080644192485    0.39522096943444474    
  0.3964308064419249    0.39899305338066793    0.4001411387916152    0.3966434165844562    0.3977471250895881    
  0.4001411387916153    0.39219587205558043    0.3745448438100356    0.35089586253119476    0.32592338329108944    
  0.3035190364718185    0.2862099142528922    0.27538851908046774    0.2717168942819136    0.27538851908046763    
  0.2862099142528921    0.3035190364718185    0.32592338329108944    0.35089586253119476    0.37454484381003555    
  0.3921958720555804    0.4001411387916154    0.39774712508958815    0.38821713062062124    0.37716649558598064    
  0.3700433476612202    0.3700433476612202    0.37716649558598064    0.38821713062062124    0.3977471250895881    
  0.36646210625294906    0.3882171306206213    0.3989930533806679    0.3946998347869635    0.3771450537996948    
  0.3521343722650848    0.32602599823190986    0.3035190364718186    0.28736617766628186    0.27898546787876466    
  0.27898546787876466    0.287366177666282    0.3035190364718184    0.3260259982319098    0.35213437226508487    
  0.37714505379969476    0.39469983478696347    0.3989930533806679    0.38821713062062135    0.3664621062529491    
  0.34202321573669187    0.3234863085224303    0.31665360858664    0.3234863085224304    0.34202321573669175    
  0.36646210625294906    0.30193174458600414    0.3420232157366918    0.37716649558598064    0.3964308064419249    
  0.39543260516778894    0.37792563350323966    0.35213437226508476    0.32592338329108955    0.30452118374796033    
  0.2907693077862106    0.28604467233154796    0.2907693077862106    0.3045211837479602    0.3259233832910894    
  0.3521343722650848    0.37792563350323966    0.39543260516778894    0.3964308064419249    0.3771664955859807    
  0.34202321573669187    0.30193174458600414    0.2686685428078357    0.25027646238840107    0.250276462388401    
  0.26866854280783575    0.30193174458600414    0.2206681577226829    0.26866854280783575    0.32348630852243043    
  0.3700433476612202    0.39522096943444485    0.395432605167789    0.3771450537996949    0.3508958625311948    
  0.32551949547738923    0.3063773930068894    0.2962185349482747    0.29621853494827477    0.3063773930068894    
  0.32551949547738906    0.3508958625311948    0.3771450537996948    0.3954326051677889    0.3952209694344448    
  0.3700433476612202    0.32348630852243043    0.2686685428078357    0.22066815772268294    0.18942374151525954    
  0.17877477845195008    0.18942374151525956    0.2206681577226829    0.14652302220484503    0.18942374151525948    
  0.25027646238840107    0.31665360858664    0.3700433476612202    0.3964308064419249    0.3946998347869636    
  0.37454484381003567    0.3481765991036888    0.32459947767719444    0.30885983369786996    0.303371318781957    
  0.30885983369786996    0.32459947767719444    0.3481765991036888    0.3745448438100356    0.3946998347869635    
  0.3964308064419249    0.3700433476612202    0.31665360858664    0.25027646238840107    0.18942374151525956    
  0.14652302220484506    0.1252852953808369    0.12528529538083685    0.14652302220484503    0.0946997403104968    