#     DFTpy    
  CRYSTAL 
    
  PRIMVEC    
  1.6446165252201104    -2.8485593806486103    0.0    
  1.6446165252201104    2.8485593806486103    0.0    
  0.0    0.0    3.0956999929655202    
  PRIMCOORD    
  1    1    
  Si    0.0    0.0    0.0    
  BEGIN_BLOCK_DATAGRID_3D    
  3d_datagrid_density    
  BEGIN_DATAGRID_3D#0    
  33    33    31    
  0.0    0.0    0.0    
  1.6446165313545613    -2.848559391273791    0.0    
  1.6446165313545613    2.848559391273791    0.0    
  0.0    0.0    3.0957000045125405    
  0.05863836098377567    0.06667911735151692    0.0930820461930739    0.1419378071990487    0.2113428570639079    
  0.28624327867503513    0.3426163848543235    0.36296864312887434    0.34724526929812427    0.30868716671857316    
  0.2624683151270851    0.21877142757545198    0.18237138543157055    0.15473457172371108    0.13576806854305112    
  0.12481458557917324    0.12124618189672093    0.12481458557917324    0.13576806854305112    0.15473457172371108    
  0.18237138543157055    0.21877142757545198    0.2624683151270851    0.30868716671857316    0.34724526929812427    
  0.36296864312887434    0.3426163848543235    0.28624327867503513    0.2113428570639079    0.1419378071990487    
  0.0930820461930739    0.06667911735151692    0.05863836098377567    0.06667911735151685    0.06667911735151692    
  0.08394571606300968    0.1219465075088634    0.18215640140049022    0.25579917961988247    0.3219686769037376    
  0.3587774977858781    0.3580227134058634    0.3279330169685465    0.28376411167200416    0.23816599866267404    
  0.19812437335601493    0.16635664853568083    0.14334281170354315    0.12861202242039668    0.12147496963889487    
  0.12147496963889487    0.12861202242039668    0.14334281170354315    0.16635664853568083    0.19812437335601493    
  0.23816599866267413    0.28376411167200416    0.3279330169685464    0.3580227134058634    0.35877749778587803    
  0.3219686769037376    0.25579917961988247    0.18215640140049028    0.12194650750886345    0.08394571606300975    
  0.06667911735151685    0.09308204619307384    0.08394571606300963    0.0930820461930739    0.1219465075088634    
  0.17217250034903273    0.23877342249406638    0.3055868302048551    0.35110285543369213    0.3620503989610613    
  0.34090879193325174    0.30069257913853414    0.25499836851813706    0.21260741426023366    0.17753601108693243    
  0.15095477466978735    0.13269991260357838    0.1221390689544038    0.11869377024191102    0.1221390689544038    
  0.13269991260357838    0.15095477466978738    0.1775360110869324    0.21260741426023366    0.25499836851813706    
  0.3006925791385341    0.34090879193325174    0.3620503989610613    0.35110285543369213    0.30558683020485505    
  0.23877342249406636    0.17217250034903273    0.1219465075088634    0.09308204619307384    0.1419378071990487    
  0.1219465075088634    0.12194650750886338    0.14193780719904878    0.1821564014004902    0.23877342249406636    
  0.29944689821223136    0.3455817931752518    0.3625105431083783    0.34831789903818766    0.3125948499703537    
  0.26821277227204315    0.2248336819048698    0.18751649855381367    0.15811348970299502    0.13682432863164892    
  0.12316112466898063    0.1165192794332756    0.1165192794332756    0.12316112466898063    0.13682432863164892    
  0.158113489702995    0.1875164985538137    0.2248336819048698    0.26821277227204315    0.3125948499703537    
  0.34831789903818766    0.3625105431083783    0.3455817931752518    0.29944689821223136    0.23877342249406644    
  0.18215640140049028    0.1419378071990487    0.2113428570639079    0.1821564014004903    0.17217250034903273    
  0.18215640140049028    0.21134285706390799    0.25579917961988247    0.30558683020485505    0.34558179317525184    
  0.362283755269425    0.35151077614071613    0.3194963603220979    0.2771797531974894    0.23401436159944256    
  0.1955881426956542    0.16428576699052205    0.1406560901625101    0.12439546141484369    0.11494420890696644    
  0.1118494045187003    0.11494420890696644    0.12439546141484369    0.1406560901625101    0.16428576699052203    
  0.1955881426956542    0.2340143615994425    0.2771797531974895    0.3194963603220978    0.3515107761407161    
  0.3622837552694251    0.3455817931752518    0.30558683020485505    0.2557991796198826    0.2113428570639079    
  0.2862432786750351    0.2557991796198826    0.23877342249406638    0.23877342249406638    0.25579917961988247    
  0.286243278675035    0.32196867690373765    0.3511028554336921    0.3625105431083783    0.35151077614071613    
  0.32173578245099155    0.2816728465711888    0.23966218227407357    0.20121584134868536    0.1690019231157018    
  0.14385028253378443    0.1256430819108355    0.11390214238988101    0.10816224982445893    0.10816224982445893    
  0.11390214238988103    0.12564308191083548    0.14385028253378443    0.1690019231157018    0.2012158413486854    
  0.23966218227407357    0.28167284657118885    0.32173578245099155    0.3515107761407161    0.3625105431083783    
  0.35110285543369213    0.3219686769037377    0.2862432786750351    0.34261638485432344    0.32196867690373765    
  0.30558683020485516    0.29944689821223136    0.30558683020485505    0.3219686769037376    0.3426163848543235    
  0.35877749778587803    0.3620503989610613    0.34831789903818766    0.3194963603220979    0.2816728465711888    
  0.2415620856633397    0.2040911467353289    0.17193924039154132    0.14612359882757298    0.12669796509450176    
  0.11328194097298873    0.10543237231519478    0.1028491637318336    0.10543237231519474    0.11328194097298869    
  0.12669796509450182    0.14612359882757298    0.17193924039154132    0.20409114673532897    0.2415620856633397    
  0.2816728465711888    0.3194963603220978    0.3483178990381877    0.3620503989610613    0.35877749778587803    
  0.34261638485432344    0.3629686431288742    0.3587774977858781    0.35110285543369213    0.34558179317525173    
  0.3455817931752518    0.3511028554336921    0.35877749778587814    0.3629686431288743    0.3580227134058634    
  0.34090879193325174    0.3125948499703537    0.2771797531974894    0.23966218227407357    0.20409114673532894    
  0.1729336933635383    0.14729874814653535    0.12739596629991226    0.11295854948877797    0.10358814423933384    
  0.09897667431008748    0.09897667431008746    0.10358814423933382    0.11295854948877797    0.1273959662999123    
  0.14729874814653535    0.1729336933635383    0.20409114673532894    0.23966218227407363    0.2771797531974894    
  0.31259484997035364    0.34090879193325174    0.3580227134058634    0.3629686431288742    0.3472452692981242    
  0.35802271340586345    0.3620503989610613    0.3625105431083783    0.362283755269425    0.3625105431083783    
  0.3620503989610613    0.35802271340586345    0.34724526929812427    0.3279330169685465    0.30069257913853414    
  0.26821277227204315    0.23401436159944256    0.20121584134868536    0.17193924039154132    0.14729874814653535    
  0.1276391122130271    0.11282665096223937    0.1025359649850583    0.09647223616910575    0.09446743631979165    
  0.09647223616910577    0.10253596498505832    0.11282665096223941    0.12763911221302712    0.1472987481465354    
  0.17193924039154132    0.20121584134868536    0.2340143615994425    0.26821277227204315    0.30069257913853414    
  0.32793301696854643    0.3472452692981242    0.30868716671857316    0.3279330169685465    0.34090879193325174    
  0.34831789903818766    0.35151077614071613    0.3515107761407161    0.34831789903818766    0.34090879193325174    
  0.3279330169685464    0.30868716671857316    0.28376411167200416    0.25499836851813706    0.2248336819048698    
  0.19558814269565417    0.16900192311570184    0.14612359882757298    0.12739596629991226    0.11282665096223937    
  0.10219578849356956    0.09524948916147916    0.09181402032117235    0.09181402032117236    0.09524948916147917    
  0.10219578849356958    0.11282665096223937    0.12739596629991232    0.14612359882757298    0.1690019231157018    
  0.1955881426956541    0.2248336819048698    0.25499836851813706    0.28376411167200416    0.30868716671857316    
  0.262468315127085    0.28376411167200416    0.30069257913853414    0.3125948499703537    0.3194963603220979    
  0.32173578245099155    0.3194963603220979    0.3125948499703537    0.3006925791385341    0.28376411167200416    
  0.262468315127085    0.23816599866267404    0.2126074142602336    0.18751649855381367    0.16428576699052203    
  0.14385028253378443    0.12669796509450176    0.112958549488778    0.10253596498505832    0.09524948916147916    
  0.09093960576178971    0.08951260082287896    0.09093960576178979    0.09524948916147917    0.10253596498505829    
  0.112958549488778    0.1266979650945018    0.14385028253378443    0.16428576699052197    0.18751649855381367    
  0.21260741426023366    0.2381659986626741    0.262468315127085    0.218771427575452    0.23816599866267413    
  0.25499836851813706    0.26821277227204315    0.27717975319748944    0.2816728465711888    0.28167284657118885    
  0.2771797531974895    0.2682127722720432    0.2549983685181371    0.23816599866267413    0.21877142757545198    
  0.19812437335601493    0.1775360110869324    0.15811348970299502    0.1406560901625101    0.1256430819108355    
  0.11328194097298872    0.10358814423933385    0.09647223616910577    0.09181402032117236    0.08951260082287896    
  0.08951260082287898    0.09181402032117239    0.09647223616910582    0.10358814423933389    0.11328194097298869    
  0.1256430819108355    0.1406560901625101    0.15811348970299502    0.17753601108693243    0.198124373356015    
  0.218771427575452    0.18237138543157055    0.19812437335601493    0.21260741426023366    0.2248336819048698    
  0.2340143615994425    0.23966218227407357    0.2415620856633397    0.23966218227407363    0.23401436159944256    
  0.22483368190486985    0.21260741426023366    0.1981243733560149    0.1823713854315706    0.16635664853568083    
  0.15095477466978738    0.13682432863164892    0.12439546141484369    0.11390214238988103    0.10543237231519478    
  0.09897667431008748    0.09446743631979167    0.09181402032117233    0.09093960576178979    0.0918140203211724    
  0.09446743631979171    0.0989766743100875    0.10543237231519476    0.11390214238988099    0.12439546141484364    
  0.13682432863164892    0.15095477466978738    0.16635664853568083    0.18237138543157055    0.15473457172371108    
  0.16635664853568083    0.17753601108693243    0.1875164985538137    0.19558814269565414    0.20121584134868534    
  0.2040911467353289    0.20409114673532897    0.2012158413486854    0.19558814269565417    0.18751649855381367    
  0.1775360110869324    0.1663566485356808    0.15473457172371105    0.14334281170354315    0.13269991260357838    
  0.12316112466898063    0.11494420890696645    0.10816224982445896    0.1028491637318336    0.09897667431008747    
  0.09647223616910573    0.0952494891614792    0.09524948916147918    0.09647223616910583    0.09897667431008753    
  0.10284916373183357    0.10816224982445889    0.11494420890696641    0.12316112466898069    0.1326999126035784    
  0.14334281170354315    0.15473457172371108    0.1357680685430511    0.14334281170354315    0.15095477466978738    
  0.15811348970299502    0.16428576699052197    0.1690019231157018    0.17193924039154132    0.1729336933635383    
  0.17193924039154132    0.16900192311570184    0.16428576699052203    0.15811348970299502    0.15095477466978738    
  0.14334281170354315    0.13576806854305115    0.12861202242039668    0.1221390689544038    0.1165192794332756    
  0.11184940451870033    0.10816224982445896    0.10543237231519477    0.10358814423933382    0.10253596498505835    
  0.10219578849356957    0.10253596498505829    0.10358814423933388    0.10543237231519476    0.1081622498244589    
  0.11184940451870026    0.11651927943327557    0.12213906895440381    0.12861202242039668    0.1357680685430511    
  0.12481458557917323    0.12861202242039668    0.1326999126035784    0.13682432863164892    0.1406560901625101    
  0.14385028253378437    0.14612359882757292    0.14729874814653537    0.14729874814653535    0.14612359882757303    
  0.14385028253378448    0.1406560901625101    0.13682432863164892    0.13269991260357838    0.12861202242039668    
  0.12481458557917327    0.12147496963889487    0.11869377024191102    0.1165192794332756    0.11494420890696644    
  0.11390214238988103    0.11328194097298869    0.11295854948877802    0.11282665096223944    0.1128266509622394    
  0.11295854948877802    0.11328194097298869    0.11390214238988099    0.11494420890696641    0.11651927943327554    
  0.11869377024191105    0.1214749696388949    0.12481458557917323    0.12124618189672096    0.12147496963889491    
  0.12213906895440384    0.12316112466898063    0.12439546141484367    0.12564308191083545    0.12669796509450182    
  0.1273959662999123    0.12763911221302712    0.1273959662999123    0.12669796509450182    0.1256430819108355    
  0.12439546141484369    0.12316112466898063    0.12213906895440381    0.1214749696388949    0.12124618189672093    
  0.1214749696388949    0.12213906895440381    0.12316112466898063    0.12439546141484369    0.1256430819108355    
  0.12669796509450182    0.1273959662999123    0.12763911221302712    0.1273959662999123    0.12669796509450182    
  0.12564308191083545    0.12439546141484367    0.12316112466898063    0.12213906895440384    0.12147496963889491    
  0.12124618189672096    0.12481458557917323    0.1214749696388949    0.11869377024191105    0.11651927943327554    
  0.11494420890696641    0.11390214238988099    0.11328194097298869    0.11295854948877802    0.1128266509622394    
  0.11282665096223944    0.11295854948877802    0.11328194097298869    0.11390214238988103    0.11494420890696644    
  0.1165192794332756    0.11869377024191102    0.12147496963889487    0.12481458557917327    0.12861202242039668    
  0.13269991260357838    0.13682432863164892    0.1406560901625101    0.14385028253378448    0.14612359882757303    
  0.14729874814653535    0.14729874814653537    0.14612359882757292    0.14385028253378437    0.1406560901625101    
  0.13682432863164892    0.1326999126035784    0.12861202242039668    0.12481458557917323    0.1357680685430511    
  0.12861202242039668    0.12213906895440381    0.11651927943327557    0.11184940451870026    0.1081622498244589    
  0.10543237231519476    0.10358814423933388    0.10253596498505829    0.10219578849356957    0.10253596498505835    
  0.10358814423933382    0.10543237231519477    0.10816224982445896    0.11184940451870033    0.1165192794332756    
  0.1221390689544038    0.12861202242039668    0.13576806854305115    0.14334281170354315    0.15095477466978738    
  0.15811348970299502    0.16428576699052203    0.16900192311570184    0.17193924039154132    0.1729336933635383    
  0.17193924039154132    0.1690019231157018    0.16428576699052197    0.15811348970299502    0.15095477466978738    
  0.14334281170354315    0.1357680685430511    0.15473457172371108    0.14334281170354315    0.1326999126035784    
  0.12316112466898069    0.11494420890696641    0.10816224982445889    0.10284916373183357    0.09897667431008753    
  0.09647223616910583    0.09524948916147918    0.0952494891614792    0.09647223616910573    0.09897667431008747    
  0.1028491637318336    0.10816224982445896    0.11494420890696645    0.12316112466898063    0.13269991260357838    
  0.14334281170354315    0.15473457172371105    0.1663566485356808    0.1775360110869324    0.18751649855381367    
  0.19558814269565417    0.2012158413486854    0.20409114673532897    0.2040911467353289    0.20121584134868534    
  0.19558814269565414    0.1875164985538137    0.17753601108693243    0.16635664853568083    0.15473457172371108    
  0.18237138543157055    0.16635664853568083    0.15095477466978738    0.13682432863164892    0.12439546141484364    
  0.11390214238988099    0.10543237231519476    0.0989766743100875    0.09446743631979171    0.0918140203211724    
  0.09093960576178979    0.09181402032117233    0.09446743631979167    0.09897667431008748    0.10543237231519478    
  0.11390214238988103    0.12439546141484369    0.13682432863164892    0.15095477466978738    0.16635664853568083    
  0.1823713854315706    0.1981243733560149    0.21260741426023366    0.22483368190486985    0.23401436159944256    
  0.23966218227407363    0.2415620856633397    0.23966218227407357    0.2340143615994425    0.2248336819048698    
  0.21260741426023366    0.19812437335601493    0.18237138543157055    0.218771427575452    0.198124373356015    
  0.17753601108693243    0.15811348970299502    0.1406560901625101    0.1256430819108355    0.11328194097298869    
  0.10358814423933389    0.09647223616910582    0.09181402032117239    0.08951260082287898    0.08951260082287896    
  0.09181402032117236    0.09647223616910577    0.10358814423933385    0.11328194097298872    0.1256430819108355    
  0.1406560901625101    0.15811348970299502    0.1775360110869324    0.19812437335601493    0.21877142757545198    
  0.23816599866267413    0.2549983685181371    0.2682127722720432    0.2771797531974895    0.28167284657118885    
  0.2816728465711888    0.27717975319748944    0.26821277227204315    0.25499836851813706    0.23816599866267413    
  0.218771427575452    0.262468315127085    0.2381659986626741    0.21260741426023366    0.18751649855381367    
  0.16428576699052197    0.14385028253378443    0.1266979650945018    0.112958549488778    0.10253596498505829    
  0.09524948916147917    0.09093960576178979    0.08951260082287896    0.09093960576178971    0.09524948916147916    
  0.10253596498505832    0.112958549488778    0.12669796509450176    0.14385028253378443    0.16428576699052203    
  0.18751649855381367    0.2126074142602336    0.23816599866267404    0.262468315127085    0.28376411167200416    
  0.3006925791385341    0.3125948499703537    0.3194963603220979    0.32173578245099155    0.3194963603220979    
  0.3125948499703537    0.30069257913853414    0.28376411167200416    0.262468315127085    0.30868716671857316    
  0.28376411167200416    0.25499836851813706    0.2248336819048698    0.1955881426956541    0.1690019231157018    
  0.14612359882757298    0.12739596629991232    0.11282665096223937    0.10219578849356958    0.09524948916147917    
  0.09181402032117236    0.09181402032117235    0.09524948916147916    0.10219578849356956    0.11282665096223937    
  0.12739596629991226    0.14612359882757298    0.16900192311570184    0.19558814269565417    0.2248336819048698    
  0.25499836851813706    0.28376411167200416    0.30868716671857316    0.3279330169685464    0.34090879193325174    
  0.34831789903818766    0.3515107761407161    0.35151077614071613    0.34831789903818766    0.34090879193325174    
  0.3279330169685465    0.30868716671857316    0.3472452692981242    0.32793301696854643    0.30069257913853414    
  0.26821277227204315    0.2340143615994425    0.20121584134868536    0.17193924039154132    0.1472987481465354    
  0.12763911221302712    0.11282665096223941    0.10253596498505832    0.09647223616910577    0.09446743631979165    
  0.09647223616910575    0.1025359649850583    0.11282665096223937    0.1276391122130271    0.14729874814653535    
  0.17193924039154132    0.20121584134868536    0.23401436159944256    0.26821277227204315    0.30069257913853414    
  0.3279330169685465    0.34724526929812427    0.35802271340586345    0.3620503989610613    0.3625105431083783    
  0.362283755269425    0.3625105431083783    0.3620503989610613    0.35802271340586345    0.3472452692981242    
  0.3629686431288742    0.3580227134058634    0.34090879193325174    0.31259484997035364    0.2771797531974894    
  0.23966218227407363    0.20409114673532894    0.1729336933635383    0.14729874814653535    0.1273959662999123    
  0.11295854948877797    0.10358814423933382    0.09897667431008746    0.09897667431008748    0.10358814423933384    
  0.11295854948877797    0.12739596629991226    0.14729874814653535    0.1729336933635383    0.20409114673532894    
  0.23966218227407357    0.2771797531974894    0.3125948499703537    0.34090879193325174    0.3580227134058634    
  0.3629686431288743    0.35877749778587814    0.3511028554336921    0.3455817931752518    0.34558179317525173    
  0.35110285543369213    0.3587774977858781    0.3629686431288742    0.34261638485432344    0.35877749778587803    
  0.3620503989610613    0.3483178990381877    0.3194963603220978    0.2816728465711888    0.2415620856633397    
  0.20409114673532897    0.17193924039154132    0.14612359882757298    0.12669796509450182    0.11328194097298869    
  0.10543237231519474    0.1028491637318336    0.10543237231519478    0.11328194097298873    0.12669796509450176    
  0.14612359882757298    0.17193924039154132    0.2040911467353289    0.2415620856633397    0.2816728465711888    
  0.3194963603220979    0.34831789903818766    0.3620503989610613    0.35877749778587803    0.3426163848543235    
  0.3219686769037376    0.30558683020485505    0.29944689821223136    0.30558683020485516    0.32196867690373765    
  0.34261638485432344    0.2862432786750351    0.3219686769037377    0.35110285543369213    0.3625105431083783    
  0.3515107761407161    0.32173578245099155    0.28167284657118885    0.23966218227407357    0.2012158413486854    
  0.1690019231157018    0.14385028253378443    0.12564308191083548    0.11390214238988103    0.10816224982445893    
  0.10816224982445893    0.11390214238988101    0.1256430819108355    0.14385028253378443    0.1690019231157018    
  0.20121584134868536    0.23966218227407357    0.2816728465711888    0.32173578245099155    0.35151077614071613    
  0.3625105431083783    0.3511028554336921    0.32196867690373765    0.286243278675035    0.25579917961988247    
  0.23877342249406638    0.23877342249406638    0.2557991796198826    0.2862432786750351    0.2113428570639079    
  0.2557991796198826    0.30558683020485505    0.3455817931752518    0.3622837552694251    0.3515107761407161    
  0.3194963603220978    0.2771797531974895    0.2340143615994425    0.1955881426956542    0.16428576699052203    
  0.1406560901625101    0.12439546141484369    0.11494420890696644    0.1118494045187003    0.11494420890696644    
  0.12439546141484369    0.1406560901625101    0.16428576699052205    0.1955881426956542    0.23401436159944256    
  0.2771797531974894    0.3194963603220979    0.35151077614071613    0.362283755269425    0.34558179317525184    
  0.30558683020485505    0.25579917961988247    0.21134285706390799    0.18215640140049028    0.17217250034903273    
  0.1821564014004903    0.2113428570639079    0.1419378071990487    0.18215640140049028    0.23877342249406644    
  0.29944689821223136    0.3455817931752518    0.3625105431083783    0.34831789903818766    0.3125948499703537    
  0.26821277227204315    0.2248336819048698    0.1875164985538137    0.158113489702995    0.13682432863164892    
  0.12316112466898063    0.1165192794332756    0.1165192794332756    0.12316112466898063    0.13682432863164892    
  0.15811348970299502    0.18751649855381367    0.2248336819048698    0.26821277227204315    0.3125948499703537    
  0.34831789903818766    0.3625105431083783    0.3455817931752518    0.29944689821223136    0.23877342249406636    
  0.1821564014004902    0.14193780719904878    0.12194650750886338    0.1219465075088634    0.1419378071990487    
  0.09308204619307384    0.1219465075088634    0.17217250034903273    0.23877342249406636    0.30558683020485505    
  0.35110285543369213    0.3620503989610613    0.34090879193325174    0.3006925791385341    0.25499836851813706    
  0.21260741426023366    0.1775360110869324    0.15095477466978738    0.13269991260357838    0.1221390689544038    
  0.11869377024191102    0.1221390689544038    0.13269991260357838    0.15095477466978735    0.17753601108693243    
  0.21260741426023366    0.25499836851813706    0.30069257913853414    0.34090879193325174    0.3620503989610613    
  0.35110285543369213    0.3055868302048551    0.23877342249406638    0.17217250034903273    0.1219465075088634    
  0.0930820461930739    0.08394571606300963    0.09308204619307384    0.06667911735151685    0.08394571606300975    
  0.12194650750886345    0.18215640140049028    0.25579917961988247    0.3219686769037376    0.35877749778587803    
  0.3580227134058634    0.3279330169685464    0.28376411167200416    0.23816599866267413    0.19812437335601493    
  0.16635664853568083    0.14334281170354315    0.12861202242039668    0.12147496963889487    0.12147496963889487    
  0.12861202242039668    0.14334281170354315    0.16635664853568083    0.19812437335601493    0.23816599866267404    
  0.28376411167200416    0.3279330169685465    0.3580227134058634    0.3587774977858781    0.3219686769037376    
  0.25579917961988247    0.18215640140049022    0.1219465075088634    0.08394571606300968    0.06667911735151692    
  0.06667911735151685    0.05863836098377567    0.06667911735151692    0.0930820461930739    0.1419378071990487    
  0.2113428570639079    0.28624327867503513    0.3426163848543235    0.36296864312887434    0.34724526929812427    
  0.30868716671857316    0.2624683151270851    0.21877142757545198    0.18237138543157055    0.15473457172371108    
  0.13576806854305112    0.12481458557917324    0.12124618189672093    0.12481458557917324    0.13576806854305112    
  0.15473457172371108    0.18237138543157055    0.21877142757545198    0.2624683151270851    0.30868716671857316    
  0.34724526929812427    0.36296864312887434    0.3426163848543235    0.28624327867503513    0.2113428570639079    
  0.1419378071990487    0.0930820461930739    0.06667911735151692    0.05863836098377567    0.06687848643858037    
  0.07533102608100654    0.10269346539244749    0.15220493079632777    0.2208355211584318    0.29305058976838366    
  0.34564776900799915    0.3626322889894882    0.3448994216725365    0.30565967713580355    0.25955377133599067    
  0.21627490152741943    0.18032666113718182    0.15306317882471557    0.13435700433685155    0.12355122353230832    
  0.12002991878944777    0.12355122353230832    0.13435700433685155    0.15306317882471557    0.18032666113718182    
  0.21627490152741943    0.25955377133599067    0.30565967713580355    0.3448994216725365    0.3626322889894882    
  0.34564776900799915    0.29305058976838366    0.2208355211584318    0.15220493079632777    0.10269346539244749    
  0.07533102608100654    0.06687848643858037    0.0753310260810065    0.07533102608100657    0.0932846272735457    
  0.132089528972214    0.19218369141435762    0.26393802762605406    0.326674070929052    0.3598032935082485    
  0.3564037591828944    0.32508974743609614    0.2807409866083465    0.2354637481663552    0.19587701880970937    
  0.1645260049515971    0.14182754969565878    0.12729776931934264    0.12025587630927552    0.12025587630927552    
  0.12729776931934264    0.14182754969565878    0.16452600495159708    0.1958770188097094    0.23546374816635526    
  0.2807409866083465    0.3250897474360961    0.3564037591828944    0.3598032935082485    0.326674070929052    
  0.26393802762605406    0.19218369141435765    0.13208952897221404    0.09328462727354574    0.0753310260810065    
  0.10269346539244747    0.09328462727354565    0.10269346539244749    0.13208952897221402    0.18231609099337615    
  0.24751201460300953    0.3113524586952245    0.35323830649949167    0.3611917098287551    0.338378718810349    
  0.29766985545589253    0.25215435375470724    0.21018684911492475    0.17555444517684615    0.14933301576984767    
  0.13132912304305822    0.12091105470515642    0.1175113909183515    0.12091105470515642    0.13132912304305822    
  0.1493330157698477    0.17555444517684612    0.21018684911492472    0.2521543537547073    0.2976698554558925    
  0.338378718810349    0.3611917098287551    0.35323830649949167    0.31135245869522443    0.24751201460300953    
  0.18231609099337615    0.13208952897221402    0.10269346539244747    0.15220493079632777    0.13208952897221402    
  0.13208952897221396    0.15220493079632785    0.19218369141435757    0.24751201460300948    0.3055687120426194    
  0.3483298231421245    0.3622206326527568    0.34611030919945956    0.30964657220966396    0.2652944386075766    
  0.2222829868678418    0.18540487270340322    0.15639049327497934    0.13539380806299398    0.12191758019232064    
  0.11536470536779424    0.11536470536779424    0.12191758019232064    0.13539380806299398    0.1563904932749793    
  0.18540487270340328    0.2222829868678418    0.2652944386075766    0.309646572209664    0.34611030919945956    
  0.3622206326527568    0.3483298231421245    0.3055687120426194    0.24751201460300953    0.19218369141435762    
  0.15220493079632777    0.2208355211584318    0.19218369141435765    0.18231609099337615    0.19218369141435765    
  0.2208355211584318    0.26393802762605406    0.31135245869522443    0.3483298231421245    0.36220356836498446    
  0.349505501614369    0.31663347922665813    0.2742375668527281    0.23138046305918064    0.19337727296786078    
  0.1624757001279274    0.13916747878388036    0.12313070965737498    0.11380753900775763    0.11075391124532404    
  0.11380753900775764    0.12313070965737492    0.13916747878388033    0.1624757001279274    0.19337727296786075    
  0.23138046305918064    0.2742375668527282    0.3166334792266581    0.34950550161436894    0.36220356836498446    
  0.3483298231421245    0.3113524586952245    0.2639380276260541    0.2208355211584318    0.2930505897683836    
  0.2639380276260541    0.24751201460300953    0.24751201460300953    0.26393802762605406    0.29305058976838355    
  0.32667407092905204    0.3532383064994916    0.3622206326527568    0.349505501614369    0.31890948321064894    