#     DFTpy    
  CRYSTAL 
    
  PRIMVEC    
  1.2650896347847003    -2.1911995235758606    0.0    
  1.2650896347847003    2.1911995235758606    0.0    
  0.0    0.0    2.3813076868965504    
  PRIMCOORD    
  1    1    
  Si    0.0    0.0    0.0    
  BEGIN_BLOCK_DATAGRID_3D    
  3d_datagrid_density    
  BEGIN_DATAGRID_3D#0    
  25    25    25    
  0.0    0.0    0.0    
  1.2650896395035087    -2.191199531749077    0.0    
  1.2650896395035087    2.191199531749077    0.0    
  0.0    0.0    2.3813076957788732    
  0.04859136938525079    0.05650658821469425    0.0831912589107599    0.13465491313105143    0.21145132772039316    
  0.2999192028782275    0.3754398611655283    0.4187726263253448    0.42826078534945994    0.41619755354236765    
  0.3975096755764234    0.3827540104720417    0.3773126022970751    0.3827540104720418    0.3975096755764234    
  0.4161975535423677    0.42826078534945994    0.4187726263253448    0.3754398611655283    0.29991920287822754    
  0.21145132772039316    0.1346549131310514    0.0831912589107599    0.05650658821469425    0.04859136938525079    
  0.056506588214694155    0.05650658821469425    0.07384984802691952    0.11330688824341206    0.1786158789530522    
  0.26297574444349503    0.3457668534807169    0.40376239124244456    0.4270467908750852    0.42262050493343317    
  0.40516900731239075    0.38743554191498064    0.3769714410906064    0.3769714410906062    0.38743554191498064    
  0.40516900731239086    0.4226205049334332    0.4270467908750852    0.40376239124244456    0.34576685348071695    
  0.2629757444434951    0.1786158789530522    0.11330688824341209    0.07384984802691952    0.056506588214694155    
  0.08319125891076    0.07384984802691952    0.08319125891075994    0.11330688824341205    0.16754227944441752    
  0.2428465635460737    0.3238954507565388    0.3884255944697514    0.4216543287738395    0.42475360934496836    
  0.40995276477943526    0.39065138138875316    0.37601196902932177    0.370678181375788    0.3760119690293217    
  0.3906513813887532    0.40995276477943526    0.4247536093449685    0.4216543287738394    0.38842559446975133    
  0.32389545075653886    0.24284656354607367    0.16754227944441744    0.11330688824341216    0.08319125891076    
  0.1346549131310515    0.11330688824341209    0.11330688824341206    0.13465491313105143    0.1786158789530522    
  0.24284656354607376    0.3159229537015114    0.3789409663357114    0.41608302468531433    0.4242517079893134    
  0.4122014799978024    0.39240013130589513    0.37464047209697293    0.3645574535502188    0.36455745355021874    
  0.37464047209697293    0.3924001313058952    0.4122014799978024    0.4242517079893133    0.4160830246853143    
  0.3789409663357115    0.3159229537015113    0.2428465635460737    0.17861587895305225    0.1346549131310515    
  0.21145132772039313    0.17861587895305225    0.16754227944441744    0.1786158789530522    0.21145132772039316    
  0.26297574444349503    0.3238954507565388    0.37894096633571145    0.41377897627547555    0.4232620458480039    
  0.4128678176494476    0.39305919504487186    0.3732050738169054    0.359286998149873    0.354342085668077    
  0.3592869981498731    0.3732050738169053    0.39305919504487197    0.4128678176494476    0.4232620458480038    
  0.4137789762754756    0.3789409663357114    0.32389545075653886    0.26297574444349514    0.21145132772039313    
  0.29991920287822754    0.26297574444349514    0.2428465635460737    0.24284656354607367    0.2629757444434951    
  0.2999192028782275    0.3457668534807169    0.3884255944697514    0.41608302468531433    0.4232620458480039    
  0.4129494125477475    0.3931860983439153    0.3721178222944685    0.3554444471405465    0.34639112363020236    
  0.34639112363020247    0.35544444714054657    0.3721178222944685    0.3931860983439153    0.4129494125477474    
  0.4232620458480039    0.41608302468531433    0.3884255944697514    0.34576685348071695    0.29991920287822754    
  0.3754398611655283    0.34576685348071695    0.32389545075653886    0.31592295370151136    0.3238954507565388    
  0.34576685348071695    0.37543986116552824    0.40376239124244456    0.4216543287738395    0.4242517079893134    
  0.4128678176494476    0.3931860983439153    0.37171278297456617    0.3534273079123624    0.34138851375341017    
  0.3372058385076442    0.3413885137534102    0.35342730791236243    0.3717127829745661    0.39318609834391527    
  0.4128678176494476    0.4242517079893133    0.4216543287738395    0.4037623912424446    0.3754398611655283    
  0.4187726263253448    0.40376239124244456    0.3884255944697514    0.3789409663357115    0.37894096633571145    
  0.38842559446975133    0.40376239124244456    0.4187726263253448    0.42704679087508524    0.4247536093449685    
  0.4122014799978024    0.3930591950448719    0.3721178222944685    0.3534273079123624    0.339687027553293    
  0.3324565817888232    0.3324565817888232    0.33968702755329305    0.35342730791236243    0.3721178222944684    
  0.39305919504487197    0.4122014799978022    0.4247536093449685    0.4270467908750852    0.4187726263253448    
  0.42826078534945994    0.42704679087508524    0.4216543287738395    0.41608302468531433    0.41377897627547566    
  0.4160830246853142    0.4216543287738394    0.4270467908750852    0.42826078534945994    0.42262050493343317    
  0.40995276477943526    0.39240013130589513    0.3732050738169054    0.3554444471405465    0.3413885137534102    
  0.3324565817888232    0.32940105223661936    0.33245658178882315    0.3413885137534102    0.3554444471405465    
  0.3732050738169054    0.3924001313058951    0.40995276477943526    0.42262050493343317    0.42826078534945994    
  0.4161975535423677    0.4226205049334332    0.4247536093449685    0.4242517079893133    0.4232620458480039    
  0.4232620458480039    0.4242517079893133    0.4247536093449685    0.4226205049334332    0.4161975535423676    
  0.40516900731239075    0.39065138138875316    0.37464047209697304    0.35928699814987297    0.34639112363020236    
  0.33720583850764424    0.3324565817888232    0.33245658178882315    0.3372058385076442    0.34639112363020247    
  0.35928699814987314    0.37464047209697293    0.39065138138875316    0.40516900731239086    0.4161975535423677    
  0.3975096755764234    0.4051690073123908    0.40995276477943526    0.4122014799978023    0.4128678176494476    
  0.4129494125477474    0.4128678176494476    0.41220147999780227    0.40995276477943526    0.40516900731239075    
  0.3975096755764234    0.38743554191498064    0.37601196902932177    0.3645574535502188    0.3543420856680769    
  0.3463911236302025    0.34138851375341017    0.339687027553293    0.3413885137534102    0.34639112363020247    
  0.354342085668077    0.3645574535502187    0.37601196902932166    0.3874355419149806    0.3975096755764234    
  0.3827540104720418    0.3874355419149806    0.3906513813887532    0.39240013130589513    0.39305919504487197    
  0.3931860983439153    0.3931860983439153    0.39305919504487197    0.39240013130589513    0.3906513813887532    
  0.3874355419149807    0.3827540104720418    0.3769714410906064    0.370678181375788    0.36455745355021874    
  0.3592869981498731    0.3554444471405465    0.3534273079123624    0.35342730791236243    0.3554444471405465    
  0.35928699814987314    0.3645574535502187    0.37067818137578806    0.3769714410906063    0.3827540104720418    
  0.37731260229707503    0.37697144109060615    0.3760119690293217    0.37464047209697293    0.3732050738169054    
  0.3721178222944684    0.37171278297456606    0.37211782229446844    0.3732050738169053    0.37464047209697293    
  0.3760119690293217    0.37697144109060626    0.3773126022970751    0.3769714410906062    0.3760119690293217    
  0.374640472096973    0.3732050738169053    0.37211782229446844    0.37171278297456606    0.3721178222944684    
  0.3732050738169054    0.3746404720969728    0.3760119690293217    0.37697144109060626    0.37731260229707503    
  0.3827540104720418    0.37697144109060615    0.37067818137578806    0.3645574535502188    0.3592869981498731    
  0.3554444471405465    0.35342730791236243    0.3534273079123624    0.3554444471405465    0.3592869981498731    
  0.36455745355021874    0.37067818137578806    0.3769714410906064    0.3827540104720418    0.38743554191498064    
  0.39065138138875327    0.39240013130589513    0.39305919504487197    0.3931860983439153    0.3931860983439153    
  0.39305919504487197    0.3924001313058951    0.3906513813887532    0.3874355419149806    0.3827540104720418    
  0.3975096755764234    0.3874355419149807    0.37601196902932166    0.3645574535502188    0.354342085668077    
  0.34639112363020247    0.3413885137534102    0.339687027553293    0.34138851375341017    0.34639112363020236    
  0.3543420856680769    0.3645574535502188    0.37601196902932177    0.3874355419149806    0.3975096755764234    
  0.40516900731239086    0.40995276477943526    0.4122014799978023    0.4128678176494476    0.4129494125477474    
  0.4128678176494476    0.4122014799978022    0.40995276477943526    0.40516900731239086    0.3975096755764234    
  0.4161975535423677    0.4051690073123908    0.3906513813887532    0.37464047209697293    0.3592869981498731    
  0.34639112363020236    0.3372058385076442    0.3324565817888232    0.33245658178882315    0.3372058385076441    
  0.34639112363020236    0.3592869981498731    0.37464047209697293    0.39065138138875316    0.40516900731239075    
  0.41619755354236765    0.4226205049334332    0.42475360934496836    0.4242517079893133    0.4232620458480038    
  0.4232620458480039    0.4242517079893133    0.4247536093449685    0.42262050493343317    0.4161975535423677    
  0.42826078534945994    0.42262050493343317    0.40995276477943526    0.3924001313058952    0.3732050738169054    
  0.3554444471405465    0.3413885137534102    0.33245658178882315    0.32940105223661936    0.3324565817888231    
  0.3413885137534102    0.3554444471405465    0.3732050738169054    0.392400131305895    0.40995276477943526    
  0.4226205049334332    0.42826078534945994    0.4270467908750852    0.4216543287738394    0.4160830246853143    
  0.4137789762754756    0.4160830246853142    0.4216543287738395    0.42704679087508524    0.42826078534945994    
  0.4187726263253448    0.42704679087508524    0.4247536093449685    0.41220147999780227    0.39305919504487197    
  0.3721178222944684    0.35342730791236243    0.339687027553293    0.33245658178882315    0.3324565817888231    
  0.339687027553293    0.3534273079123624    0.3721178222944685    0.3930591950448719    0.4122014799978024    
  0.4247536093449685    0.42704679087508524    0.4187726263253448    0.40376239124244456    0.38842559446975133    
  0.37894096633571145    0.37894096633571145    0.38842559446975145    0.40376239124244456    0.4187726263253448    
  0.3754398611655283    0.40376239124244456    0.4216543287738395    0.4242517079893134    0.4128678176494476    
  0.3931860983439153    0.3717127829745661    0.3534273079123624    0.3413885137534102    0.3372058385076441    
  0.34138851375341017    0.3534273079123624    0.37171278297456617    0.3931860983439153    0.4128678176494476    
  0.4242517079893134    0.4216543287738395    0.4037623912424446    0.37543986116552824    0.3457668534807169    
  0.3238954507565388    0.31592295370151136    0.32389545075653886    0.34576685348071695    0.3754398611655283    
  0.2999192028782276    0.34576685348071695    0.3884255944697514    0.41608302468531433    0.42326204584800403    
  0.4129494125477475    0.3931860983439153    0.37211782229446844    0.3554444471405465    0.34639112363020247    
  0.34639112363020236    0.3554444471405465    0.3721178222944685    0.3931860983439153    0.4129494125477474    
  0.4232620458480039    0.41608302468531433    0.3884255944697514    0.3457668534807169    0.29991920287822754    
  0.2629757444434951    0.24284656354607367    0.2428465635460737    0.2629757444434951    0.2999192028782276    
  0.21145132772039313    0.2629757444434951    0.32389545075653886    0.37894096633571145    0.4137789762754756    
  0.4232620458480038    0.4128678176494476    0.39305919504487197    0.3732050738169053    0.3592869981498731    
  0.354342085668077    0.3592869981498731    0.3732050738169054    0.3930591950448719    0.4128678176494476    
  0.4232620458480039    0.4137789762754756    0.3789409663357115    0.3238954507565388    0.2629757444434951    
  0.21145132772039316    0.17861587895305217    0.16754227944441744    0.17861587895305225    0.21145132772039313    
  0.13465491313105152    0.17861587895305217    0.24284656354607376    0.31592295370151136    0.37894096633571145    
  0.4160830246853143    0.4242517079893133    0.41220147999780227    0.39240013130589513    0.37464047209697293    
  0.3645574535502188    0.3645574535502188    0.37464047209697304    0.392400131305895    0.4122014799978024    
  0.4242517079893134    0.41608302468531433    0.3789409663357115    0.3159229537015114    0.2428465635460737    
  0.1786158789530522    0.13465491313105152    0.11330688824341212    0.11330688824341216    0.13465491313105152    
  0.08319125891076    0.11330688824341205    0.16754227944441744    0.2428465635460737    0.32389545075653886    
  0.3884255944697513    0.4216543287738394    0.4247536093449685    0.40995276477943526    0.39065138138875316    
  0.3760119690293217    0.37067818137578806    0.37601196902932177    0.39065138138875316    0.40995276477943526    
  0.4247536093449685    0.4216543287738395    0.38842559446975145    0.3238954507565388    0.2428465635460737    
  0.16754227944441752    0.11330688824341198    0.08319125891075994    0.07384984802691952    0.08319125891076    
  0.05650658821469434    0.07384984802691952    0.11330688824341209    0.17861587895305225    0.2629757444434951    
  0.3457668534807169    0.40376239124244456    0.4270467908750852    0.4226205049334332    0.40516900731239075    
  0.3874355419149807    0.3769714410906062    0.3769714410906064    0.3874355419149806    0.40516900731239075    
  0.4226205049334332    0.42704679087508524    0.40376239124244456    0.3457668534807169    0.2629757444434951    
  0.1786158789530522    0.11330688824341202    0.07384984802691952    0.056506588214694294    0.05650658821469434    
  0.04859136938525079    0.05650658821469425    0.0831912589107599    0.13465491313105143    0.21145132772039316    
  0.2999192028782275    0.3754398611655283    0.4187726263253448    0.42826078534945994    0.41619755354236765    
  0.3975096755764234    0.3827540104720417    0.3773126022970751    0.3827540104720418    0.3975096755764234    
  0.4161975535423677    0.42826078534945994    0.4187726263253448    0.3754398611655283    0.29991920287822754    
  0.21145132772039316    0.1346549131310514    0.0831912589107599    0.05650658821469425    0.04859136938525079    
  0.056058252960370696    0.06443276211328823    0.09223179454027602    0.1446089056962989    0.22090678967961094    
  0.3068408916587833    0.3785113536735162    0.41817275799117753    0.4251886652141787    0.41191140175984575    
  0.39280049540707374    0.37795593832866264    0.37250886510643116    0.37795593832866264    0.39280049540707374    
  0.4119114017598458    0.4251886652141787    0.41817275799117753    0.3785113536735162    0.30684089165878337    
  0.22090678967961094    0.14460890569629886    0.09223179454027602    0.06443276211328827    0.056058252960370696    
  0.06443276211328823    0.06443276211328823    0.08256502898604831    0.12303717669766284    0.18850465257588386    
  0.27119176118983995    0.35057942902002914    0.40469113665148077    0.42493266937131324    0.4187751085811437    
  0.40060745541656484    0.382675836112103    0.3721864014466162    0.3721864014466161    0.382675836112103    
  0.4006074554165649    0.41877510858114375    0.42493266937131335    0.40469113665148077    0.3505794290200292    
  0.27119176118984    0.18850465257588384    0.12303717669766286    0.08256502898604828    0.06443276211328823    
  0.09223179454027612    0.08256502898604828    0.09223179454027607    0.12303717669766279    0.17750827231697064    
  0.2516292033482777    0.3297920669244764    0.3905682898208497    0.4204747392993034    0.4214369998029555    
  0.40562253963824946    0.38598258234490157    0.3712801822307049    0.3659456568846181    0.37128018223070486    
  0.3859825823449016    0.40562253963824946    0.4214369998029556    0.42047473929930335    0.3905682898208497    
  0.32979206692447643    0.25162920334827765    0.17750827231697056    0.12303717669766288    0.09223179454027612    
  0.1446089056962989    0.12303717669766281    0.12303717669766286    0.1446089056962989    0.18850465257588386    
  0.2516292033482777    0.3221804733147173    0.3817455411209292    0.41558062670668705    0.42141454749202295    
  0.4081311644000299    0.38785687627248644    0.369986333029971    0.3599009266757103    0.3599009266757102    
  0.369986333029971    0.38785687627248644    0.4081311644000299    0.4214145474920229    0.415580626706687    
  0.38174554112092923    0.3221804733147172    0.25162920334827765    0.18850465257588384    0.1446089056962989    
  0.22090678967961097    0.18850465257588384    0.17750827231697056    0.18850465257588386    0.22090678967961094    
  0.27119176118983995    0.3297920669244764    0.38174554112092923    0.41352310562241146    0.4207102550614191    
  0.409003736140786    0.38863873217636263    0.36863387697245514    0.3547119689824525    0.349778399217325    
  0.35471196898245255    0.3686338769724551    0.38863873217636274    0.40900373614078595    0.42071025506141907    
  0.41352310562241146    0.3817455411209292    0.32979206692447643    0.27119176118984    0.22090678967961097    
  0.3068408916587834    0.27119176118984    0.2516292033482777    0.25162920334827765    0.27119176118983995    
  0.3068408916587833    0.35057942902002914    0.3905682898208497    0.41558062670668705    0.4207102550614191    
  0.4091639486200791    0.38884182816999474    0.367610466024081    0.3509376633967207    0.3419134919311622    
  0.3419134919311623    0.3509376633967208    0.36761046602408093    0.3888418281699948    0.40916394862007904    
  0.4207102550614192    0.41558062670668705    0.39056828982084973    0.35057942902002925    0.3068408916587834    
  0.3785113536735162    0.35057942902002925    0.32979206692447643    0.3221804733147173    0.3297920669244764    
  0.35057942902002925    0.3785113536735161    0.40469113665148077    0.42047473929930346    0.42141454749202295    
  0.40900373614078595    0.38884182816999474    0.3672294174885852    0.3489593401948967    0.3369711185892041    
  0.332811827860176    0.3369711185892041    0.34895934019489677    0.3672294174885851    0.3888418281699947    
  0.409003736140786    0.4214145474920229    0.4204747392993034    0.40469113665148077    0.3785113536735162    
  0.41817275799117753    0.40469113665148077    0.39056828982084973    0.38174554112092923    0.38174554112092923    
  0.39056828982084973    0.40469113665148077    0.41817275799117753    0.42493266937131335    0.42143699980295557    
  0.4081311644000299    0.38863873217636263    0.367610466024081    0.3489593401948967    0.33529124475546646    
  0.3281104725536514    0.32811047255365133    0.3352912447554665    0.3489593401948967    0.3676104660240809    
  0.38863873217636274    0.4081311644000297    0.42143699980295557    0.42493266937131335    0.41817275799117753    
  0.42518866521417864    0.42493266937131335    0.4204747392993034    0.415580626706687    0.41352310562241146    
  0.41558062670668694    0.42047473929930335    0.42493266937131335    0.42518866521417864    0.41877510858114375    
  0.40562253963824946    0.38785687627248644    0.36863387697245514    0.3509376633967207    0.3369711185892041    
  0.3281104725536514    0.32508184871481255    0.32811047255365133    0.3369711185892041    0.35093766339672067    
  0.3686338769724551    0.38785687627248644    0.40562253963824946    0.41877510858114375    0.42518866521417864    
  0.41191140175984586    0.41877510858114375    0.42143699980295557    0.4214145474920229    0.4207102550614192    
  0.4207102550614191    0.4214145474920229    0.42143699980295557    0.41877510858114375    0.4119114017598457    
  0.40060745541656484    0.38598258234490157    0.36998633302997114    0.3547119689824525    0.3419134919311622    
  0.332811827860176    0.3281104725536514    0.32811047255365133    0.33281182786017594    0.34191349193116227    
  0.35471196898245266    0.369986333029971    0.38598258234490157    0.40060745541656484    0.41191140175984586    
  0.39280049540707374    0.4006074554165649    0.40562253963824946    0.4081311644000299    0.40900373614078595    
  0.40916394862007904    0.40900373614078595    0.40813116440002983    0.40562253963824946    0.40060745541656484    
  0.39280049540707374    0.382675836112103    0.3712801822307049    0.3599009266757103    0.34977839921732484    
  0.3419134919311624    0.3369711185892041    0.33529124475546646    0.3369711185892041    0.34191349193116227    
  0.349778399217325    0.35990092667571016    0.3712801822307048    0.382675836112103    0.39280049540707374    
  0.3779559383286627    0.382675836112103    0.38598258234490157    0.38785687627248644    0.38863873217636274    
  0.3888418281699947    0.3888418281699948    0.38863873217636274    0.38785687627248644    0.38598258234490157    
  0.3826758361121031    0.37795593832866264    0.3721864014466162    0.3659456568846181    0.3599009266757102    
  0.3547119689824526    0.3509376633967207    0.34895934019489677    0.3489593401948967    0.35093766339672067    
  0.3547119689824526    0.3599009266757102    0.36594565688461816    0.37218640144661613    0.3779559383286627    
  0.3725088651064311    0.3721864014466161    0.37128018223070486    0.369986333029971    0.36863387697245514    
  0.3676104660240809    0.36722941748858506    0.3676104660240809    0.36863387697245514    0.369986333029971    
  0.37128018223070486    0.3721864014466161    0.37250886510643116    0.3721864014466161    0.37128018223070486    
  0.36998633302997114    0.36863387697245514    0.3676104660240809    0.36722941748858506    0.3676104660240809    
  0.36863387697245514    0.36998633302997097    0.37128018223070486    0.3721864014466161    0.3725088651064311    
  0.37795593832866264    0.3721864014466161    0.36594565688461816    0.3599009266757103    0.3547119689824526    
  0.35093766339672067    0.3489593401948967    0.34895934019489677    0.3509376633967208    0.3547119689824525    
  0.3599009266757102    0.36594565688461816    0.3721864014466162    0.37795593832866264    0.382675836112103    
  0.3859825823449016    0.38785687627248644    0.38863873217636274    0.3888418281699948    0.3888418281699948    
  0.38863873217636274    0.3878568762724864    0.38598258234490157    0.382675836112103    0.37795593832866264    
  0.39280049540707374    0.382675836112103    0.3712801822307048    0.3599009266757103    0.349778399217325    
  0.34191349193116227    0.3369711185892041    0.33529124475546646    0.3369711185892041    0.3419134919311622    
  0.34977839921732484    0.3599009266757103    0.3712801822307049    0.382675836112103    0.39280049540707374    
  0.4006074554165649    0.40562253963824946    0.4081311644000299    0.40900373614078595    0.40916394862007904    
  0.40900373614078595    0.4081311644000298    0.40562253963824946    0.4006074554165649    0.39280049540707374    
  0.4119114017598458    0.4006074554165649    0.3859825823449016    0.369986333029971    0.3547119689824526    
  0.34191349193116227    0.33281182786017594    0.3281104725536514    0.32811047255365133    0.3328118278601758    
  0.3419134919311622    0.35471196898245255    0.369986333029971    0.38598258234490157    0.40060745541656484    
  0.41191140175984575    0.41877510858114375    0.4214369998029555    0.4214145474920229    0.4207102550614191    
  0.4207102550614191    0.4214145474920229    0.42143699980295557    0.41877510858114375    0.4119114017598458    
  0.4251886652141787    0.41877510858114375    0.40562253963824946    0.3878568762724865    0.36863387697245514    
  0.35093766339672067    0.3369711185892041    0.32811047255365133    0.32508184871481255    0.32811047255365133    
  0.3369711185892041    0.35093766339672067    0.36863387697245514    0.3878568762724864    0.40562253963824946    
  0.41877510858114375    0.42518866521417864    0.42493266937131335    0.42047473929930335    0.415580626706687    
  0.41352310562241146    0.41558062670668694    0.4204747392993034    0.42493266937131335    0.4251886652141787    
  0.41817275799117753    0.42493266937131335    0.4214369998029556    0.40813116440002983    0.38863873217636274    
  0.3676104660240809    0.3489593401948967    0.33529124475546646    0.32811047255365133    0.32811047255365133    
  0.33529124475546646    0.3489593401948967    0.367610466024081    0.38863873217636263    0.4081311644000299    
  0.4214369998029556    0.42493266937131335    0.41817275799117753    0.40469113665148077    0.3905682898208497    
  0.38174554112092923    0.38174554112092923    0.39056828982084973    0.40469113665148077    0.41817275799117753    
  0.3785113536735162    0.40469113665148077    0.4204747392993034    0.42141454749202295    0.409003736140786    
  0.38884182816999474    0.3672294174885851    0.34895934019489677    0.3369711185892041    0.3328118278601759    
  0.3369711185892041    0.34895934019489677    0.3672294174885852    0.38884182816999474    0.40900373614078595    
  0.42141454749202295    0.42047473929930346    0.40469113665148077    0.3785113536735161    0.35057942902002914    
  0.3297920669244764    0.3221804733147172    0.32979206692447643    0.35057942902002925    0.3785113536735162    
  0.3068408916587835    0.35057942902002925    0.39056828982084973    0.4155806267066871    0.4207102550614192    
  0.4091639486200791    0.3888418281699948    0.3676104660240809    0.35093766339672067    0.34191349193116227    
  0.3419134919311622    0.3509376633967207    0.367610466024081    0.38884182816999474    0.4091639486200791    
  0.4207102550614191    0.41558062670668705    0.39056828982084973    0.35057942902002914    0.30684089165878337    
  0.27119176118983995    0.25162920334827765    0.2516292033482777    0.27119176118983995    0.3068408916587835    
  0.22090678967961097    0.27119176118983995    0.32979206692447643    0.38174554112092923    0.41352310562241146    
  0.42071025506141907    0.40900373614078595    0.38863873217636274    0.3686338769724551    0.35471196898245255    
  0.349778399217325    0.35471196898245255    0.36863387697245514    0.38863873217636263    0.409003736140786    
  0.4207102550614191    0.4135231056224114    0.38174554112092923    0.3297920669244764    0.27119176118983995    
  0.22090678967961094    0.1885046525758838    0.17750827231697056    0.18850465257588384    0.22090678967961097    
  0.14460890569629894    0.1885046525758838    0.2516292033482777    0.3221804733147173    0.38174554112092923    
  0.41558062670668694    0.4214145474920229    0.40813116440002983    0.38785687627248644    0.369986333029971    
  0.3599009266757103    0.3599009266757103    0.36998633302997114    0.3878568762724864    0.4081311644000299    
  0.42141454749202295    0.41558062670668705    0.38174554112092923    0.3221804733147173    0.2516292033482777    
  0.18850465257588386    0.14460890569629892    0.12303717669766291    0.12303717669766291    0.14460890569629894    
  0.09223179454027612    0.12303717669766281    0.17750827231697056    0.2516292033482777    0.32979206692447643    
  0.3905682898208496    0.42047473929930335    0.42143699980295557    0.40562253963824946    0.38598258234490157    
  0.37128018223070486    0.36594565688461816    0.3712801822307049    0.38598258234490157    0.40562253963824946    
  0.4214369998029556    0.4204747392993034    0.39056828982084973    0.3297920669244764    0.2516292033482777    
  0.1775082723169706    0.12303717669766275    0.09223179454027605    0.08256502898604831    0.09223179454027612    
  0.06443276211328837    0.08256502898604831    0.12303717669766286    0.1885046525758839    0.27119176118984    
  0.35057942902002914    0.40469113665148077    0.42493266937131324    0.41877510858114375    0.40060745541656484    
  0.3826758361121031    0.37218640144661613    0.3721864014466162    0.382675836112103    0.40060745541656484    
  0.41877510858114375    0.42493266937131335    0.40469113665148077    0.35057942902002914    0.27119176118983995    
  0.18850465257588386    0.12303717669766281    0.08256502898604828    0.06443276211328833    0.06443276211328837    
  0.056058252960370696    0.06443276211328823    0.09223179454027602    0.1446089056962989    0.22090678967961094    
  0.3068408916587833    0.3785113536735162    0.41817275799117753    0.4251886652141787    0.41191140175984575    
  0.39280049540707374    0.37795593832866264    0.37250886510643116    0.37795593832866264    0.39280049540707374    
  0.4119114017598458    0.4251886652141787    0.41817275799117753    0.3785113536735162    0.30684089165878337    
  0.22090678967961094    0.14460890569629886    0.09223179454027602    0.06443276211328827    0.056058252960370696    
  0.08124951470328316    0.09076593877688463    0.12114650079017143    0.1750201375511743    0.24853354209512962    
  0.32616981157899744    0.38642798210117113    0.41570684301717026    0.41593759935804103    0.39941390550781636    
  0.3792159790619717    0.36417111512322253    0.3587227815942786    0.36417111512322253    0.3792159790619717    
  0.39941390550781636    0.41593759935804103    0.41570684301717026    0.38642798210117113    0.32616981157899744    
  0.24853354209512962    0.17502013755117424    0.12114650079017143    0.09076593877688467    0.08124951470328316    