#     DFTpy    
  CRYSTAL 
    
  PRIMVEC    
  1.4548530800024102    -2.5198794521122405    0.0    
  1.4548530800024102    2.5198794521122405    0.0    
  0.0    0.0    2.7385038399310306    
  PRIMCOORD    
  1    1    
  Si    0.0    0.0    0.0    
  BEGIN_BLOCK_DATAGRID_3D    
  3d_datagrid_density    
  BEGIN_DATAGRID_3D#0    
  28    28    26    
  0.0    0.0    0.0    
  1.45485308542904    -2.519879461511439    0.0    
  1.45485308542904    2.519879461511439    0.0    
  0.0    0.0    2.7385038501457024    
  0.054907068039894376    0.06350018356869874    0.0920653453078292    0.14547367559337804    0.2209463118228644    
  0.3001364338015576    0.3563672027129299    0.37366391676996624    0.3562971804035205    0.3205229611001872    
  0.28178683244862335    0.24922518649502926    0.2266960532553902    0.21534235352993605    0.2153423535299361    
  0.2266960532553902    0.24922518649502926    0.28178683244862335    0.3205229611001872    0.35629718040352043    
  0.3736639167699662    0.3563672027129299    0.3001364338015576    0.22094631182286434    0.14547367559337804    
  0.0920653453078291    0.0635001835686988    0.054907068039894376    0.0635001835686987    0.0635001835686988    
  0.08213505296246196    0.12358517522924965    0.18933200876057313    0.26829669679500745    0.3362336695846006    
  0.37078952575063284    0.36722219652654176    0.3376743425090327    0.29881493071399945    0.26263852414392097    
  0.23507507889131513    0.2182440801298716    0.21262233414452905    0.2182440801298716    0.23507507889131518    
  0.262638524143921    0.2988149307139994    0.3376743425090327    0.3672221965265417    0.37078952575063273    
  0.33623366958460066    0.26829669679500745    0.18933200876057313    0.12358517522924961    0.08213505296246197    
  0.0635001835686987    0.09206534530782913    0.08213505296246203    0.09206534530782913    0.12358517522924961    
  0.1784448616543286    0.2501717238464991    0.31963132747975176    0.3638086919816221    0.3716205277641044    
  0.3494402799294092    0.31252252029269645    0.2743843895330326    0.24283063642620523    0.22113087472129936    
  0.21022431420640147    0.21022431420640142    0.22113087472129936    0.24283063642620525    0.2743843895330326    
  0.31252252029269645    0.34944027992940924    0.37162052776410426    0.363808691981622    0.31963132747975187    
  0.25017172384649905    0.17844486165432846    0.12358517522924965    0.09206534530782913    0.14547367559337804    
  0.12358517522924957    0.12358517522924961    0.14547367559337804    0.18933200876057313    0.25017172384649905    
  0.313304604007061    0.3584984837809651    0.37233317620457207    0.3562173552809956    0.32224975435279357    
  0.2836928021861055    0.24943434631590022    0.22377682383178824    0.20822321395292637    0.20304466631817547    
  0.20822321395292634    0.22377682383178826    0.24943434631590022    0.28369280218610554    0.32224975435279357    
  0.3562173552809956    0.37233317620457207    0.35849848378096505    0.313304604007061    0.2501717238464991    
  0.1893320087605731    0.14547367559337804    0.22094631182286434    0.1893320087605731    0.1784448616543285    
  0.18933200876057307    0.22094631182286434    0.26829669679500734    0.31963132747975187    0.3584984837809651    
  0.37218361177424186    0.3591392446706175    0.3279197708665359    0.2900662557231052    0.25444755910194666    
  0.2259637077771554    0.20664328571053958    0.19699506223728733    0.19699506223728733    0.2066432857105395    
  0.22596370777715535    0.2544475591019467    0.29006625572310507    0.32791977086653595    0.35913924467061753    
  0.37218361177424186    0.35849848378096505    0.31963132747975187    0.26829669679500745    0.22094631182286434    
  0.3001364338015575    0.2682966967950074    0.25017172384649905    0.25017172384649905    0.26829669679500745    
  0.3001364338015577    0.3362336695846006    0.363808691981622    0.37233317620457207    0.3591392446706174    
  0.3297632748987443    0.2932812754128772    0.25756559743863344    0.2275157800266819    0.20549084492104788    
  0.19226936304625275    0.1878867525613571    0.1922693630462527    0.20549084492104783    0.22751578002668196    
  0.2575655974386335    0.29328127541287724    0.3297632748987442    0.3591392446706175    0.37233317620457207    
  0.363808691981622    0.33623366958460077    0.3001364338015575    0.3563672027129299    0.33623366958460066    
  0.3196313274797519    0.313304604007061    0.31963132747975187    0.33623366958460066    0.3563672027129299    
  0.3707895257506328    0.37162052776410437    0.3562173552809956    0.32791977086653595    0.2932812754128772    
  0.2586219118216568    0.2283185850786373    0.2047817216358191    0.1890121952483573    0.18118143679311421    
  0.18118143679311427    0.18901219524835727    0.2047817216358191    0.22831858507863736    0.25862191182165684    
  0.2932812754128772    0.3279197708665359    0.3562173552809956    0.37162052776410437    0.37078952575063284    
  0.3563672027129299    0.373663916769966    0.3707895257506328    0.363808691981622    0.35849848378096505    
  0.35849848378096505    0.363808691981622    0.37078952575063273    0.3736639167699662    0.3672221965265417    
  0.34944027992940907    0.32224975435279357    0.2900662557231051    0.25756559743863344    0.22831858507863736    
  0.20454109337944765    0.18734473828794312    0.17707095776205894    0.17366997489449115    0.1770709577620589    
  0.1873447382879432    0.2045410933794476    0.22831858507863725    0.25756559743863344    0.2900662557231052    
  0.32224975435279357    0.3494402799294092    0.3672221965265418    0.373663916769966    0.3562971804035204    
  0.36722219652654176    0.37162052776410437    0.37233317620457207    0.37218361177424186    0.37233317620457207    
  0.3716205277641043    0.3672221965265418    0.35629718040352043    0.3376743425090327    0.31252252029269645    
  0.2836928021861055    0.25444755910194666    0.22751578002668196    0.20478172163581915    0.18734473828794312    
  0.17568457008299554    0.1698822480063485    0.16988224800634844    0.17568457008299554    0.18734473828794315    
  0.204781721635819    0.22751578002668185    0.2544475591019467    0.2836928021861056    0.31252252029269645    
  0.3376743425090327    0.3562971804035204    0.3205229611001873    0.3376743425090327    0.3494402799294092    
  0.3562173552809956    0.3591392446706175    0.3591392446706175    0.3562173552809956    0.3494402799294092    
  0.3376743425090327    0.3205229611001872    0.29881493071399945    0.2743843895330326    0.24943434631590022    
  0.2259637077771554    0.20549084492104785    0.18901219524835725    0.1770709577620589    0.1698822480063485    
  0.1674870764182717    0.1698822480063485    0.1770709577620589    0.1890121952483573    0.20549084492104783    
  0.2259637077771554    0.24943434631590022    0.2743843895330327    0.2988149307139994    0.3205229611001873    
  0.2817868324486233    0.29881493071399945    0.31252252029269645    0.32224975435279357    0.32791977086653595    
  0.32976327489874424    0.3279197708665359    0.32224975435279357    0.31252252029269645    0.2988149307139994    
  0.28178683244862335    0.2626385241439209    0.24283063642620523    0.22377682383178824    0.20664328571053958    
  0.19226936304625272    0.18118143679311424    0.17366997489449115    0.1698822480063485    0.1698822480063485    
  0.1736699748944911    0.18118143679311421    0.1922693630462528    0.20664328571053955    0.22377682383178826    
  0.24283063642620525    0.262638524143921    0.2817868324486233    0.24922518649502912    0.262638524143921    
  0.2743843895330327    0.2836928021861055    0.2900662557231052    0.29328127541287724    0.29328127541287713    
  0.2900662557231052    0.28369280218610554    0.27438438953303257    0.26263852414392097    0.2492251864950293    
  0.23507507889131513    0.22113087472129933    0.2082232139529264    0.19699506223728733    0.1878867525613571    
  0.18118143679311424    0.1770709577620589    0.17568457008299554    0.1770709577620589    0.18118143679311416    
  0.18788675256135703    0.19699506223728735    0.20822321395292634    0.22113087472129936    0.23507507889131513    
  0.24922518649502912    0.2266960532553902    0.23507507889131513    0.24283063642620525    0.24943434631590022    
  0.25444755910194666    0.25756559743863344    0.25862191182165684    0.2575655974386335    0.25444755910194666    
  0.24943434631590022    0.24283063642620523    0.23507507889131513    0.2266960532553902    0.2182440801298716    
  0.21022431420640145    0.20304466631817544    0.19699506223728735    0.19226936304625275    0.1890121952483573    
  0.18734473828794312    0.18734473828794312    0.1890121952483573    0.19226936304625267    0.19699506223728733    
  0.20304466631817544    0.21022431420640145    0.2182440801298715    0.2266960532553902    0.21534235352993597    
  0.21824408012987165    0.22113087472129933    0.22377682383178818    0.22596370777715535    0.22751578002668185    
  0.2283185850786373    0.2283185850786373    0.22751578002668196    0.22596370777715533    0.22377682383178818    
  0.22113087472129933    0.2182440801298716    0.2153423535299361    0.21262233414452905    0.21022431420640142    
  0.2082232139529263    0.2066432857105395    0.20549084492104783    0.20478172163581906    0.2045410933794476    
  0.20478172163581906    0.2054908449210479    0.20664328571053953    0.2082232139529263    0.2102243142064014    
  0.21262233414452897    0.21534235352993597    0.215342353529936    0.212622334144529    0.2102243142064014    
  0.2082232139529263    0.20664328571053953    0.20549084492104785    0.204781721635819    0.20454109337944765    
  0.20478172163581912    0.2054908449210478    0.20664328571053953    0.2082232139529263    0.21022431420640142    
  0.21262233414452905    0.2153423535299361    0.2182440801298716    0.22113087472129936    0.22377682383178818    
  0.22596370777715535    0.22751578002668196    0.22831858507863736    0.22831858507863736    0.22751578002668185    
  0.2259637077771554    0.22377682383178824    0.22113087472129933    0.2182440801298716    0.215342353529936    
  0.2266960532553902    0.2182440801298716    0.21022431420640145    0.20304466631817544    0.19699506223728733    
  0.1922693630462527    0.1890121952483573    0.18734473828794312    0.18734473828794318    0.18901219524835725    
  0.19226936304625275    0.19699506223728733    0.20304466631817544    0.2102243142064014    0.2182440801298716    
  0.2266960532553902    0.23507507889131513    0.24283063642620525    0.24943434631590017    0.25444755910194666    
  0.25756559743863344    0.25862191182165684    0.2575655974386335    0.25444755910194666    0.24943434631590022    
  0.24283063642620523    0.23507507889131518    0.2266960532553902    0.24922518649502917    0.23507507889131518    
  0.22113087472129933    0.20822321395292634    0.19699506223728733    0.18788675256135703    0.18118143679311413    
  0.17707095776205886    0.17568457008299554    0.1770709577620589    0.18118143679311424    0.18788675256135706    
  0.19699506223728733    0.20822321395292637    0.22113087472129941    0.23507507889131513    0.24922518649502926    
  0.26263852414392097    0.2743843895330326    0.2836928021861055    0.29006625572310507    0.2932812754128772    
  0.29328127541287724    0.2900662557231052    0.28369280218610554    0.2743843895330327    0.262638524143921    
  0.24922518649502917    0.2817868324486233    0.26263852414392097    0.24283063642620525    0.22377682383178826    
  0.20664328571053953    0.19226936304625272    0.1811814367931142    0.1736699748944911    0.1698822480063485    
  0.1698822480063485    0.17366997489449112    0.18118143679311424    0.1922693630462527    0.20664328571053953    
  0.22377682383178826    0.24283063642620525    0.26263852414392097    0.28178683244862335    0.2988149307139994    
  0.31252252029269645    0.32224975435279357    0.3279197708665359    0.3297632748987442    0.32791977086653595    
  0.32224975435279357    0.31252252029269645    0.2988149307139994    0.2817868324486233    0.3205229611001873    
  0.29881493071399945    0.2743843895330326    0.24943434631590022    0.22596370777715535    0.20549084492104783    
  0.1890121952483573    0.1770709577620589    0.1698822480063485    0.1674870764182717    0.1698822480063485    
  0.17707095776205892    0.18901219524835727    0.20549084492104783    0.2259637077771554    0.24943434631590022    
  0.2743843895330326    0.29881493071399945    0.3205229611001872    0.3376743425090327    0.3494402799294092    
  0.3562173552809956    0.3591392446706175    0.35913924467061753    0.3562173552809956    0.3494402799294092    
  0.3376743425090327    0.3205229611001873    0.3562971804035203    0.3376743425090328    0.31252252029269645    
  0.28369280218610554    0.25444755910194666    0.22751578002668185    0.204781721635819    0.18734473828794315    
  0.17568457008299554    0.1698822480063485    0.16988224800634852    0.17568457008299554    0.18734473828794312    
  0.20478172163581906    0.22751578002668196    0.25444755910194666    0.28369280218610554    0.31252252029269645    
  0.33767434250903267    0.35629718040352043    0.3672221965265417    0.3716205277641043    0.37233317620457207    
  0.37218361177424186    0.37233317620457207    0.3716205277641044    0.3672221965265418    0.3562971804035203    
  0.3736639167699661    0.36722219652654176    0.3494402799294092    0.32224975435279357    0.2900662557231052    
  0.2575655974386335    0.22831858507863725    0.20454109337944765    0.18734473828794315    0.17707095776205886    
  0.17366997489449112    0.1770709577620589    0.18734473828794312    0.20454109337944762    0.22831858507863736    
  0.25756559743863344    0.2900662557231052    0.32224975435279357    0.3494402799294092    0.3672221965265417    
  0.3736639167699662    0.37078952575063273    0.363808691981622    0.3584984837809651    0.35849848378096505    
  0.363808691981622    0.3707895257506328    0.3736639167699661    0.3563672027129299    0.37078952575063273    
  0.3716205277641045    0.3562173552809956    0.3279197708665359    0.29328127541287724    0.25862191182165684    
  0.22831858507863736    0.20478172163581906    0.18901219524835725    0.1811814367931143    0.1811814367931142    
  0.18901219524835727    0.20478172163581906    0.22831858507863736    0.2586219118216568    0.29328127541287724    
  0.327919770866536    0.3562173552809956    0.37162052776410437    0.3707895257506328    0.3563672027129299    
  0.33623366958460066    0.3196313274797518    0.31330460400706095    0.3196313274797519    0.33623366958460066    
  0.3563672027129299    0.3001364338015576    0.33623366958460077    0.363808691981622    0.3723331762045721    
  0.35913924467061753    0.3297632748987443    0.2932812754128772    0.25756559743863355    0.2275157800266819    
  0.20549084492104783    0.1922693630462527    0.1878867525613571    0.19226936304625275    0.20549084492104785    
  0.22751578002668196    0.25756559743863344    0.29328127541287724    0.3297632748987443    0.35913924467061753    
  0.37233317620457207    0.363808691981622    0.3362336695846006    0.3001364338015577    0.26829669679500745    
  0.25017172384649905    0.25017172384649905    0.26829669679500745    0.3001364338015576    0.22094631182286434    
  0.2682966967950074    0.31963132747975187    0.358498483780965    0.37218361177424186    0.35913924467061753    
  0.3279197708665359    0.2900662557231052    0.25444755910194666    0.22596370777715535    0.20664328571053953    
  0.19699506223728733    0.19699506223728735    0.20664328571053953    0.2259637077771554    0.2544475591019467    
  0.2900662557231052    0.32791977086653595    0.3591392446706174    0.37218361177424186    0.35849848378096505    
  0.31963132747975176    0.26829669679500745    0.22094631182286445    0.1893320087605731    0.17844486165432852    
  0.1893320087605731    0.22094631182286434    0.1454736755933781    0.18933200876057307    0.2501717238464991    
  0.313304604007061    0.3584984837809651    0.37233317620457207    0.3562173552809956    0.32224975435279357    
  0.28369280218610554    0.24943434631590022    0.22377682383178826    0.20822321395292634    0.20304466631817544    
  0.2082232139529263    0.22377682383178826    0.24943434631590022    0.28369280218610554    0.32224975435279357    
  0.3562173552809956    0.37233317620457207    0.3584984837809651    0.3133046040070609    0.25017172384649905    
  0.1893320087605731    0.1454736755933781    0.12358517522924965    0.12358517522924968    0.1454736755933781    
  0.09206534530782916    0.12358517522924965    0.17844486165432846    0.2501717238464991    0.31963132747975187    
  0.363808691981622    0.3716205277641043    0.3494402799294092    0.31252252029269645    0.27438438953303257    
  0.24283063642620525    0.22113087472129936    0.2102243142064014    0.21022431420640142    0.22113087472129941    
  0.24283063642620523    0.2743843895330326    0.31252252029269645    0.34944027992940907    0.37162052776410437    
  0.3638086919816221    0.31963132747975176    0.25017172384649905    0.1784448616543286    0.12358517522924964    
  0.09206534530782913    0.08213505296246203    0.09206534530782916    0.0635001835686987    0.082135052962462    
  0.12358517522924961    0.1893320087605732    0.26829669679500745    0.33623366958460066    0.37078952575063273    
  0.3672221965265418    0.3376743425090327    0.2988149307139994    0.262638524143921    0.23507507889131513    
  0.2182440801298716    0.21262233414452905    0.21824408012987165    0.23507507889131513    0.26263852414392097    
  0.29881493071399945    0.3376743425090327    0.3672221965265418    0.3707895257506328    0.3362336695846006    
  0.26829669679500734    0.18933200876057316    0.12358517522924964    0.08213505296246197    0.06350018356869884    
  0.0635001835686987    0.054907068039894376    0.06350018356869874    0.0920653453078292    0.14547367559337804    
  0.2209463118228644    0.3001364338015576    0.3563672027129299    0.37366391676996624    0.3562971804035205    
  0.3205229611001872    0.28178683244862335    0.24922518649502926    0.2266960532553902    0.21534235352993605    
  0.2153423535299361    0.2266960532553902    0.24922518649502926    0.28178683244862335    0.3205229611001872    
  0.35629718040352043    0.3736639167699662    0.3563672027129299    0.3001364338015576    0.22094631182286434    
  0.14547367559337804    0.0920653453078291    0.0635001835686988    0.054907068039894376    0.06404846718318787    
  0.0731600342201441    0.1029124820432806    0.15704559091176126    0.2313583790643728    0.307088515619835    
  0.3588331855337786    0.3724574095985756    0.35310140054832034    0.31672656713779773    0.27809680520477037    
  0.24585287507398054    0.22361448711555848    0.21242566891856252    0.21242566891856252    0.22361448711555848    
  0.24585287507398057    0.27809680520477037    0.31672656713779773    0.35310140054832034    0.37245740959857554    
  0.3588331855337786    0.307088515619835    0.23135837906437273    0.15704559091176126    0.10291248204328057    
  0.07316003422014415    0.06404846718318787    0.07316003422014401    0.0731600342201441    0.09264969819189715    
  0.13504928507700617    0.20049334523879495    0.2769288543440466    0.3406467954438001    0.371033393986677    
  0.36472940933063436    0.33404055923025966    0.2950437021155739    0.2591297818166448    0.2318880207709951    
  0.21529043899880268    0.2097525730547199    0.21529043899880268    0.2318880207709951    0.25912978181664487    
  0.2950437021155738    0.33404055923025966    0.36472940933063436    0.3710333939866769    0.3406467954438002    
  0.2769288543440467    0.20049334523879495    0.13504928507700611    0.09264969819189717    0.07316003422014401    
  0.10291248204328053    0.09264969819189722    0.10291248204328057    0.13504928507700614    0.18978062279364824    
  0.25958372271141616    0.3253199193939701    0.36528501972519906    0.36990502690874405    0.3461089594527537    
  0.30877458610593783    0.2708009779429223    0.23957083990256525    0.21815410707330002    0.20740595306959944    
  0.2074059530695994    0.21815410707330007    0.23957083990256525    0.2708009779429223    0.30877458610593783    
  0.3461089594527538    0.3699050269087439    0.36528501972519895    0.32531991939397015    0.25958372271141616    
  0.1897806227936481    0.13504928507700617    0.10291248204328053    0.15704559091176126    0.1350492850770061    
  0.13504928507700614    0.15704559091176126    0.20049334523879495    0.2595837227114161    0.3194292429878629    
  0.3606728149316333    0.37121986835738346    0.35321065460733886    0.3185947389845704    0.28009167537193036    
  0.246136587024916    0.22079157993392137    0.205455148841362    0.2003535066558514    0.20545514884136198    
  0.22079157993392137    0.246136587024916    0.28009167537193047    0.3185947389845704    0.35321065460733886    
  0.37121986835738346    0.3606728149316332    0.31942924298786285    0.2595837227114162    0.20049334523879486    
  0.15704559091176126    0.23135837906437268    0.20049334523879492    0.18978062279364816    0.2004933452387949    
  0.23135837906437273    0.2769288543440466    0.32531991939397015    0.3606728149316333    0.37129622103759924    
  0.35634087340545445    0.32436305556772094    0.28648142441670094    0.2511392300023609    0.22298167790511253    
  0.2039197251798398    0.19441106672979783    0.19441106672979783    0.20391972517983978    0.22298167790511247    
  0.2511392300023609    0.2864814244167009    0.324363055567721    0.3563408734054545    0.3712962210375993    
  0.3606728149316332    0.3253199193939702    0.2769288543440466    0.23135837906437268    0.3070885156198349    
  0.2769288543440466    0.2595837227114161    0.2595837227114161    0.2769288543440466    0.3070885156198351    
  0.3406467954438001    0.365285019725199    0.3712198683573835    0.3563408734054544    0.32624791388817964    
  0.2897156878352    0.25426019181147985    0.22454241836826958    0.20280229936887606    0.1897659684623816    
  0.18544706189799937    0.18976596846238158    0.20280229936887595    0.22454241836826958    0.25426019181147985    
  0.2897156878352    0.32624791388817953    0.3563408734054545    0.37121986835738346    0.36528501972519895    
  0.3406467954438003    0.3070885156198349    0.3588331855337786    0.34064679544380017    0.32531991939397026    
  0.31942924298786285    0.32531991939397015    0.34064679544380017    0.3588331855337786    0.371033393986677    
  0.369905026908744    0.35321065460733886    0.32436305556772105    0.2897156878352    0.25531935988016125    
  0.22535204528526187    0.20211569136137553    0.18656128120073942    0.1788407557219037    0.17884075572190375    
  0.1865612812007394    0.20211569136137553    0.22535204528526193    0.2553193598801613    0.2897156878352    
  0.32436305556772105    0.35321065460733886    0.369905026908744    0.37103339398667706    0.3588331855337786    
  0.37245740959857543    0.37103339398667695    0.36528501972519895    0.3606728149316332    0.3606728149316332    
  0.36528501972519895    0.3710333939866769    0.3724574095985756    0.36472940933063436    0.34610895945275366    
  0.31859473898457036    0.2864814244167009    0.25426019181147985    0.22535204528526198    0.20188285417643856    
  0.1849193717210309    0.1747862016989874    0.1714316852957096    0.17478620169898737    0.18491937172103096    
  0.20188285417643853    0.22535204528526187    0.25426019181147985    0.28648142441670094    0.31859473898457036    
  0.3461089594527537    0.36472940933063447    0.37245740959857543    0.3531014005483203    0.36472940933063436    
  0.369905026908744    0.3712198683573835    0.37129622103759924    0.3712198683573835    0.36990502690874394    
  0.36472940933063436    0.35310140054832034    0.33404055923025966    0.30877458610593783    0.28009167537193036    
  0.2511392300023608    0.22454241836826958    0.20211569136137558    0.1849193717210309    0.17341764601490095    
  0.16769194709423935    0.16769194709423932    0.17341764601490095    0.18491937172103093    0.20211569136137547    
  0.22454241836826952    0.25113923000236094    0.28009167537193047    0.30877458610593783    0.3340405592302597    
  0.3531014005483203    0.31672656713779773    0.3340405592302597    0.3461089594527537    0.35321065460733886    
  0.35634087340545445    0.35634087340545445    0.35321065460733886    0.3461089594527537    0.3340405592302597    
  0.3167265671377977    0.29504370211557385    0.2708009779429223    0.24613658702491606    0.22298167790511253    
  0.20280229936887606    0.1865612812007394    0.17478620169898737    0.16769194709423935    0.165326868870766    
  0.16769194709423935    0.1747862016989874    0.18656128120073942    0.202802299368876    0.22298167790511253    
  0.24613658702491606    0.2708009779429223    0.29504370211557385    0.31672656713779773    0.2780968052047703    
  0.2950437021155739    0.30877458610593783    0.31859473898457036    0.32436305556772105    0.32624791388817953    
  0.32436305556772094    0.3185947389845704    0.30877458610593783    0.2950437021155738    0.2780968052047703    
  0.2591297818166448    0.23957083990256525    0.22079157993392137    0.20391972517983983    0.1897659684623816    
  0.1788407557219037    0.17143168529570962    0.16769194709423932    0.16769194709423935    0.17143168529570954    
  0.1788407557219037    0.18976596846238164    0.2039197251798398    0.2207915799339214    0.2395708399025653    
  0.25912978181664487    0.2780968052047703    0.24585287507398043    0.25912978181664487    0.2708009779429223    
  0.28009167537193036    0.28648142441670094    0.2897156878352001    0.28971568783519996    0.28648142441670094    
  0.2800916753719304    0.27080097794292224    0.2591297818166448    0.24585287507398054    0.2318880207709951    
  0.21815410707329996    0.20545514884136204    0.19441106672979783    0.18544706189799937    0.1788407557219037    
  0.17478620169898737    0.17341764601490095    0.17478620169898737    0.17884075572190364    0.18544706189799934    
  0.19441106672979783    0.20545514884136198    0.21815410707330002    0.2318880207709951    0.24585287507398043    
  0.22361448711555848    0.2318880207709951    0.2395708399025653    0.246136587024916    0.2511392300023608    
  0.2542601918114798    0.2553193598801613    0.2542601918114799    0.2511392300023609    0.246136587024916    
  0.23957083990256525    0.2318880207709951    0.22361448711555848    0.21529043899880268    0.20740595306959944    
  0.2003535066558514    0.19441106672979783    0.18976596846238164    0.18656128120073942    0.1849193717210309    
  0.1849193717210309    0.18656128120073942    0.18976596846238156    0.19441106672979783    0.2003535066558514    
  0.20740595306959944    0.21529043899880262    0.22361448711555848    0.21242566891856243    0.21529043899880274    
  0.21815410707329996    0.22079157993392137    0.22298167790511253    0.22454241836826952    0.22535204528526193    
  0.22535204528526198    0.22454241836826958    0.22298167790511247    0.22079157993392132    0.21815410707329996    
  0.21529043899880268    0.21242566891856252    0.20975257305471984    0.2074059530695994    0.20545514884136196    
  0.20391972517983978    0.20280229936887595    0.20211569136137553    0.2018828541764385    0.2021156913613755    
  0.20280229936887606    0.2039197251798398    0.20545514884136193    0.2074059530695994    0.20975257305471978    
  0.21242566891856243    0.21242566891856246    0.2097525730547198    0.20740595306959939    0.20545514884136193    
  0.2039197251798398    0.20280229936887606    0.20211569136137547    0.20188285417643853    0.20211569136137553    
  0.20280229936887595    0.20391972517983978    0.20545514884136196    0.2074059530695994    0.20975257305471984    
  0.21242566891856257    0.21529043899880268    0.21815410707330002    0.22079157993392137    0.22298167790511253    
  0.22454241836826958    0.22535204528526198    0.22535204528526198    0.22454241836826952    0.22298167790511253    
  0.22079157993392137    0.21815410707329996    0.21529043899880268    0.21242566891856246    0.22361448711555848    
  0.21529043899880274    0.20740595306959944    0.2003535066558514    0.1944110667297978    0.18976596846238156    
  0.18656128120073942    0.1849193717210309    0.18491937172103096    0.1865612812007394    0.18976596846238164    
  0.1944110667297978    0.2003535066558514    0.2074059530695994    0.21529043899880268    0.22361448711555848    
  0.2318880207709951    0.23957083990256525    0.24613658702491595    0.2511392300023609    0.25426019181147985    
  0.25531935988016136    0.25426019181147985    0.2511392300023608    0.246136587024916    0.23957083990256525    
  0.23188802077099516    0.22361448711555848    0.24585287507398043    0.23188802077099516    0.21815410707329996    
  0.20545514884136198    0.1944110667297978    0.18544706189799934    0.1788407557219036    0.17478620169898737    
  0.17341764601490095    0.17478620169898737    0.1788407557219037    0.18544706189799934    0.19441106672979783    
  0.205455148841362    0.21815410707330007    0.2318880207709951    0.24585287507398054    0.2591297818166448    
  0.2708009779429223    0.28009167537193036    0.2864814244167009    0.28971568783519996    0.2897156878352001    
  0.28648142441670094    0.2800916753719304    0.2708009779429223    0.25912978181664487    0.24585287507398043    
  0.2780968052047702    0.2591297818166448    0.23957083990256525    0.2207915799339214    0.2039197251798398    
  0.1897659684623816    0.17884075572190367    0.17143168529570957    0.16769194709423935    0.16769194709423932    