#     DFTpy    
  CRYSTAL 
    
  PRIMVEC    
  1.4006349527973503    -2.42597090110184    0.0    
  1.4006349527973503    2.42597090110184    0.0    
  0.0    0.0    2.6364477962069004    
  PRIMCOORD    
  1    1    
  Si    0.0    0.0    0.0    
  BEGIN_BLOCK_DATAGRID_3D    
  3d_datagrid_density    
  BEGIN_DATAGRID_3D#0    
  28    28    26    
  0.0    0.0    0.0    
  1.4006349580217454    -2.4259709101507583    0.0    
  1.4006349580217454    2.4259709101507583    0.0    
  0.0    0.0    2.636447806040901    
  0.05329555400196713    0.061106161849398634    0.08702463241017472    0.13582364400448566    0.2067221465853769    
  0.2857670153662202    0.3493427087831757    0.379460301031615    0.3751451388573832    0.3489195274595263    
  0.3156805877911145    0.2856875709694254    0.26406045911176484    0.2528882174437377    0.2528882174437377    
  0.26406045911176484    0.2856875709694254    0.3156805877911145    0.3489195274595263    0.3751451388573832    
  0.379460301031615    0.34934270878317564    0.2857670153662202    0.2067221465853769    0.13582364400448566    
  0.08702463241017468    0.061106161849398634    0.05329555400196713    0.06110616184939854    0.061106161849398634    
  0.07801328173691958    0.1157339040844885    0.1766616134145962    0.2531756591657039    0.325145610781649    
  0.37059076164829885    0.3805111620759401    0.36226504659475806    0.330624802861361    0.2981794662635928    
  0.27214708425940193    0.25573556766177474    0.25016121071495556    0.2557355676617747    0.27214708425940193    
  0.2981794662635928    0.33062480286136103    0.36226504659475817    0.3805111620759402    0.3705907616482988    
  0.32514561078164905    0.25317565916570395    0.17666161341459624    0.11573390408448847    0.07801328173691963    
  0.06110616184939854    0.08702463241017457    0.07801328173691963    0.08702463241017482    0.11573390408448846    
  0.16644584170502072    0.23518167112299881    0.306687274305267    0.359708883491218    0.3804330880678327    
  0.37044292176406607    0.34208986409817294    0.30877138455492265    0.27942685444867266    0.2584679489913655    
  0.24768491057328504    0.24768491057328498    0.2584679489913655    0.2794268544486727    0.30877138455492265    
  0.34208986409817294    0.3704429217640661    0.3804330880678325    0.35970888349121793    0.30668727430526704    
  0.2351816711229989    0.16644584170502086    0.11573390408448854    0.08702463241017457    0.13582364400448566    
  0.1157339040844885    0.1157339040844885    0.13582364400448566    0.17666161341459613    0.2351816711229989    
  0.29986602084487063    0.3525542311275885    0.3783169492872195    0.37445413284433626    0.34978883377186204    
  0.31684875956048064    0.28538669771404124    0.26081117596124115    0.2454960452048083    0.24031915433040402    
  0.24549604520480822    0.2608111759612411    0.28538669771404124    0.3168487595604807    0.3497888337718621    
  0.37445413284433615    0.37831694928721954    0.35255423112758855    0.2998660208448707    0.23518167112299884    
  0.1766616134145963    0.13582364400448566    0.20672214658537696    0.1766616134145963    0.16644584170502072    
  0.17666161341459624    0.206722146585377    0.25317565916570395    0.30668727430526704    0.3525542311275885    
  0.37720986695349973    0.3758801008557305    0.35403761119065985    0.32215731662417796    0.28969460602105734    
  0.26256040459570784    0.24360931151109316    0.23396152524384717    0.23396152524384717    0.2436093115110931    
  0.2625604045957079    0.28969460602105734    0.32215731662417796    0.35403761119065985    0.3758801008557305    
  0.37720986695349973    0.35255423112758855    0.3066872743052671    0.25317565916570395    0.20672214658537696    
  0.2857670153662201    0.25317565916570395    0.23518167112299895    0.2351816711229989    0.2531756591657039    
  0.2857670153662201    0.32514561078164905    0.359708883491218    0.3783169492872195    0.3758801008557305    
  0.35536940782566145    0.3247469324174412    0.29224676310408376    0.26365592438975644    0.24209238182585854    
  0.22888463197320555    0.22445616614795041    0.22888463197320555    0.24209238182585854    0.26365592438975644    
  0.29224676310408376    0.3247469324174412    0.35536940782566145    0.3758801008557305    0.3783169492872195    
  0.359708883491218    0.32514561078164905    0.2857670153662201    0.3493427087831757    0.32514561078164905    
  0.306687274305267    0.2998660208448707    0.30668727430526704    0.32514561078164905    0.3493427087831757    
  0.3705907616482989    0.3804330880678326    0.37445413284433626    0.35403761119065985    0.3247469324174411    
  0.2930846575482887    0.26416246961164963    0.2410823549557828    0.22533061291778186    0.21741317528972143    
  0.21741317528972143    0.2253306129177818    0.24108235495578276    0.26416246961164963    0.29308465754828866    
  0.3247469324174412    0.35403761119065974    0.3744541328443363    0.3804330880678326    0.37059076164829885    
  0.3493427087831757    0.37946030103161493    0.3705907616482989    0.3597088834912181    0.3525542311275885    
  0.35255423112758855    0.3597088834912179    0.3705907616482988    0.379460301031615    0.3805111620759402    
  0.3704429217640661    0.34978883377186204    0.32215731662417796    0.2922467631040837    0.2641624696116496    
  0.2407247309128836    0.2234965390772459    0.21310152543128433    0.2096436937899577    0.2131015254312843    
  0.22349653907724604    0.24072473091288354    0.2641624696116496    0.2922467631040837    0.32215731662417796    
  0.349788833771862    0.37044292176406624    0.38051116207594016    0.37946030103161493    0.37514513885738315    
  0.38051116207594016    0.38043308806783255    0.3783169492872195    0.3772098669534998    0.3783169492872195    
  0.3804330880678325    0.38051116207594016    0.3751451388573832    0.36226504659475806    0.34208986409817294    
  0.3168487595604807    0.28969460602105734    0.26365592438975644    0.2410823549557828    0.2234965390772459    
  0.2116521603168103    0.20574632985031704    0.205746329850317    0.2116521603168103    0.22349653907724598    
  0.24108235495578273    0.26365592438975644    0.28969460602105734    0.31684875956048064    0.34208986409817294    
  0.3622650465947581    0.37514513885738315    0.34891952745952637    0.36226504659475817    0.3704429217640661    
  0.3744541328443363    0.3758801008557305    0.3758801008557305    0.3744541328443362    0.37044292176406607    
  0.36226504659475817    0.3489195274595263    0.330624802861361    0.30877138455492265    0.28538669771404124    
  0.26256040459570784    0.24209238182585854    0.22533061291778186    0.21310152543128433    0.20574632985031704    
  0.2033029318745784    0.2057463298503171    0.21310152543128438    0.22533061291778175    0.24209238182585857    
  0.26256040459570784    0.28538669771404124    0.30877138455492265    0.330624802861361    0.34891952745952637    
  0.31568058779111446    0.33062480286136103    0.34208986409817294    0.349788833771862    0.3540376111906598    
  0.35536940782566145    0.3540376111906598    0.34978883377186204    0.3420898640981728    0.3306248028613609    
  0.3156805877911145    0.2981794662635928    0.27942685444867266    0.2608111759612411    0.2436093115110931    
  0.22888463197320555    0.21741317528972143    0.20964369378995767    0.205746329850317    0.20574632985031704    
  0.20964369378995773    0.21741317528972137    0.22888463197320555    0.2436093115110931    0.2608111759612411    
  0.27942685444867266    0.2981794662635928    0.31568058779111446    0.2856875709694253    0.2981794662635928    
  0.3087713845549227    0.31684875956048064    0.32215731662417796    0.3247469324174411    0.3247469324174411    
  0.32215731662417796    0.31684875956048075    0.3087713845549226    0.2981794662635929    0.2856875709694253    
  0.27214708425940193    0.25846794899136544    0.24549604520480828    0.2339615252438471    0.22445616614795041    
  0.21741317528972148    0.2131015254312843    0.2116521603168104    0.21310152543128433    0.21741317528972143    
  0.22445616614795036    0.23396152524384717    0.24549604520480822    0.25846794899136555    0.272147084259402    
  0.2856875709694253    0.2640604591117649    0.272147084259402    0.2794268544486727    0.2853866977140413    
  0.2896946060210573    0.2922467631040837    0.29308465754828866    0.29224676310408376    0.28969460602105734    
  0.28538669771404124    0.2794268544486727    0.27214708425940193    0.26406045911176484    0.25573556766177474    
  0.24768491057328504    0.24031915433040402    0.23396152524384717    0.22888463197320555    0.22533061291778186    
  0.22349653907724598    0.22349653907724598    0.22533061291778175    0.2288846319732056    0.23396152524384717    
  0.24031915433040402    0.24768491057328498    0.25573556766177474    0.2640604591117649    0.25288821744373763    
  0.25573556766177474    0.25846794899136544    0.26081117596124104    0.2625604045957079    0.26365592438975644    
  0.26416246961164963    0.26416246961164963    0.26365592438975644    0.26256040459570784    0.2608111759612411    
  0.2584679489913655    0.25573556766177474    0.2528882174437377    0.2501612107149556    0.24768491057328498    
  0.24549604520480828    0.2436093115110931    0.24209238182585854    0.2410823549557828    0.2407247309128836    
  0.2410823549557828    0.24209238182585854    0.24360931151109305    0.24549604520480822    0.24768491057328504    
  0.25016121071495556    0.25288821744373763    0.25288821744373763    0.2501612107149556    0.24768491057328504    
  0.24549604520480822    0.24360931151109305    0.24209238182585854    0.24108235495578276    0.2407247309128836    
  0.2410823549557828    0.24209238182585854    0.2436093115110931    0.2454960452048083    0.24768491057328504    
  0.2501612107149556    0.2528882174437377    0.2557355676617747    0.2584679489913655    0.26081117596124115    
  0.26256040459570784    0.26365592438975644    0.26416246961164963    0.26416246961164963    0.26365592438975644    
  0.2625604045957079    0.2608111759612411    0.25846794899136544    0.25573556766177474    0.25288821744373763    
  0.26406045911176484    0.2557355676617748    0.24768491057328504    0.24031915433040393    0.2339615252438471    
  0.22888463197320555    0.22533061291778175    0.22349653907724598    0.22349653907724598    0.2253306129177818    
  0.2288846319732056    0.2339615252438471    0.24031915433040402    0.24768491057328498    0.25573556766177474    
  0.26406045911176484    0.27214708425940193    0.27942685444867277    0.28538669771404124    0.28969460602105734    
  0.29224676310408376    0.2930846575482887    0.2922467631040837    0.28969460602105723    0.28538669771404124    
  0.2794268544486727    0.272147084259402    0.26406045911176484    0.2856875709694253    0.272147084259402    
  0.25846794899136555    0.24549604520480822    0.23396152524384717    0.22445616614795036    0.21741317528972143    
  0.21310152543128438    0.2116521603168104    0.2131015254312843    0.21741317528972143    0.22445616614795036    
  0.23396152524384717    0.24549604520480822    0.2584679489913655    0.2721470842594019    0.2856875709694253    
  0.2981794662635929    0.30877138455492265    0.3168487595604808    0.32215731662417796    0.3247469324174411    
  0.3247469324174411    0.32215731662417796    0.3168487595604807    0.30877138455492265    0.2981794662635928    
  0.2856875709694253    0.31568058779111446    0.2981794662635928    0.27942685444867266    0.2608111759612411    
  0.24360931151109305    0.22888463197320555    0.21741317528972137    0.2096436937899577    0.2057463298503171    
  0.205746329850317    0.20964369378995767    0.21741317528972143    0.22888463197320555    0.24360931151109305    
  0.2608111759612411    0.27942685444867266    0.2981794662635928    0.3156805877911145    0.3306248028613609    
  0.34208986409817294    0.34978883377186204    0.35403761119065985    0.35536940782566145    0.35403761119065985    
  0.349788833771862    0.34208986409817294    0.330624802861361    0.31568058779111446    0.34891952745952637    
  0.330624802861361    0.30877138455492265    0.2853866977140413    0.26256040459570784    0.24209238182585857    
  0.22533061291778175    0.21310152543128438    0.2057463298503171    0.2033029318745784    0.20574632985031707    
  0.21310152543128433    0.2253306129177818    0.24209238182585854    0.2625604045957079    0.28538669771404124    
  0.30877138455492265    0.33062480286136103    0.3489195274595263    0.36226504659475817    0.3704429217640661    
  0.37445413284433626    0.3758801008557305    0.3758801008557305    0.3744541328443363    0.3704429217640661    
  0.36226504659475817    0.34891952745952637    0.37514513885738315    0.3622650465947581    0.34208986409817294    
  0.3168487595604806    0.28969460602105734    0.26365592438975644    0.24108235495578276    0.22349653907724598    
  0.21165216031681025    0.205746329850317    0.20574632985031707    0.2116521603168103    0.22349653907724598    
  0.24108235495578276    0.26365592438975644    0.28969460602105734    0.3168487595604807    0.34208986409817294    
  0.36226504659475806    0.3751451388573832    0.38051116207594016    0.38043308806783255    0.3783169492872195    
  0.37720986695349973    0.3783169492872195    0.3804330880678325    0.3805111620759401    0.37514513885738315    
  0.37946030103161493    0.3805111620759401    0.37044292176406624    0.349788833771862    0.32215731662417796    
  0.29224676310408376    0.2641624696116496    0.24072473091288354    0.22349653907724598    0.2131015254312843    
  0.2096436937899577    0.21310152543128433    0.2234965390772459    0.2407247309128836    0.2641624696116496    
  0.2922467631040837    0.32215731662417796    0.3497888337718621    0.3704429217640661    0.38051116207594016    
  0.37946030103161493    0.3705907616482988    0.35970888349121793    0.35255423112758855    0.35255423112758855    
  0.3597088834912181    0.3705907616482989    0.37946030103161493    0.3493427087831757    0.37059076164829885    
  0.38043308806783255    0.3744541328443363    0.35403761119065974    0.3247469324174412    0.29308465754828866    
  0.26416246961164963    0.24108235495578276    0.2253306129177818    0.21741317528972143    0.21741317528972143    
  0.22533061291778186    0.2410823549557828    0.26416246961164963    0.2930846575482887    0.3247469324174412    
  0.35403761119065985    0.37445413284433626    0.3804330880678326    0.3705907616482989    0.34934270878317564    
  0.3251456107816491    0.30668727430526704    0.2998660208448707    0.306687274305267    0.32514561078164905    
  0.3493427087831757    0.2857670153662201    0.32514561078164905    0.359708883491218    0.3783169492872195    
  0.37588010085573054    0.35536940782566145    0.32474693241744124    0.29224676310408376    0.26365592438975644    
  0.24209238182585857    0.22888463197320555    0.22445616614795041    0.22888463197320555    0.24209238182585854    
  0.26365592438975644    0.29224676310408376    0.3247469324174412    0.35536940782566145    0.3758801008557305    
  0.3783169492872195    0.35970888349121793    0.32514561078164905    0.2857670153662201    0.2531756591657039    
  0.2351816711229989    0.23518167112299895    0.25317565916570395    0.2857670153662201    0.2067221465853769    
  0.25317565916570395    0.30668727430526704    0.35255423112758855    0.37720986695349973    0.3758801008557305    
  0.35403761119065974    0.32215731662417796    0.28969460602105734    0.2625604045957079    0.2436093115110931    
  0.23396152524384717    0.23396152524384717    0.24360931151109305    0.2625604045957079    0.28969460602105734    
  0.32215731662417796    0.35403761119065985    0.3758801008557305    0.37720986695349973    0.35255423112758855    
  0.30668727430526704    0.2531756591657039    0.206722146585377    0.17666161341459624    0.16644584170502078    
  0.17666161341459624    0.2067221465853769    0.1358236440044856    0.1766616134145963    0.23518167112299884    
  0.2998660208448707    0.35255423112758844    0.37831694928721954    0.3744541328443362    0.34978883377186204    
  0.3168487595604807    0.28538669771404124    0.2608111759612411    0.24549604520480822    0.240319154330404    
  0.24549604520480828    0.2608111759612411    0.28538669771404124    0.3168487595604807    0.3497888337718621    
  0.37445413284433626    0.3783169492872195    0.3525542311275885    0.29986602084487063    0.2351816711229989    
  0.1766616134145962    0.13582364400448563    0.11573390408448854    0.1157339040844885    0.1358236440044856    
  0.08702463241017461    0.11573390408448854    0.16644584170502083    0.2351816711229989    0.3066872743052671    
  0.35970888349121793    0.38043308806783255    0.3704429217640661    0.34208986409817294    0.3087713845549226    
  0.27942685444867277    0.2584679489913655    0.24768491057328498    0.24768491057328498    0.2584679489913655    
  0.27942685444867266    0.30877138455492265    0.34208986409817294    0.3704429217640661    0.38043308806783266    
  0.35970888349121793    0.30668727430526704    0.23518167112299881    0.16644584170502078    0.11573390408448847    
  0.08702463241017477    0.07801328173691958    0.08702463241017461    0.061106161849398495    0.07801328173691958    
  0.11573390408448843    0.17666161341459624    0.2531756591657039    0.32514561078164905    0.3705907616482988    
  0.38051116207594016    0.36226504659475817    0.3306248028613609    0.2981794662635928    0.272147084259402    
  0.2557355676617747    0.25016121071495556    0.25573556766177474    0.27214708425940193    0.2981794662635928    
  0.33062480286136103    0.36226504659475806    0.3805111620759401    0.3705907616482989    0.325145610781649    
  0.2531756591657039    0.17666161341459619    0.1157339040844884    0.07801328173691958    0.06110616184939868    
  0.061106161849398495    0.05329555400196713    0.061106161849398634    0.08702463241017472    0.13582364400448566    
  0.2067221465853769    0.2857670153662202    0.3493427087831757    0.379460301031615    0.3751451388573832    
  0.3489195274595263    0.3156805877911145    0.2856875709694254    0.26406045911176484    0.2528882174437377    
  0.2528882174437377    0.26406045911176484    0.2856875709694254    0.3156805877911145    0.3489195274595263    
  0.3751451388573832    0.379460301031615    0.34934270878317564    0.2857670153662202    0.2067221465853769    
  0.13582364400448566    0.08702463241017468    0.061106161849398634    0.05329555400196713    0.06168023489165178    
  0.0699501277720001    0.0969629625216468    0.14659622640319847    0.2168435327384249    0.29316599588544356    
  0.35274447310860635    0.3791615882001383    0.37248946638316865    0.34527444571800747    0.3118875360651945    
  0.28208340192857606    0.26068981781688794    0.2496608942965063    0.2496608942965063    0.26068981781688794    
  0.28208340192857606    0.3118875360651945    0.34527444571800747    0.37248946638316865    0.3791615882001383    
  0.35274447310860635    0.29316599588544356    0.2168435327384249    0.14659622640319847    0.09696296252164678    
  0.0699501277720001    0.06168023489165178    0.06995012777199996    0.0699501277720001    0.08763577931657533    
  0.1263186777224868    0.18728118690220122    0.2619412680093528    0.3303313075331906    0.37180350002390095    
  0.3787327710308746    0.35893815116690014    0.32684075989650146    0.29447757375903433    0.2686812997346935    
  0.25246667026435343    0.24696605523176374    0.2524666702643534    0.26868129973469357    0.29447757375903433    
  0.32684075989650146    0.35893815116690014    0.3787327710308747    0.37180350002390095    0.3303313075331907    
  0.26194126800935286    0.18728118690220122    0.1263186777224868    0.08763577931657536    0.06995012777199996    
  0.09696296252164668    0.08763577931657533    0.09696296252164689    0.12631867772248676    0.1771623811142557    
  0.24454788389169094    0.3129813927552375    0.36212168731266714    0.3795237819600121    0.3675383874945836    
  0.33841063941164645    0.3050290344181784    0.27589016707801883    0.2551588085943877    0.24451215082300998    
  0.24451215082300992    0.2551588085943877    0.27589016707801894    0.3050290344181784    0.33841063941164645    
  0.3675383874945837    0.3795237819600119    0.3621216873126671    0.3129813927552375    0.24454788389169102    
  0.17716238111425578    0.12631867772248684    0.09696296252164668    0.14659622640319842    0.12631867772248676    
  0.12631867772248678    0.14659622640319847    0.1872811869022011    0.244547883891691    0.30652820947875986    
  0.3556190091864395    0.3780385742613967    0.371946475947973    0.34626582550353247    0.3131208032199184    
  0.2818158279329629    0.2574775050649377    0.24234406668986022    0.23723369328534286    0.24234406668986022    
  0.2574775050649377    0.28181582793296284    0.3131208032199185    0.34626582550353247    0.3719464759479729    
  0.37803857426139675    0.3556190091864395    0.30652820947875997    0.24454788389169094    0.18728118690220125    
  0.14659622640319842    0.2168435327384249    0.18728118690220127    0.1771623811142557    0.18728118690220122    
  0.21684353273842494    0.26194126800935286    0.31298139275523756    0.3556190091864395    0.3771608661445523    
  0.37361155126232515    0.3506517900940384    0.31847290163097547    0.28612345431924463    0.2592250400754787    
  0.2404846730255343    0.23095606845933048    0.23095606845933048    0.24048467302553425    0.25922504007547875    
  0.28612345431924463    0.31847290163097547    0.3506517900940384    0.3736115512623251    0.3771608661445523    
  0.3556190091864395    0.31298139275523756    0.2619412680093529    0.2168435327384249    0.29316599588544345    
  0.26194126800935286    0.24454788389169102    0.244547883891691    0.2619412680093528    0.29316599588544345    
  0.3303313075331906    0.36212168731266714    0.3780385742613967    0.37361155126232515    0.35203784505788766    
  0.3210978714950766    0.28869074160587754    0.2603349942060627    0.23900131542916175    0.2259512259957295    
  0.22157838025529017    0.22595122599572953    0.2390013154291617    0.2603349942060627    0.2886907416058776    
  0.3210978714950766    0.3520378450578877    0.3736115512623251    0.3780385742613967    0.3621216873126672    
  0.33033130753319073    0.29316599588544345    0.35274447310860635    0.3303313075331907    0.3129813927552375    
  0.3065282094787599    0.3129813927552375    0.33033130753319073    0.35274447310860635    0.37180350002390106    
  0.379523781960012    0.371946475947973    0.3506517900940384    0.3210978714950765    0.2895369685251599    
  0.2608556173453841    0.23802067589024153    0.2224546906925854    0.2146357785776827    0.21463577857768268    
  0.22245469069258533    0.23802067589024153    0.2608556173453841    0.28953696852515987    0.3210978714950766    
  0.3506517900940383    0.37194647594797303    0.379523781960012    0.37180350002390095    0.35274447310860635    
  0.3791615882001382    0.37180350002390106    0.36212168731266725    0.3556190091864395    0.35561900918643957    
  0.3621216873126671    0.37180350002390095    0.3791615882001383    0.3787327710308747    0.3675383874945836    
  0.34626582550353247    0.31847290163097547    0.28869074160587754    0.2608556173453841    0.2376748693038281    
  0.220653230780041    0.21038870892601885    0.20697524447202434    0.21038870892601882    0.2206532307800411    
  0.23767486930382803    0.2608556173453841    0.28869074160587754    0.31847290163097547    0.34626582550353247    
  0.3675383874945837    0.37873277103087466    0.3791615882001382    0.37248946638316854    0.37873277103087466    
  0.3795237819600119    0.3780385742613967    0.3771608661445523    0.37803857426139675    0.3795237819600119    
  0.37873277103087466    0.37248946638316865    0.35893815116690014    0.3384106394116464    0.3131208032199184    
  0.28612345431924463    0.2603349942060627    0.23802067589024153    0.220653230780041    0.20896166647703254    
  0.20313345024755486    0.2031334502475548    0.20896166647703251    0.2206532307800411    0.23802067589024148    
  0.2603349942060627    0.2861234543192446    0.3131208032199184    0.3384106394116464    0.3589381511669002    
  0.37248946638316854    0.34527444571800747    0.35893815116690014    0.3675383874945836    0.3719464759479731    
  0.37361155126232515    0.37361155126232515    0.3719464759479729    0.3675383874945836    0.3589381511669002    
  0.34527444571800747    0.32684075989650146    0.3050290344181784    0.28181582793296284    0.2592250400754787    
  0.23900131542916175    0.2224546906925854    0.21038870892601888    0.20313345024755486    0.20072347507165436    
  0.2031334502475549    0.2103887089260189    0.2224546906925853    0.23900131542916175    0.2592250400754787    
  0.2818158279329629    0.3050290344181784    0.32684075989650146    0.34527444571800747    0.3118875360651945    
  0.32684075989650146    0.3384106394116464    0.34626582550353247    0.35065179009403835    0.35203784505788766    
  0.35065179009403835    0.34626582550353247    0.3384106394116464    0.32684075989650135    0.31188753606519454    
  0.29447757375903433    0.27589016707801883    0.2574775050649377    0.2404846730255343    0.2259512259957295    
  0.2146357785776827    0.20697524447202434    0.20313345024755483    0.20313345024755486    0.20697524447202437    
  0.21463577857768262    0.22595122599572953    0.2404846730255343    0.25747750506493766    0.27589016707801883    
  0.2944775737590344    0.3118875360651945    0.28208340192857606    0.29447757375903433    0.30502903441817847    
  0.3131208032199184    0.31847290163097547    0.32109787149507657    0.32109787149507657    0.31847290163097547    
  0.31312080321991853    0.30502903441817836    0.29447757375903444    0.28208340192857606    0.2686812997346935    
  0.2551588085943877    0.24234406668986022    0.23095606845933042    0.22157838025529017    0.2146357785776827    
  0.21038870892601882    0.2089616664770326    0.21038870892601888    0.21463577857768268    0.22157838025529014    
  0.23095606845933048    0.24234406668986017    0.25515880859438783    0.26868129973469357    0.28208340192857606    
  0.26068981781688794    0.26868129973469357    0.27589016707801894    0.2818158279329629    0.2861234543192445    
  0.28869074160587754    0.2895369685251599    0.2886907416058776    0.28612345431924463    0.28181582793296284    
  0.2758901670780189    0.2686812997346935    0.26068981781688794    0.25246667026435343    0.24451215082300998    
  0.23723369328534286    0.23095606845933048    0.22595122599572953    0.2224546906925854    0.2206532307800411    
  0.22065323078004107    0.22245469069258533    0.22595122599572953    0.23095606845933042    0.23723369328534288    
  0.24451215082300992    0.25246667026435343    0.26068981781688794    0.2496608942965063    0.25246667026435343    
  0.2551588085943877    0.25747750506493766    0.25922504007547875    0.26033499420606276    0.2608556173453841    
  0.2608556173453841    0.2603349942060627    0.2592250400754787    0.2574775050649377    0.2551588085943877    
  0.2524666702643534    0.2496608942965063    0.24696605523176374    0.24451215082300992    0.24234406668986022    
  0.24048467302553425    0.2390013154291617    0.23802067589024153    0.2376748693038281    0.23802067589024153    
  0.2390013154291617    0.24048467302553422    0.24234406668986022    0.24451215082300998    0.24696605523176374    
  0.2496608942965063    0.2496608942965063    0.24696605523176374    0.24451215082300998    0.24234406668986017    
  0.24048467302553425    0.2390013154291617    0.23802067589024153    0.23767486930382808    0.23802067589024153    
  0.2390013154291617    0.2404846730255343    0.24234406668986028    0.24451215082300998    0.24696605523176374    
  0.2496608942965063    0.2524666702643534    0.2551588085943877    0.2574775050649378    0.2592250400754787    
  0.2603349942060627    0.2608556173453841    0.26085561734538415    0.2603349942060627    0.25922504007547875    
  0.2574775050649377    0.2551588085943877    0.25246667026435343    0.2496608942965063    0.26068981781688794    
  0.2524666702643535    0.24451215082300998    0.2372336932853428    0.2309560684593304    0.22595122599572953    
  0.22245469069258533    0.2206532307800411    0.22065323078004107    0.22245469069258533    0.22595122599572953    
  0.23095606845933042    0.23723369328534286    0.24451215082300992    0.2524666702643534    0.26068981781688794    
  0.2686812997346935    0.27589016707801894    0.28181582793296284    0.2861234543192446    0.2886907416058776    
  0.2895369685251599    0.28869074160587754    0.2861234543192445    0.28181582793296284    0.27589016707801894    
  0.26868129973469357    0.26068981781688794    0.28208340192857606    0.26868129973469357    0.2551588085943878    
  0.24234406668986022    0.23095606845933048    0.22157838025529014    0.21463577857768268    0.21038870892601894    
  0.2089616664770326    0.21038870892601882    0.2146357785776827    0.22157838025529017    0.23095606845933042    
  0.24234406668986022    0.2551588085943877    0.2686812997346935    0.28208340192857606    0.29447757375903444    
  0.3050290344181784    0.31312080321991853    0.31847290163097547    0.3210978714950765    0.32109787149507657    
  0.31847290163097547    0.3131208032199184    0.30502903441817847    0.29447757375903433    0.28208340192857606    
  0.3118875360651945    0.2944775737590344    0.2758901670780189    0.2574775050649377    0.24048467302553422    
  0.22595122599572953    0.21463577857768262    0.20697524447202437    0.2031334502475549    0.20313345024755483    