#     DFTpy    
  CRYSTAL 
    
  PRIMVEC    
  1.1837624439771102    -2.0503366970602706    0.0    
  1.1837624439771102    2.0503366970602706    0.0    
  0.0    0.0    2.22822362131034    
  PRIMCOORD    
  1    1    
  Si    0.0    0.0    0.0    
  BEGIN_BLOCK_DATAGRID_3D    
  3d_datagrid_density    
  BEGIN_DATAGRID_3D#0    
  25    25    25    
  0.0    0.0    0.0    
  1.1837624483925666    -2.0503367047080654    0.0    
  1.1837624483925666    2.0503367047080654    0.0    
  0.0    0.0    2.228223629621657    
  0.047350680203368134    0.05442660535556985    0.07819291584810438    0.12442064515047761    0.19617129726940136    
  0.2862259027488861    0.3758795431382062    0.44459014361672    0.4824162200989362    0.4935169255889695    
  0.4897953161865065    0.4828071464457144    0.4797134725269975    0.4828071464457144    0.4897953161865065    
  0.4935169255889695    0.4824162200989362    0.44459014361672    0.3758795431382062    0.2862259027488861    
  0.19617129726940136    0.12442064515047761    0.07819291584810438    0.05442660535556994    0.047350680203368134    
  0.05442660535556994    0.05442660535556994    0.06987586026144324    0.10512801524276642    0.16496368973926104    
  0.24734097099277544    0.33844773337787376    0.41743059173402264    0.46872174351606644    0.49034465360470075    
  0.4915225681313859    0.48456829629516424    0.478815631468093    0.47881563146809303    0.48456829629516435    
  0.4915225681313859    0.49034465360470075    0.46872174351606644    0.41743059173402264    0.3384477333778738    
  0.24734097099277536    0.16496368973926107    0.10512801524276652    0.0698758602614432    0.05442660535556994    
  0.07819291584810434    0.0698758602614432    0.07819291584810438    0.10512801524276642    0.15463560545982863    
  0.2270021994877352    0.3129606069560897    0.39438061243910366    0.453669379467323    0.4838631112881104    
  0.4902795785608708    0.4843022633661086    0.4764509164166141    0.4731497415085695    0.4764509164166141    
  0.4843022633661087    0.4902795785608708    0.48386311128811027    0.453669379467323    0.3943806124391037    
  0.3129606069560896    0.2270021994877351    0.15463560545982874    0.10512801524276648    0.07819291584810434    
  0.12442064515047765    0.10512801524276648    0.10512801524276652    0.12442064515047761    0.16496368973926107    
  0.2270021994877351    0.3039914056921002    0.3812877806670331    0.4421679881774345    0.47703477559747554    
  0.48750363863125973    0.48281447692474255    0.4734277769833459    0.4669080917722836    0.4669080917722837    
  0.4734277769833459    0.4828144769247426    0.48750363863125973    0.47703477559747554    0.44216798817743463    
  0.38128778066703306    0.30399140569210015    0.2270021994877351    0.16496368973926115    0.12442064515047765    
  0.1961712972694014    0.16496368973926115    0.15463560545982874    0.1649636897392611    0.19617129726940136    
  0.24734097099277544    0.3129606069560897    0.3812877806670331    0.4378882546999236    0.47274951351219563    
  0.48492579795800317    0.48111544240413956    0.4706413394105231    0.46128026587684284    0.4576651283367846    
  0.46128026587684284    0.4706413394105231    0.4811154424041396    0.48492579795800317    0.47274951351219574    
  0.4378882546999236    0.3812877806670331    0.31296060695608974    0.24734097099277544    0.1961712972694014    
  0.2862259027488861    0.24734097099277544    0.2270021994877351    0.2270021994877352    0.24734097099277536    
  0.2862259027488861    0.33844773337787376    0.39438061243910366    0.4421679881774345    0.47274951351219563    
  0.48389832141596006    0.4800408177959607    0.46875011709022957    0.45715828322587454    0.4501725125073813    
  0.4501725125073813    0.45715828322587454    0.4687501170902296    0.4800408177959608    0.48389832141596006    
  0.4727495135121955    0.4421679881774345    0.39438061243910366    0.33844773337787376    0.2862259027488861    
  0.3758795431382062    0.3384477333778738    0.31296060695608974    0.3039914056921002    0.3129606069560896    
  0.3384477333778738    0.3758795431382062    0.41743059173402264    0.453669379467323    0.47703477559747554    
  0.48492579795800317    0.4800408177959607    0.46808906690206475    0.4550149371716163    0.4453694863704435    
  0.4418586445382626    0.4453694863704435    0.4550149371716163    0.4680890669020648    0.4800408177959608    
  0.48492579795800317    0.47703477559747554    0.453669379467323    0.4174305917340227    0.3758795431382062    
  0.44459014361671995    0.41743059173402264    0.3943806124391037    0.3812877806670331    0.3812877806670331    
  0.39438061243910366    0.41743059173402264    0.44459014361672    0.46872174351606644    0.4838631112881104    
  0.48750363863125973    0.48111544240413956    0.46875011709022957    0.4550149371716163    0.44372391156753593    
  0.437440926350116    0.437440926350116    0.44372391156753593    0.4550149371716163    0.4687501170902296    
  0.48111544240413956    0.4875036386312596    0.4838631112881104    0.46872174351606644    0.44459014361671995    
  0.4824162200989362    0.46872174351606644    0.453669379467323    0.4421679881774345    0.4378882546999236    
  0.4421679881774345    0.453669379467323    0.46872174351606655    0.48241622009893614    0.49034465360470075    
  0.4902795785608708    0.48281447692474255    0.4706413394105231    0.45715828322587454    0.4453694863704435    
  0.437440926350116    0.43465588108175296    0.437440926350116    0.4453694863704435    0.45715828322587454    
  0.4706413394105232    0.4828144769247426    0.49027957856087084    0.4903446536047007    0.4824162200989362    
  0.4935169255889695    0.4903446536047007    0.4838631112881104    0.47703477559747554    0.47274951351219563    
  0.47274951351219574    0.47703477559747554    0.48386311128811027    0.49034465360470075    0.4935169255889695    
  0.4915225681313859    0.4843022633661086    0.4734277769833458    0.46128026587684284    0.4501725125073813    
  0.4418586445382626    0.437440926350116    0.437440926350116    0.4418586445382625    0.4501725125073813    
  0.46128026587684284    0.4734277769833458    0.4843022633661087    0.4915225681313859    0.4935169255889695    
  0.4897953161865065    0.4915225681313859    0.49027957856087084    0.4875036386312596    0.48492579795800317    
  0.48389832141596006    0.48492579795800317    0.48750363863125973    0.49027957856087084    0.4915225681313859    
  0.4897953161865065    0.48456829629516435    0.4764509164166141    0.4669080917722837    0.4576651283367846    
  0.4501725125073813    0.4453694863704435    0.44372391156753593    0.4453694863704435    0.4501725125073813    
  0.45766512833678435    0.4669080917722837    0.4764509164166141    0.48456829629516435    0.4897953161865065    
  0.4828071464457144    0.48456829629516435    0.4843022633661087    0.4828144769247426    0.48111544240413945    
  0.4800408177959608    0.4800408177959608    0.4811154424041396    0.4828144769247426    0.4843022633661087    
  0.48456829629516435    0.4828071464457144    0.47881563146809303    0.4731497415085695    0.4669080917722837    
  0.46128026587684284    0.45715828322587454    0.4550149371716163    0.4550149371716163    0.45715828322587454    
  0.46128026587684284    0.4669080917722837    0.47314974150856964    0.47881563146809303    0.4828071464457144    
  0.4797134725269975    0.478815631468093    0.4764509164166142    0.4734277769833458    0.4706413394105232    
  0.46875011709022957    0.4680890669020648    0.4687501170902296    0.4706413394105232    0.4734277769833458    
  0.4764509164166141    0.47881563146809303    0.4797134725269975    0.47881563146809303    0.4764509164166141    
  0.4734277769833458    0.4706413394105232    0.4687501170902296    0.4680890669020648    0.4687501170902296    
  0.4706413394105232    0.4734277769833458    0.4764509164166142    0.47881563146809303    0.4797134725269975    
  0.4828071464457144    0.478815631468093    0.47314974150856964    0.4669080917722837    0.46128026587684284    
  0.45715828322587454    0.4550149371716163    0.4550149371716163    0.45715828322587443    0.46128026587684284    
  0.4669080917722837    0.4731497415085695    0.478815631468093    0.4828071464457144    0.48456829629516435    
  0.4843022633661087    0.4828144769247426    0.48111544240413956    0.4800408177959608    0.4800408177959608    
  0.48111544240413956    0.4828144769247426    0.4843022633661087    0.48456829629516435    0.4828071464457144    
  0.4897953161865065    0.48456829629516435    0.4764509164166141    0.4669080917722837    0.45766512833678435    
  0.4501725125073813    0.4453694863704435    0.4437239115675358    0.4453694863704435    0.4501725125073813    
  0.4576651283367846    0.4669080917722836    0.4764509164166141    0.48456829629516435    0.4897953161865065    
  0.4915225681313859    0.4902795785608708    0.48750363863125973    0.48492579795800317    0.48389832141596006    
  0.48492579795800317    0.4875036386312596    0.49027957856087084    0.4915225681313859    0.4897953161865065    
  0.4935169255889695    0.4915225681313859    0.4843022633661088    0.4734277769833458    0.46128026587684284    
  0.4501725125073813    0.4418586445382625    0.437440926350116    0.437440926350116    0.4418586445382626    
  0.4501725125073813    0.46128026587684284    0.4734277769833459    0.4843022633661086    0.4915225681313859    
  0.4935169255889695    0.49034465360470075    0.48386311128811027    0.47703477559747554    0.47274951351219574    
  0.47274951351219574    0.47703477559747554    0.4838631112881104    0.49034465360470075    0.4935169255889695    
  0.4824162200989362    0.4903446536047007    0.49027957856087084    0.4828144769247426    0.4706413394105232    
  0.45715828322587454    0.4453694863704435    0.437440926350116    0.43465588108175285    0.437440926350116    
  0.4453694863704435    0.45715828322587443    0.4706413394105231    0.4828144769247426    0.4902795785608708    
  0.4903446536047007    0.48241622009893614    0.46872174351606655    0.453669379467323    0.44216798817743463    
  0.4378882546999236    0.4421679881774345    0.453669379467323    0.46872174351606644    0.4824162200989362    
  0.44459014361672    0.4687217435160664    0.4838631112881104    0.48750363863125973    0.48111544240413945    
  0.46875011709022957    0.4550149371716163    0.4437239115675358    0.437440926350116    0.437440926350116    
  0.44372391156753593    0.4550149371716163    0.46875011709022957    0.48111544240413956    0.48750363863125973    
  0.4838631112881104    0.4687217435160664    0.44459014361672    0.4174305917340227    0.3943806124391038    
  0.3812877806670331    0.3812877806670331    0.39438061243910366    0.41743059173402264    0.44459014361672    
  0.3758795431382062    0.41743059173402264    0.453669379467323    0.47703477559747554    0.48492579795800317    
  0.4800408177959608    0.4680890669020648    0.4550149371716163    0.4453694863704435    0.4418586445382626    
  0.4453694863704435    0.4550149371716163    0.46808906690206475    0.4800408177959607    0.48492579795800317    
  0.47703477559747554    0.453669379467323    0.41743059173402264    0.3758795431382062    0.33844773337787387    
  0.3129606069560896    0.3039914056921002    0.31296060695608974    0.3384477333778738    0.3758795431382062    
  0.2862259027488861    0.3384477333778738    0.3943806124391037    0.4421679881774345    0.47274951351219563    
  0.48389832141596006    0.4800408177959608    0.4687501170902296    0.45715828322587443    0.4501725125073813    
  0.4501725125073813    0.45715828322587443    0.46875011709022957    0.4800408177959607    0.48389832141596006    
  0.47274951351219563    0.4421679881774345    0.39438061243910366    0.33844773337787376    0.2862259027488861    
  0.24734097099277538    0.22700219948773515    0.2270021994877351    0.24734097099277544    0.2862259027488861    
  0.1961712972694014    0.24734097099277544    0.31296060695608974    0.3812877806670331    0.4378882546999236    
  0.47274951351219574    0.48492579795800317    0.4811154424041396    0.4706413394105231    0.46128026587684284    
  0.4576651283367846    0.46128026587684284    0.4706413394105231    0.48111544240413956    0.48492579795800317    
  0.47274951351219563    0.4378882546999236    0.38128778066703317    0.3129606069560897    0.24734097099277544    
  0.19617129726940136    0.1649636897392611    0.15463560545982874    0.16496368973926118    0.1961712972694014    
  0.12442064515047761    0.16496368973926112    0.22700219948773515    0.3039914056921002    0.3812877806670331    
  0.44216798817743463    0.47703477559747554    0.48750363863125973    0.4828144769247426    0.4734277769833459    
  0.4669080917722837    0.4669080917722836    0.4734277769833458    0.4828144769247426    0.48750363863125973    
  0.47703477559747554    0.4421679881774345    0.3812877806670332    0.3039914056921002    0.2270021994877352    
  0.1649636897392611    0.12442064515047765    0.10512801524276652    0.10512801524276648    0.12442064515047761    
  0.07819291584810434    0.10512801524276648    0.15463560545982874    0.2270021994877351    0.3129606069560896    
  0.3943806124391037    0.453669379467323    0.48386311128811027    0.4902795785608708    0.4843022633661088    
  0.4764509164166141    0.4731497415085695    0.4764509164166141    0.4843022633661086    0.4902795785608708    
  0.4838631112881104    0.453669379467323    0.3943806124391036    0.3129606069560897    0.22700219948773515    
  0.15463560545982863    0.10512801524276652    0.07819291584810438    0.0698758602614432    0.07819291584810434    
  0.05442660535556994    0.06987586026144324    0.10512801524276652    0.16496368973926115    0.24734097099277544    
  0.3384477333778738    0.4174305917340227    0.46872174351606655    0.49034465360470075    0.4915225681313859    
  0.48456829629516435    0.47881563146809303    0.47881563146809303    0.48456829629516435    0.4915225681313859    
  0.4903446536047007    0.4687217435160664    0.41743059173402264    0.33844773337787376    0.24734097099277544    
  0.16496368973926104    0.10512801524276648    0.0698758602614432    0.054426605355569986    0.05442660535556994    
  0.047350680203368134    0.05442660535556985    0.07819291584810438    0.12442064515047761    0.19617129726940136    
  0.2862259027488861    0.3758795431382062    0.44459014361672    0.4824162200989362    0.4935169255889695    
  0.4897953161865065    0.4828071464457144    0.4797134725269975    0.4828071464457144    0.4897953161865065    
  0.4935169255889695    0.4824162200989362    0.44459014361672    0.3758795431382062    0.2862259027488861    
  0.19617129726940136    0.12442064515047761    0.07819291584810438    0.05442660535556994    0.047350680203368134    
  0.05406830792270412    0.061534359944685715    0.08629300036205326    0.13351733480908548    0.2053264351892102    
  0.2937750901804589    0.38032593554090693    0.4454613604505511    0.4803234167085985    0.48953598773749785    
  0.48485482260890483    0.4774731563967494    0.4742790502960054    0.4774731563967494    0.48485482260890483    
  0.48953598773749785    0.4803234167085985    0.4454613604505511    0.38032593554090693    0.2937750901804589    
  0.2053264351892102    0.13351733480908548    0.08629300036205326    0.061534359944685764    0.05406830792270412    
  0.061534359944685764    0.061534359944685806    0.07767647843685578    0.11392674851913029    0.17426759313331    
  0.2557752874174001    0.344363813794998    0.4198632644790073    0.467843718869086    0.4870989930249395    
  0.4869452547573097    0.47938575858623794    0.4734202924313488    0.4734202924313488    0.47938575858623805    
  0.4869452547573096    0.4870989930249396    0.467843718869086    0.4198632644790073    0.34436381379499803    
  0.25577528741739997    0.17426759313331006    0.11392674851913037    0.07767647843685574    0.061534359944685764    
  0.0862930003620532    0.07767647843685574    0.08629300036205326    0.11392674851913029    0.1639328056204451    
  0.2357828438483613    0.31971991738500205    0.3979443815281062    0.4538435250601189    0.4813594887437514    
  0.4861273256573042    0.47933597145847023    0.4711598485813188    0.46777749869999047    0.4711598485813188    
  0.47933597145847034    0.4861273256573042    0.4813594887437513    0.4538435250601189    0.39794438152810624    
  0.319719917385002    0.2357828438483612    0.16393280562044518    0.11392674851913033    0.0862930003620532    
  0.1335173348090855    0.11392674851913029    0.11392674851913037    0.13351733480908548    0.17426759313331003    
  0.2357828438483612    0.3110186724504405    0.3854332053890397    0.4430454660072481    0.47512879563821037    
  0.48374891254340546    0.4780801498725013    0.4682732896005424    0.461614025310498    0.4616140253104981    
  0.4682732896005424    0.47808014987250136    0.48374891254340546    0.47512879563821037    0.4430454660072481    
  0.38543320538903963    0.3110186724504405    0.2357828438483612    0.17426759313331008    0.1335173348090855    
  0.20532643518921026    0.17426759313331008    0.16393280562044518    0.17426759313331006    0.20532643518921023    
  0.2557752874174001    0.31971991738500205    0.3854332053890397    0.43901140433717456    0.47117484238576174    
  0.481451703162205    0.4765734069936628    0.46561678064509726    0.4560819019534101    0.4524271874873455    
  0.4560819019534101    0.46561678064509726    0.4765734069936629    0.4814517031622049    0.47117484238576185    
  0.43901140433717467    0.3854332053890397    0.3197199173850021    0.2557752874174001    0.20532643518921026    
  0.29377509018045883    0.2557752874174001    0.2357828438483612    0.2357828438483613    0.25577528741739997    
  0.2937750901804589    0.344363813794998    0.3979443815281062    0.4430454660072481    0.47117484238576174    
  0.48052516304791193    0.4756068543573518    0.46381652308394045    0.45204090624913745    0.44500576669957587    
  0.44500576669957587    0.45204090624913745    0.46381652308394045    0.4756068543573519    0.48052516304791193    
  0.4711748423857617    0.443045466007248    0.3979443815281062    0.344363813794998    0.29377509018045883    
  0.380325935540907    0.34436381379499803    0.3197199173850021    0.3110186724504405    0.31971991738500205    
  0.34436381379499803    0.38032593554090693    0.4198632644790073    0.4538435250601189    0.47512879563821037    
  0.4814517031622049    0.4756068543573518    0.4631879014828253    0.44994289142615157    0.4402573720327464    
  0.4367427974857305    0.4402573720327464    0.4499428914261517    0.4631879014828253    0.4756068543573519    
  0.4814517031622049    0.47512879563821037    0.4538435250601189    0.4198632644790073    0.380325935540907    
  0.4454613604505511    0.4198632644790073    0.39794438152810624    0.3854332053890397    0.3854332053890397    
  0.3979443815281062    0.4198632644790073    0.4454613604505511    0.46784371886908593    0.4813594887437514    
  0.48374891254340535    0.4765734069936628    0.46381652308394045    0.44994289142615157    0.43863192021768366    
  0.43235912518627    0.43235912518627    0.43863192021768366    0.44994289142615157    0.46381652308394045    
  0.4765734069936628    0.48374891254340535    0.4813594887437514    0.46784371886908593    0.4454613604505511    
  0.4803234167085985    0.46784371886908593    0.4538435250601189    0.443045466007248    0.43901140433717456    
  0.4430454660072481    0.4538435250601189    0.467843718869086    0.4803234167085984    0.4870989930249396    
  0.4861273256573042    0.4780801498725013    0.46561678064509726    0.45204090624913745    0.4402573720327464    
  0.43235912518627    0.4295884738734597    0.43235912518627    0.4402573720327463    0.45204090624913745    
  0.46561678064509726    0.4780801498725013    0.4861273256573042    0.4870989930249395    0.4803234167085985    
  0.48953598773749785    0.4870989930249395    0.4813594887437513    0.47512879563821037    0.47117484238576174    
  0.47117484238576174    0.47512879563821037    0.4813594887437513    0.4870989930249396    0.48953598773749796    
  0.4869452547573097    0.47933597145847023    0.46827328960054226    0.4560819019534101    0.44500576669957587    
  0.4367427974857305    0.43235912518627    0.43235912518627    0.4367427974857304    0.44500576669957587    
  0.4560819019534101    0.46827328960054226    0.47933597145847034    0.4869452547573096    0.48953598773749785    
  0.48485482260890483    0.4869452547573096    0.4861273256573042    0.48374891254340535    0.4814517031622049    
  0.48052516304791193    0.4814517031622049    0.48374891254340546    0.4861273256573042    0.4869452547573096    
  0.48485482260890483    0.47938575858623794    0.4711598485813188    0.4616140253104981    0.4524271874873455    
  0.445005766699576    0.4402573720327463    0.43863192021768366    0.4402573720327463    0.44500576669957587    
  0.45242718748734545    0.4616140253104981    0.47115984858131893    0.47938575858623805    0.48485482260890483    
  0.4774731563967494    0.47938575858623794    0.47933597145847034    0.4780801498725013    0.4765734069936628    
  0.4756068543573519    0.4756068543573519    0.4765734069936629    0.4780801498725013    0.47933597145847034    
  0.47938575858623805    0.4774731563967494    0.4734202924313488    0.46777749869999047    0.4616140253104981    
  0.4560819019534101    0.45204090624913745    0.44994289142615157    0.44994289142615157    0.45204090624913745    
  0.4560819019534102    0.4616140253104981    0.46777749869999047    0.4734202924313488    0.4774731563967494    
  0.4742790502960054    0.4734202924313488    0.47115984858131893    0.4682732896005424    0.46561678064509726    
  0.46381652308394045    0.4631879014828253    0.46381652308394045    0.46561678064509726    0.4682732896005424    
  0.4711598485813188    0.4734202924313488    0.4742790502960054    0.4734202924313488    0.4711598485813188    
  0.46827328960054226    0.46561678064509726    0.46381652308394045    0.4631879014828253    0.46381652308394045    
  0.46561678064509726    0.4682732896005424    0.47115984858131893    0.4734202924313488    0.4742790502960054    
  0.4774731563967494    0.47342029243134875    0.46777749869999047    0.4616140253104981    0.4560819019534101    
  0.45204090624913745    0.44994289142615157    0.4499428914261517    0.45204090624913745    0.4560819019534101    
  0.4616140253104981    0.4677774986999903    0.4734202924313488    0.4774731563967494    0.47938575858623805    
  0.47933597145847034    0.47808014987250136    0.4765734069936629    0.4756068543573519    0.4756068543573519    
  0.4765734069936628    0.4780801498725013    0.47933597145847034    0.47938575858623805    0.4774731563967494    
  0.48485482260890483    0.47938575858623794    0.47115984858131893    0.461614025310498    0.45242718748734545    
  0.44500576669957587    0.4402573720327463    0.4386319202176836    0.4402573720327463    0.445005766699576    
  0.4524271874873455    0.461614025310498    0.4711598485813188    0.47938575858623805    0.48485482260890483    
  0.4869452547573097    0.4861273256573042    0.48374891254340535    0.4814517031622049    0.48052516304791193    
  0.4814517031622049    0.48374891254340535    0.4861273256573042    0.4869452547573097    0.48485482260890483    
  0.48953598773749796    0.4869452547573096    0.4793359714584704    0.4682732896005424    0.4560819019534102    
  0.44500576669957587    0.4367427974857304    0.43235912518627    0.43235912518627    0.4367427974857305    
  0.44500576669957587    0.4560819019534101    0.4682732896005424    0.47933597145847023    0.4869452547573097    
  0.48953598773749796    0.4870989930249396    0.4813594887437513    0.47512879563821037    0.47117484238576185    
  0.47117484238576174    0.47512879563821037    0.4813594887437514    0.4870989930249396    0.48953598773749796    
  0.4803234167085985    0.4870989930249395    0.4861273256573042    0.4780801498725013    0.46561678064509726    
  0.45204090624913745    0.4402573720327463    0.43235912518627    0.4295884738734597    0.43235912518627    
  0.4402573720327464    0.45204090624913745    0.46561678064509726    0.4780801498725013    0.4861273256573042    
  0.4870989930249395    0.4803234167085984    0.467843718869086    0.4538435250601189    0.44304546600724815    
  0.43901140433717456    0.443045466007248    0.4538435250601189    0.467843718869086    0.4803234167085985    
  0.4454613604505511    0.46784371886908593    0.4813594887437514    0.48374891254340535    0.4765734069936627    
  0.46381652308394045    0.44994289142615157    0.4386319202176836    0.43235912518627    0.43235912518627    
  0.43863192021768366    0.44994289142615157    0.46381652308394045    0.4765734069936629    0.48374891254340535    
  0.4813594887437514    0.46784371886908593    0.4454613604505511    0.4198632644790073    0.39794438152810624    
  0.3854332053890397    0.3854332053890397    0.3979443815281062    0.41986326447900724    0.4454613604505511    
  0.380325935540907    0.41986326447900724    0.4538435250601189    0.47512879563821037    0.4814517031622049    
  0.4756068543573519    0.4631879014828253    0.4499428914261517    0.4402573720327464    0.4367427974857305    
  0.4402573720327464    0.44994289142615157    0.4631879014828253    0.4756068543573518    0.4814517031622049    
  0.47512879563821037    0.4538435250601189    0.4198632644790073    0.38032593554090693    0.3443638137949981    
  0.319719917385002    0.3110186724504405    0.3197199173850021    0.3443638137949981    0.380325935540907    
  0.2937750901804589    0.34436381379499803    0.39794438152810624    0.443045466007248    0.47117484238576174    
  0.48052516304791193    0.4756068543573519    0.46381652308394045    0.45204090624913745    0.44500576669957587    
  0.44500576669957587    0.45204090624913745    0.46381652308394045    0.4756068543573518    0.48052516304791193    
  0.47117484238576174    0.4430454660072481    0.3979443815281062    0.344363813794998    0.29377509018045894    
  0.2557752874174    0.2357828438483612    0.2357828438483612    0.2557752874174001    0.2937750901804589    
  0.20532643518921026    0.2557752874174001    0.3197199173850021    0.3854332053890397    0.43901140433717456    
  0.47117484238576174    0.4814517031622049    0.4765734069936629    0.46561678064509726    0.4560819019534101    
  0.4524271874873455    0.4560819019534101    0.46561678064509726    0.4765734069936628    0.481451703162205    
  0.47117484238576174    0.43901140433717456    0.3854332053890397    0.31971991738500205    0.2557752874174001    
  0.2053264351892102    0.17426759313331006    0.16393280562044518    0.17426759313331014    0.20532643518921026    
  0.13351733480908548    0.17426759313331008    0.2357828438483612    0.3110186724504405    0.3854332053890397    
  0.4430454660072481    0.47512879563821037    0.48374891254340546    0.4780801498725013    0.46827328960054226    
  0.4616140253104981    0.461614025310498    0.46827328960054226    0.4780801498725013    0.48374891254340546    
  0.47512879563821026    0.4430454660072481    0.38543320538903975    0.3110186724504405    0.2357828438483613    
  0.17426759313331006    0.13351733480908548    0.11392674851913037    0.11392674851913033    0.13351733480908548    
  0.0862930003620532    0.11392674851913029    0.16393280562044518    0.2357828438483612    0.319719917385002    
  0.3979443815281062    0.4538435250601189    0.4813594887437513    0.4861273256573042    0.47933597145847034    
  0.4711598485813188    0.4677774986999904    0.4711598485813188    0.47933597145847023    0.4861273256573042    
  0.4813594887437514    0.4538435250601189    0.39794438152810613    0.31971991738500205    0.2357828438483613    
  0.1639328056204451    0.11392674851913033    0.08629300036205326    0.07767647843685574    0.0862930003620532    
  0.061534359944685764    0.07767647843685582    0.11392674851913037    0.17426759313331008    0.2557752874174001    
  0.34436381379499803    0.4198632644790073    0.467843718869086    0.4870989930249396    0.4869452547573096    
  0.47938575858623805    0.4734202924313488    0.4734202924313488    0.47938575858623805    0.4869452547573097    
  0.4870989930249395    0.46784371886908593    0.4198632644790073    0.344363813794998    0.2557752874174001    
  0.17426759313331    0.11392674851913033    0.07767647843685574    0.061534359944685854    0.061534359944685764    
  0.05406830792270412    0.061534359944685715    0.08629300036205326    0.13351733480908548    0.2053264351892102    
  0.2937750901804589    0.38032593554090693    0.4454613604505511    0.4803234167085985    0.48953598773749785    
  0.48485482260890483    0.4774731563967494    0.4742790502960054    0.4774731563967494    0.48485482260890483    
  0.48953598773749785    0.4803234167085985    0.4454613604505511    0.38032593554090693    0.2937750901804589    
  0.2053264351892102    0.13351733480908548    0.08629300036205326    0.061534359944685764    0.05406830792270412    
  0.07665987614678897    0.08514140230413383    0.11236494988193531    0.16169032163468547    0.23263173630502976    
  0.315502575216987    0.39257723769442743    0.44733105329107953    0.47382203478050733    0.47779224245767393    
  0.4704741294676599    0.46201638283186774    0.4585479030669467    0.46201638283186774    0.4704741294676599    
  0.47779224245767393    0.47382203478050733    0.44733105329107953    0.39257723769442743    0.315502575216987    
  0.23263173630502976    0.16169032163468547    0.11236494988193531    0.08514140230413389    0.07665987614678897    
  0.08514140230413389    0.08514140230413397    0.10302628225070026    0.14155643798695433    0.20242281384323665    