
     Program PWSCF v.6.5 starts on 27Jun2023 at 17:25:39 

     This program is part of the open-source Quantum ESPRESSO suite
     for quantum simulation of materials; please cite
         "P. Giannozzi et al., J. Phys.:Condens. Matter 21 395502 (2009);
         "P. Giannozzi et al., J. Phys.:Condens. Matter 29 465901 (2017);
          URL http://www.quantum-espresso.org", 
     in publications or presentations arising from this work. More details at
     http://www.quantum-espresso.org/quote

     Serial version
     Reading input from /home/valeria/Documents/DFTPY/cWT-KEDF/Phases/Model_ML_function/Ks_calculations/DATA_sh/Si_sh4.in
Warning: card &IONS ignored
Warning: card / ignored
Warning: card &CELL ignored
Warning: card / ignored
Warning: card &FCP ignored
Warning: card / ignored
Warning: card &RISM ignored
Warning: card / ignored

     Current dimensions of program PWSCF are:
     Max number of different atomic species (ntypx) = 10
     Max number of k-points (npk) =  40000
     Max angular momentum in pseudopotentials (lmaxx) =  3

     WARNING: check_stop already initialized
     Message from routine setup:
     using ibrav=0 with symmetry is DISCOURAGED, use correct ibrav instead

     G-vector sticks info
     --------------------
     sticks:   dense  smooth     PW     G-vecs:    dense   smooth      PW
     Sum         313     313    121                 4245     4245     901



     bravais-lattice index     =            0
     lattice parameter (alat)  =       4.3715  a.u.
     unit-cell volume          =      68.0912 (a.u.)^3
     number of atoms/cell      =            1
     number of atomic types    =            1
     number of electrons       =         4.00
     number of Kohn-Sham states=            6
     kinetic-energy cutoff     =      60.0000  Ry
     charge density cutoff     =     240.0000  Ry
     convergence threshold     =      1.0E-06
     mixing beta               =       0.7000
     number of iterations used =            8  plain     mixing
     Exchange-correlation= LDA
                           (   1   1   0   0   0   0   0)

     celldm(1)=   4.371516  celldm(2)=   0.000000  celldm(3)=   0.000000
     celldm(4)=   0.000000  celldm(5)=   0.000000  celldm(6)=   0.000000

     crystal axes: (cart. coord. in units of alat)
               a(1) = (   0.500000  -0.866025   0.000000 )  
               a(2) = (   0.500000   0.866025   0.000000 )  
               a(3) = (   0.000000   0.000000   0.941162 )  

     reciprocal axes: (cart. coord. in units 2 pi/alat)
               b(1) = (  1.000000 -0.577350  0.000000 )  
               b(2) = (  1.000000  0.577350 -0.000000 )  
               b(3) = ( -0.000000  0.000000  1.062517 )  


     PseudoPot. # 1 for Si read from file:
     /home/valeria/Desktop/programs/dftpy/examples/ofpp/EAC/upf/blps/si.lda.upf
     MD5 check sum: 946fc5a8d23174f015515f8139e499ed
     Pseudo is Norm-conserving, Zval =  4.0
     DFTpy
     Using radial grid of 1601 points,  1 beta functions with: 
                l(1) =   0

     atomic species   valence    mass     pseudopotential
        Si             4.00    28.08000     Si( 1.00)

     24 Sym. Ops., with inversion, found



   Cartesian axes

     site n.     atom                  positions (alat units)
         1           Si  tau(   1) = (   0.0000000   0.0000000   0.0000000  )

     number of k points=  1100  Gaussian smearing, width (Ry)=  0.0050

     Number of k-points >= 100: set verbosity='high' to print them.

     Dense  grid:     4245 G-vectors     FFT dimensions: (  24,  24,  24)

     Estimated max dynamical RAM per process >      56.98 MB

     Initial potential from superposition of free atoms

     starting charge    3.99936, renormalised to    4.00000
     Starting wfcs are random

     total cpu time spent up to now is        5.8 secs

     Self-consistent Calculation

     iteration #  1     ecut=    60.00 Ry     beta= 0.70
     Davidson diagonalization with overlap
     ethr =  1.00E-02,  avg # of iterations =  5.9

     Threshold (ethr) on eigenvalues was too large:
     Diagonalizing with lowered threshold

     Davidson diagonalization with overlap
     ethr =  1.74E-04,  avg # of iterations =  1.6

     total cpu time spent up to now is       54.2 secs

     total energy              =      -7.98119875 Ry
     Harris-Foulkes estimate   =      -7.98155549 Ry
     estimated scf accuracy    <       0.00696027 Ry

     iteration #  2     ecut=    60.00 Ry     beta= 0.70
     Davidson diagonalization with overlap
     ethr =  1.74E-04,  avg # of iterations =  1.0

     total cpu time spent up to now is       66.8 secs

     total energy              =      -7.98122398 Ry
     Harris-Foulkes estimate   =      -7.98122427 Ry
     estimated scf accuracy    <       0.00059739 Ry

     iteration #  3     ecut=    60.00 Ry     beta= 0.70
     Davidson diagonalization with overlap
     ethr =  1.49E-05,  avg # of iterations =  1.3

     total cpu time spent up to now is       80.9 secs

     End of self-consistent calculation

     Number of k-points >= 100: set verbosity='high' to print the bands.

     the Fermi energy is    16.0986 ev

!    total energy              =      -7.98122613 Ry
     Harris-Foulkes estimate   =      -7.98122616 Ry
     estimated scf accuracy    <       0.00000030 Ry

     The total energy is the sum of the following terms:

     one-electron contribution =       5.91845454 Ry
     hartree contribution      =       0.03936514 Ry
     xc contribution           =      -2.73078296 Ry
     ewald contribution        =     -11.20821667 Ry
     smearing contrib. (-TS)   =      -0.00004618 Ry

     convergence has been achieved in   3 iterations

 Energies determined by pw2casino tool
 -------------------------------------
 Kinetic energy      1.8847417674947531       au  =     3.7694835349895062       Ry
 Local energy        1.0744855041428054       au  =     2.1489710082856108       Ry
 Non-Local energy    0.0000000000000000       au  =     0.0000000000000000       Ry
 Ewald energy       -5.6041083364358801       au  =    -11.208216672871760       Ry
 xc contribution    -1.3653914818028168       au  =    -2.7307829636056336       Ry
 hartree energy      1.9682571002198914E-002  au  =     3.9365142004397828E-002  Ry
 Smearing (-TS)     -2.3091046295800374E-005  au  =    -4.6182092591600747E-005  Ry
 Total energy       -3.9906130666451163       au  =    -7.9812261332902326       Ry
 -------------------------------------
 Total energy0      -3.9906130666452353       au  =    -7.9812261332904706       Ry
 External energy0    0.0000000000000000       au  =     0.0000000000000000       Ry
 -------------------------------------


     Writing output data file ./si.save/
