#     DFTpy    
  CRYSTAL 
    
  PRIMVEC    
  4.132965517241379    0.0    0.0    
  0.0    4.132965517241379    0.0    
  0.0    0.0    4.132965517241379    
  PRIMCOORD    
  4    1    
  Si    0.0    0.0    0.0    
  Si    0.0    2.0664827586206895    2.0664827586206895    
  Si    2.0664827586206895    0.0    2.0664827586206895    
  Si    2.0664827586206895    2.0664827586206895    0.0    
  BEGIN_BLOCK_DATAGRID_3D    
  3d_datagrid_density    
  BEGIN_DATAGRID_3D#0    
  19    19    19    
  0.0    0.0    0.0    
  4.132965517241379    0.0    0.0    
  0.0    4.132965517241379    0.0    
  0.0    0.0    4.132965517241379    
  0.0594719288325169    0.10385719792149753    0.2545931396954406    0.37997960465549396    0.3330590614307995    
  0.22920734671631524    0.15615385943294766    0.1169938283268988    0.09896070911711707    0.09383058602334841    
  0.09896073278155382    0.11699384236229084    0.15615387007269219    0.2292073090023974    0.3330590275888458    
  0.37997959542007587    0.2545931204751254    0.10385718958504762    0.0594719288325169    0.10385721292772807    
  0.15468819887325488    0.2968482765083828    0.3847185054338886    0.3229351783592978    0.22366422925943008    
  0.15605270071788083    0.1200002379870375    0.10355106704326883    0.09896072420713842    0.10355102787790699    
  0.12000023157445923    0.15605272408888385    0.2236642405619163    0.32293519660777487    0.38471853900772934    
  0.2968482917612664    0.15468820484644982    0.10385721292772807    0.2545930875586491    0.296848320625298    
  0.37367141024581485    0.3736824323744247    0.2930681980453117    0.2108619020311467    0.15874074065370855    
  0.13170127713410362    0.1200002164874825    0.11699383976553906    0.12000023059038194    0.13170129383213514    
  0.15874076316319252    0.21086193012793278    0.2930681846591458    0.3736824315276208    0.3736714079262218    
  0.29684831693552277    0.2545930875586491    0.3799795537226889    0.38471850722498796    0.37368244315392596    
  0.32132337174820896    0.25271207278711183    0.20007474358352578    0.17078019206399017    0.15874075747651878    
  0.15605273028770772    0.15615385769889226    0.15605273349544216    0.1587407640976751    0.1707801856261852    
  0.20007472819187397    0.2527120251057032    0.32132337954925316    0.37368247749912203    0.3847185622459085    
  0.3799795537226889    0.3330590366717289    0.32293519672412585    0.29306819957027935    0.25271202832391    
  0.21861219154286968    0.20084031047396625    0.20007473245332957    0.21086189795151306    0.22366421518147522    
  0.22920731173436282    0.2236641792276107    0.21086186888502875    0.2000747125772499    0.20084032300189333    
  0.2186121992583282    0.2527120172806141    0.2930681784071647    0.32293522228641763    0.3330590366717289    
  0.2292073302877266    0.2236641666153672    0.21086192018838915    0.20007472440344953    0.2008402894063104    
  0.21861221079872523    0.2527120409853115    0.2930682041867682    0.32293521931488334    0.3330590288640193    
  0.32293517727429777    0.29306821723294324    0.2527120334671401    0.21861223259949433    0.20084030441579007    
  0.2000747138829155    0.21086189072547176    0.22366422259224475    0.2292073302877266    0.15615387973273662    
  0.15605274852512124    0.15874074635704363    0.17078019448725046    0.20007474712832443    0.2527120839416893    
  0.32132331122997626    0.37368244407960255    0.38471853937240624    0.3799796097523063    0.3847185247457264    
  0.3736824198265757    0.32132336909636    0.25271199827420227    0.20007474227197034    0.1707802239504152    
  0.15874072161048347    0.1560527420318889    0.15615387973273662    0.11699383080023436    0.1200002574140353    
  0.13170127614433338    0.15874073595956495    0.21086187840679657    0.2930682147904214    0.3736824674606698    
  0.3736714011641352    0.2968483596298906    0.25459311108965677    0.2968482603577574    0.37367140770160784    
  0.3736824174235842    0.29306826376675    0.21086190404315877    0.15874073089573865    0.1317012774226173    
  0.12000025659796    0.11699383080023436    0.09896075782272484    0.10355105779766101    0.12000022317768803    
  0.1560527451255126    0.22366416734297648    0.32293520164903133    0.3847185172292314    0.2968483244480578    
  0.15468819539683593    0.10385720701312504    0.15468819596007474    0.2968483346431745    0.3847184984628224    
  0.32293519895143147    0.22366420643207305    0.156052750847193    0.12000021683150233    0.103551099534085    
  0.09896075782272484    0.09383056858835906    0.09896073302204896    0.11699386613900661    0.15615387643828485    
  0.2292073124584958    0.3330590623341586    0.3799796142940561    0.2545931237428244    0.10385719871777957    
  0.05947194721403032    0.10385720833457004    0.254593089007224    0.3799795919256977    0.3330590461681756    
  0.22920730977759923    0.15615387314738913    0.11699383656103572    0.09896072425506089    0.09383056858835906    
  0.09896075995131925    0.10355105044402327    0.12000022466352359    0.15605273144753204    0.223664206017038    
  0.3229352098910785    0.3847185278427528    0.29684833602521465    0.15468821518556725    0.10385720563163048    
  0.1546881749285278    0.2968483078355889    0.38471857199682663    0.3229352008045372    0.2236642162567179    
  0.15605272401823878    0.12000023990618236    0.10355105294777174    0.09896075995131925    0.11699386314920356    
  0.12000024269354163    0.13170127895162873    0.15874072574256107    0.21086193695405775    0.2930681965636212    
  0.37368244498150655    0.3736714156569469    0.29684836812041127    0.25459308243314066    0.2968483519067912    
  0.3736713605416739    0.37368247350331824    0.29306818183184796    0.2108619304196459    0.15874075348354638    
  0.13170124762136912    0.12000025511205306    0.11699386314920356    0.15615383465794783    0.1560527316367508    
  0.1587407102534319    0.17078021469601692    0.2000747045834455    0.2527120901188975    0.3213233221193596    
  0.37368245135848305    0.38471851803409335    0.3799796273543431    0.38471855862876053    0.3736824692096625    
  0.32132332472454905    0.2527120344273618    0.20007473606019738    0.17078019031146005    0.15874077246664164    
  0.15605272865393183    0.15615383465794783    0.22920733106308522    0.22366423395229992    0.2108619062543372    
  0.20007466969957033    0.20084029989779045    0.2186122410797073    0.2527120472359365    0.2930681965434894    
  0.32293520782393687    0.3330590009565777    0.3229351939407452    0.29306815343554776    0.2527120457200261    
  0.2186122338570891    0.20084029334123552    0.20007469564876232    0.21086194327451874    0.22366420947672475    
  0.22920733106308522    0.33305909762611063    0.3229351892119601    0.29306822344286815    0.2527120510714939    
  0.21861219115346783    0.2008403159029212    0.2000746981575327    0.21086191852116554    0.22366422693948687    
  0.22920730044495266    0.22366418366807692    0.21086191307128344    0.2000747178574512    0.20084031712871206    
  0.21861220799537603    0.2527120668831547    0.29306818033163956    0.3229352004638565    0.33305909762611063    
  0.3799795760191053    0.38471855107772834    0.373682481385793    0.3213233539578541    0.2527120688696455    
  0.2000747466276679    0.170780175404711    0.1587407256009292    0.15605271037954616    0.15615385795605538    
  0.15605271134206336    0.15874073248812895    0.17078020454431866    0.20007470734744623    0.25271201004743055    
  0.3213233534660245    0.3736824248607063    0.38471854451664705    0.3799795760191053    0.25459312821958197    
  0.2968483206648773    0.373671410639373    0.3736824923093569    0.29306816453464996    0.210861929008278    
  0.15874073633431215    0.1317012840644175    0.12000024988267845    0.11699380631504393    0.12000022882842591    
  0.13170125787094347    0.15874075294865425    0.21086193125487257    0.2930681937966258    0.3736824794353759    
  0.37367140075385624    0.2968483080516189    0.25459312821958197    0.10385721871929189    0.15468817751922023    
  0.29684830324529893    0.3847185278047077    0.32293520459312236    0.22366415447975005    0.1560527321985758    
  0.12000023295649978    0.10355106918226287    0.09896070093595158    0.1035510435834798    0.12000024939885866    
  0.15605273169432277    0.22366420438479717    0.3229352012044355    0.384718518876848    0.29684830604188    
  0.15468823140250326    0.10385721871929189    0.0594719288325169    0.10385719792149753    0.2545931396954406    
  0.37997960465549396    0.3330590614307995    0.22920734671631524    0.15615385943294766    0.1169938283268988    
  0.09896070911711707    0.09383058602334841    0.09896073278155382    0.11699384236229084    0.15615387007269219    
  0.2292073090023974    0.3330590275888458    0.37997959542007587    0.2545931204751254    0.10385718958504762    
  0.0594719288325169    0.10385717446760255    0.15468821867908777    0.296848347618172    0.3847185539439272    
  0.3229352717717433    0.22366426779650134    0.15605272693174185    0.12000021085803311    0.10355106434965783    
  0.0989607447036409    0.10355104635175787    0.12000024499608718    0.1560527498657204    0.2236641674052306    
  0.3229352029050367    0.38471855144426215    0.29684830786641747    0.15468821834897742    0.10385717446760255    
  0.15468822466281412    0.20659124958560768    0.33072538254410005    0.3841867749074541    0.31225962026160153    
  0.21807315174090958    0.1556108873171905    0.12252552567854758    0.10761850475547642    0.10355105718061239    
  0.1076184877045808    0.12252550984964365    0.15561086945893393    0.2180732115895322    0.3122595715725106    
  0.38418673884081755    0.3307254488917381    0.20659119309448465    0.15468822466281412    0.2968483076169217    
  0.33072532625265455    0.3831830720827577    0.3637497888032296    0.28199842292565175    0.20508428780601679    
  0.1572391339609284    0.13278838913687407    0.12252553304254057    0.12000024205377721    0.12252550236484341    
  0.13278837427877446    0.1572391878351873    0.2050842645735426    0.2819984290075777    0.36374982988490245    
  0.38318304428254985    0.33072542930344667    0.2968483076169217    0.38471851125823875    0.3841867818783041    
  0.3637498299357613    0.30827857163752753    0.24262459744631673    0.19387157617893233    0.16742376722325655    
  0.15723914622263488    0.15561088479527654    0.15605277261392594    0.1556108965612101    0.15723918320458255    
  0.1674237388590789    0.19387153963989898    0.24262456678529884    0.308278581919223    0.36374988730608765    
  0.38418677998334505    0.38471851125823875    0.3229352061607378    0.31225962548517583    0.28199833178429456    
  0.24262457827199027    0.2101741331601046    0.19378531690435005    0.19387152620569115    0.20508427210350505    
  0.21807315747478706    0.22366416289947175    0.21807312162232695    0.2050842621633704    0.19387150234444075    
  0.193785308270843    0.21017413503716675    0.24262456626049525    0.2819983732373305    0.31225963826404274    
  0.3229352061607378    0.22366422643296596    0.21807314132496197    0.20508428585849403    0.19387154592838968    
  0.19378529130031333    0.2101741649178651    0.24262460607278685    0.2819984206383895    0.3122596177406    
  0.32293522043923373    0.3122596409114645    0.28199836858396143    0.24262459804491868    0.2101741585959237    
  0.19378530479487513    0.19387156254847937    0.20508427749986174    0.2180731689155037    0.22366422643296596    
  0.15605269320298004    0.1556109358856086    0.1572391354282245    0.16742377985366003    0.19387152757661838    
  0.24262459934040695    0.30827856882033133    0.36374978362051136    0.38418682588566605    0.384718435442745    
  0.38418679802551253    0.36374976532672487    0.30827851369241943    0.24262455128885188    0.1938715124305559    
  0.16742380795436618    0.15723911980959762    0.15561090313300482    0.15605269320298004    0.12000026316517194    
  0.12252549528020446    0.13278834900534142    0.15723912219650915    0.20508427918255237    0.28199835164537485    
  0.3637498333899399    0.38318311773446534    0.33072542751955814    0.29684831938019907    0.33072534459603276    
  0.38318306436202787    0.3637498144601917    0.2819984388021241    0.20508426688886794    0.15723914921664336    
  0.1327883555067276    0.12252549013671328    0.12000026316517194    0.1035510743514891    0.10761848549235271    
  0.1225255044949952    0.155610937601395    0.21807314518125875    0.31225964582533433    0.38418674741079023    
  0.33072541364042946    0.20659123479902733    0.15468818957569125    0.20659119623833683    0.33072538632909415    
  0.38418679447003695    0.3122596251901295    0.21807316817048447    0.15561092923781256    0.12252549829328709    
  0.10761849959965546    0.1035510743514891    0.0989607191456551    0.10355103526307698    0.1200002554083936    
  0.15605271724523373    0.22366423698823537    0.32293521909149564    0.3847185601904287    0.2968483638396542    
  0.15468819546704404    0.10385720372949327    0.1546882162080917    0.2968483327302036    0.38471852123226863    
  0.32293521312075846    0.22366417851677378    0.1560527582711882    0.1200002132239955    0.10355108523204283    
  0.0989607191456551    0.10355109595071166    0.10761849916011647    0.12252551154836011    0.15561089567852604    
  0.21807317070556492    0.31225962944969743    0.38418677824227687    0.3307253461268506    0.20659124926119143    
  0.15468818504284643    0.20659121573838146    0.330725364368971    0.3841868250697431    0.3122596071600315    
  0.21807320041757755    0.15561090549336543    0.12252551877917502    0.10761846979431576    0.10355109595071166    
  0.1200002425486788    0.12252550178773007    0.1327883394493195    0.1572391493649723    0.20508429984012008    
  0.28199840495322015    0.36374977570590544    0.38318307810732255    0.33072537809947306    0.2968483569289816    
  0.3307253758772857    0.3831831083218768    0.3637498190057847    0.28199839584140435    0.2050843079772033    
  0.15723913826366645    0.1327883295694286    0.12252549694277708    0.1200002425486788    0.156052721990302    
  0.15561092922789657    0.15723915749627632    0.167423761375499    0.19387158287752385    0.2426245989561512    
  0.3082785707821862    0.3637497717370717    0.3841868258223571    0.38471851630593773    0.3841867865111252    
  0.3637497655716342    0.30827860280074404    0.2426245717755409    0.1938715349384609    0.16742375817102262    
  0.15723915498772736    0.15561089281314755    0.156052721990302    0.2236641690098924    0.21807315204435648    
  0.20508431816707215    0.19387150640732276    0.19378525380715136    0.21017417818912312    0.24262454152106777    
  0.2819983452066795    0.3122596396525149    0.32293523604526153    0.3122595624626574    0.2819983790575752    
  0.24262459000260767    0.21017419610569837    0.1937852751505358    0.19387156709117354    0.20508427993901535    
  0.21807317738338938    0.2236641690098924    0.32293522924872076    0.3122596258234198    0.2819983753858222    
  0.24262455604235883    0.21017414590171907    0.19378525973882177    0.19387155512512252    0.20508430898253313    
  0.21807319597124816    0.2236641958668691    0.21807311151991643    0.20508426787295156    0.19387154043144017    
  0.19378530995502402    0.21017416286767468    0.24262458361098446    0.2819983636472935    0.31225962420756315    
  0.32293522924872076    0.3847185734250098    0.38418676154129794    0.3637498111084894    0.30827859171827793    
  0.24262455878628317    0.19387156430330413    0.16742374076012656    0.15723914110617768    0.1556108930701979    
  0.1560527240109963    0.15561090232636873    0.15723918025389777    0.16742376101205655    0.19387150195246647    
  0.2426245352964121    0.30827863631579355    0.3637498338180434    0.38418674759161286    0.3847185734250098    
  0.296848335365837    0.3307253985911863    0.3831831121216321    0.3637498173956428    0.28199839799490034    
  0.20508427163229934    0.15723917023032094    0.13278836848206232    0.1225255330223793    0.12000022129059094    
  0.12252548454287593    0.13278833402432677    0.15723916025607843    0.20508430595515123    0.2819983479024878    
  0.3637497968795182    0.3831831446326741    0.33072540302032377    0.296848335365837    0.1546882231941028    
  0.20659120879357487    0.3307253488634364    0.3841867918445465    0.31225960787874135    0.21807313138191328    
  0.1556109021579597    0.12252553454892666    0.10761848324811157    0.10355105906401424    0.10761847806782916    
  0.12252553541918061    0.15561093598091508    0.21807316111650915    0.3122596329286757    0.3841867465719817    
  0.3307253943268223    0.20659122996128995    0.1546882231941028    0.10385717446760255    0.15468821867908777    
  0.296848347618172    0.3847185539439272    0.3229352717717433    0.22366426779650134    0.15605272693174185    
  0.12000021085803311    0.10355106434965783    0.0989607447036409    0.10355104635175787    0.12000024499608718    
  0.1560527498657204    0.2236641674052306    0.3229352029050367    0.38471855144426215    0.29684830786641747    
  0.15468821834897742    0.10385717446760255    0.254593093091169    0.2968483014532567    0.37367144898171223    
  0.3736824472671138    0.2930682606226589    0.21086196742952545    0.1587407780546824    0.13170129880237189    
  0.12000024278705014    0.11699383869220983    0.1200002262218376    0.13170128708853762    0.15874074771442828    
  0.21086191403642235    0.2930681677586698    0.37368242318532524    0.3736713944000596    0.296848333181168    
  0.254593093091169    0.2968483489791308    0.33072535940587044    0.38318311776930614    0.3637498064444868    
  0.2819983880718077    0.205084297695921    0.15723910821852924    0.13278836310493897    0.12252552001684933    
  0.12000022830549319    0.12252550739247342    0.13278834940198928    0.15723913943459442    0.20508429717050536    
  0.28199834272055285    0.36374981330099626    0.3831831157628212    0.3307253608374058    0.2968483489791308    
  0.3736714275941204    0.3831831082162283    0.38054186389713457    0.32883691305972096    0.25268464292062515    
  0.19151099111828804    0.15565275065693834    0.13874812902066172    0.13278836410123895    0.13170126798964402    
  0.13278836182315482    0.1387481205825014    0.15565275549322644    0.1915109776043172    0.25268463095925897    
  0.3288368906840371    0.3805418808541242    0.38318309372879744    0.3736714275941204    0.37368241151362935    
  0.363749799869415    0.3288369067641878    0.27267453530236746    0.21716373669535627    0.17912381828341992    
  0.16051028447424476    0.15565273197042187    0.15723911361494516    0.15874074277322472    0.15723913381872717    
  0.1556527671327248    0.1605102994289742    0.17912380394204658    0.21716369588313542    0.27267455063810103    
  0.32883694908476446    0.3637498119170946    0.37368241151362935    0.2930682222804413    0.2819983364538161    
  0.2526845681388334    0.21716370093503276    0.18945374218953676    0.17677156715195058    0.17912379895526526    
  0.19151096915403817    0.20508432068815383    0.21086186234424278    0.2050842833676754    0.1915109602812531    
  0.17912381155953408    0.17677158869275547    0.18945373281549097    0.21716371454424413    0.2526845671676697    
  0.28199840388941616    0.2930682222804413    0.21086191846534652    0.20508427848099567    0.19151096290533778    
  0.17912381185491627    0.17677157058520707    0.18945375599450304    0.21716376698181317    0.252684614546673    
  0.2819983688765057    0.2930681652972847    0.28199840596927395    0.2526846179293598    0.21716371928329664    
  0.1894537927649178    0.17677156078741416    0.1791237978952518    0.19151099293232215    0.20508431625978754    
  0.21086191846534652    0.15874073590036952    0.15723913837248368    0.1556527439230051    0.1605103544238902    
  0.17912378238646104    0.2171637679890691    0.2726745419272711    0.3288368682061039    0.3637498129049779    
  0.373682442591132    0.36374978673639097    0.3288368935416097    0.2726745282884301    0.21716371348673533    
  0.17912378014520833    0.1605103370878524    0.15565273396485124    0.15723913771144446    0.15874073590036952    
  0.1317012922103892    0.13278834921616875    0.13874812761851668    0.15565271312677675    0.1915109731709139    
  0.2526845541329388    0.32883686930480943    0.3805419396837369    0.3831831454614895    0.3736714368492686    
  0.3831830862953867    0.380541875038594    0.328836876043122    0.25268467329028566    0.1915109661574667    
  0.1556527211990206    0.13874812059208355    0.13278831344947645    0.1317012922103892    0.120000274297256    
  0.12252551082347903    0.13278835404761027    0.15723915402988434    0.20508426338549499    0.28199840403166315    
  0.3637498378961442    0.38318309184799504    0.3307254208622786    0.2968482608728496    0.3307253570253639    
  0.3831830699517244    0.3637498512708899    0.28199839306003865    0.20508428487775432    0.1572391486912288    
  0.13278833938934248    0.12252553880383976    0.120000274297256    0.11699383852630538    0.12000022997778004    
  0.13170128505776305    0.1587407244556088    0.2108619081786807    0.29306820072820233    0.373682443583676    
  0.37367143282589377    0.2968483207914894    0.2545931209460375    0.29684833562641705    0.3736714137554507    
  0.3736824632106997    0.29306819262424755    0.2108619142619241    0.15874075898551107    0.13170125859770257    
  0.12000025774750762    0.11699383852630538    0.12000026722851508    0.12252551409006558    0.13278835155779156    
  0.15723911290656853    0.20508426829037887    0.28199839062717297    0.36374979453142464    0.38318306941327185    
  0.3307253627143846    0.2968483017670285    0.33072532100695007    0.3831830870166582    0.3637498100438336    
  0.2819984180410692    0.20508429730909197    0.1572391326205293    0.13278833876870294    0.12252551268434722    
  0.12000026722851508    0.13170127864549747    0.13278837373093208    0.13874809652570366    0.15565272284062462    
  0.19151099391948448    0.2526845916053115    0.32883685757015985    0.3805419192313506    0.3831830944842319    
  0.37367144313972583    0.3831831012690936    0.3805418825730059    0.32883690709396096    0.25268460889223954    
  0.19151101303698273    0.1556527310806506    0.138748100002897    0.13278834765445588    0.13170127864549747    
  0.15874070853417743    0.15723915754616802    0.15565273268408938    0.16051034628651606    0.1791238083933739    
  0.21716380207621197    0.27267449401392774    0.32883688657871    0.3637497734854045    0.3736824553898816    
  0.36374977162824734    0.3288368853998071    0.2726745542593415    0.21716375160558843    0.17912381274801067    
  0.1605103024847949    0.15565275652284943    0.15723914867480993    0.15874070853417743    0.21086190009792533    
  0.20508428134978202    0.19151096667340542    0.17912375198262548    0.1767715345194616    0.18945379630916326    
  0.21716370760086745    0.2526845951518131    0.2819983937765503    0.2930681879627843    0.2819983425499891    
  0.25268454934270557    0.21716372688106725    0.18945378292994286    0.17677156402519567    0.1791237968994286    
  0.1915109856669272    0.20508430975877814    0.21086190009792533    0.2930682200756454    0.28199837689626517    
  0.2526845976562397    0.21716373322020954    0.18945372746485828    0.17677158085856223    0.1791238053472007    
  0.1915109967581512    0.20508431136471852    0.21086187871909395    0.2050842571969282    0.19151099065615187    
  0.1791237929742427    0.17677159914916918    0.18945377915686026    0.2171637604277129    0.252684575652839    
  0.281998418708464    0.2930682200756454    0.37368245114430515    0.3637497921507779    0.32883685981596855    
  0.27267456720977834    0.2171637586057247    0.17912380642727094    0.16051029971691017    0.1556527310930663    
  0.1572391546859039    0.1587407534604442    0.15723913009935625    0.15565273778198027    0.1605103171147887    
  0.17912374652834062    0.21716373208318435    0.2726745460533612    0.32883690160457296    0.36374977440214645    
  0.37368245114430515    0.3736714221417792    0.38318312893174206    0.3805419370894065    0.32883686433337084    
  0.25268458946533623    0.19151100091595383    0.1556527423125031    0.13874816513723912    0.1327883495582035    
  0.13170129097065322    0.13278833603410709    0.13874812199113626    0.15565273859714576    0.19151101415469746    
  0.2526845896113205    0.32883688923810245    0.3805419132831185    0.3831830631059988    0.3736714221417792    
  0.2968483090611443    0.33072534700445577    0.3831830439902085    0.3637498298225972    0.28199836358551494    
  0.2050842303797471    0.15723915913022077    0.132788380010249    0.12252553830546609    0.12000023143956356    
  0.12252551506139991    0.13278840139239964    0.15723914209375528    0.2050842731736696    0.2819983636737671    
  0.3637498583065733    0.38318305555417864    0.3307254074700721    0.2968483090611443    0.254593093091169    
  0.2968483014532567    0.37367144898171223    0.3736824472671138    0.2930682606226589    0.21086196742952545    
  0.1587407780546824    0.13170129880237189    0.12000024278705014    0.11699383869220983    0.1200002262218376    
  0.13170128708853762    0.15874074771442828    0.21086191403642235    0.2930681677586698    0.37368242318532524    
  0.3736713944000596    0.296848333181168    0.254593093091169    0.3799795517299479    0.3847185381178097    
  0.37368245756213564    0.3213233826294029    0.25271204941653796    0.20007476645315098    0.17078021216825454    
  0.15874072325392716    0.15605270127519008    0.15615390531400022    0.15605273022515107    0.15874075269337845    
  0.17078020743272412    0.20007470615823206    0.2527120381385677    0.3213233500721876    0.3736824494363879    
  0.3847185091011683    0.3799795517299479    0.38471856533562115    0.3841867403579422    0.3637497952564153    
  0.3082785542371205    0.24262456236955882    0.1938715516170572    0.16742375652585118    0.15723911682536887    
  0.15561090382082116    0.15605272589297747    0.1556108688986563    0.1572391423481348    0.16742375102866539    
  0.19387158330613716    0.24262457383067706    0.3082785955994566    0.3637497945361993    0.3841867552574839    
  0.38471856533562115    0.373682403230446    0.3637497969832279    0.3288368998354201    0.27267456665362816    
  0.21716371246672325    0.17912380514143383    0.1605103353911877    0.15565274841062401    0.15723911855675768    
  0.15874075213313835    0.15723914503888456    0.15565274995122327    0.16051034655064286    0.1791238175817365    
  0.21716368831936952    0.2726745193132311    0.3288368951655912    0.3637498490418534    0.373682403230446    
  0.3213233033469783    0.30827854921638936    0.2726745312546081    0.22706905207481184    0.18796494898292976    
  0.1646454170540252    0.15716215426187508    0.160510345878206    0.16742376669470171    0.17078020750445158    
  0.16742376395263697    0.16051034249656582    0.15716215734222813    0.1646454293314772    0.1879649473791348    
  0.22706905151145312    0.2726745817013196    0.3082785829254812    0.3213233033469783    0.2527120386568555    
  0.2426245957812422    0.21716371886602961    0.1879649251642112    0.16658383101182533    0.15887619390820756    
  0.16464544566544445    0.17912380082206372    0.1938715301235089    0.2000747233813997    0.19387148854399716    
  0.17912376468521587    0.16464540028658953    0.15887621573618674    0.16658387515133483    0.18796492126971612    
  0.21716373277333173    0.24262458739662268    0.2527120386568555    0.20007473177147095    0.19387148360551387    
  0.17912382284923833    0.1646454238425014    0.15887619439541462    0.16658387447620657    0.18796493213992646    
  0.2171637056221218    0.24262456708634306    0.2527120349010943    0.24262457495226036    0.21716377042054374    
  0.18796491303027457    0.166583876449735    0.15887618269450285    0.16464544247229182    0.1791237833834716    
  0.19387156908136025    0.20007473177147095    0.17078021375877137    0.16742376946206924    0.160510327022246    
  0.15716216033423583    0.16464541756133086    0.1879649773651899    0.22706899992523927    0.2726745477433684    
  0.308278589913194    0.32132336517643134    0.3082785804453806    0.2726745350657157    0.22706902294819403    
  0.18796489450366646    0.16464540164010164    0.15716216370529848    0.16051033188975197    0.16742377730290597    
  0.17078021375877137    0.1587407220750531    0.1572391534209495    0.1556527140263043    0.16051033093363426    
  0.17912377714355354    0.21716373600840072    0.27267457423779007    0.3288368820246423    0.36374984233576824    
  0.3736824705646526    0.363749753118656    0.32883691023208483    0.27267454215789066    0.21716378670816994    
  0.17912380854370938    0.160510310421361    0.15565272961583035    0.15723913910046783    0.1587407220750531    
  0.15605277045835497    0.15561087979909938    0.15723916176967415    0.16742375742748417    0.1938714996828996    
  0.2426245767070381    0.3082785278803531    0.3637498437428752    0.38418675122556045    0.38471855112086    
  0.38418679244607745    0.3637498620702581    0.30827856537158743    0.24262456173285105    0.1938715293584302    
  0.16742378669277516    0.15723912002671886    0.15561093362523068    0.15605277045835497    0.156153856346789    
  0.15605274293202576    0.15874073308344852    0.1707802349718357    0.20007473384097563    0.2527120661103863    
  0.3213234002975742    0.3736824363993517    0.3847185459412649    0.37997961205636144    0.384718509251146    