#     DFTpy    
  CRYSTAL 
    
  PRIMVEC    
  1.6988346524251703    -2.942467931659009    0.0    
  1.6988346524251703    2.942467931659009    0.0    
  0.0    0.0    3.1977560366896545    
  PRIMCOORD    
  1    1    
  Si    0.0    0.0    0.0    
  BEGIN_BLOCK_DATAGRID_3D    
  3d_datagrid_density    
  BEGIN_DATAGRID_3D#0    
  15    15    15    
  0.0    0.0    0.0    
  1.6988346524251703    -2.942467931659009    0.0    
  1.6988346524251703    2.942467931659009    0.0    
  0.0    0.0    3.1977560366896545    
  0.06837680133553295    0.12403839221006381    0.2996217619315482    0.39517848935322614    0.2927042255369542    
  0.17427668787089456    0.11093135693078897    0.09290365783161136    0.1109313515321089    0.1742766785739522    
  0.29270421012187015    0.3951785364954505    0.2996217849028566    0.12403839630750066    0.06837680133553295    
  0.12403837014068249    0.12392883017284516    0.24661103581564178    0.3881532185041848    0.3447027619056597    
  0.2167595785774074    0.13043392717852997    0.09395728950047155    0.0939790132527513    0.1304078124417928    
  0.21679584516026168    0.34467294138367127    0.38808752498613097    0.24662298164857832    0.12403837014068249    
  0.29962176218672393    0.24661104174168483    0.2998454795305293    0.3880569564622107    0.36068363234353795    
  0.24276784525005685    0.14634207740709385    0.09650076270867312    0.0820743736420056    0.09650103842675566    
  0.14634136492008107    0.24275092645653035    0.36078274737712435    0.3880875300400447    0.29962176218672393    
  0.39517853179849693    0.3881532055685576    0.3880569904969154    0.39504847411135147    0.34465771236121745    
  0.2428541188813434    0.15242355801173663    0.0986892371604147    0.07552200984186314    0.07553735790108664    
  0.09867076823755254    0.15246058206034016    0.2427509522822883    0.3446729352887121    0.39517853179849693    
  0.29270423224813347    0.3447027615973888    0.3606836747758107    0.34465768224909604    0.29285335832870346    
  0.21677690054537546    0.14628762350999028    0.09868168469367748    0.07358014683017433    0.06589489858202882    
  0.07358171103030145    0.09867076302463654    0.14634137660960703    0.21679582127389646    0.29270423224813347    
  0.1742766782020069    0.21675956344916159    0.24276788052284765    0.2428540876373723    0.2167769202555533    
  0.17416660120986513    0.13041888486691994    0.09654533653503983    0.0755267299424083    0.06589991981766476    
  0.06589490267151196    0.0755373499527973    0.09650104041589616    0.13040778828060656    0.1742766782020069    
  0.11093135610670042    0.1304339196305604    0.1463420873454471    0.15242355020591986    0.14628762559765562    
  0.1304188917615944    0.11102112727417068    0.09396676158088098    0.08203720118867856    0.07552672780323429    
  0.07358014720830522    0.07552200126244785    0.08207437441415634    0.09397900633416745    0.11093135610670042    
  0.09290366438635399    0.0939572884423761    0.09650076994379421    0.09868922394756587    0.09868169120597234    
  0.0965453331286345    0.0939667539077398    0.09282416735265686    0.09396675654341888    0.09654533297269405    
  0.0986816782411574    0.09868923099984916    0.09650076530175646    0.09395728463172713    0.09290366438635399    
  0.11093135786855624    0.09397900294531414    0.08207438578395047    0.07552200585705732    0.0735801433178146    
  0.07552673384949003    0.08203720636732263    0.09396675357154952    0.11102113046403403    0.13041889658095177    
  0.14628762452707972    0.15242355382868833    0.14634208419867523    0.13043391048922148    0.11093135786855624    
  0.17427669553496145    0.13040780300496446    0.09650104001503158    0.07553735430849422    0.06589489694899955    
  0.0658999138461906    0.07552673135258675    0.09654533950408743    0.13041889649609248    0.17416660841629894    
  0.21677689400510283    0.24285407981741391    0.24276785469156878    0.2167595561699783    0.17427669553496145    
  0.29270422968656873    0.21679584112666372    0.14634139989415834    0.09867076060433215    0.07358172204065114    
  0.06589489989415988    0.07358014761745009    0.09868168621922906    0.1462876052357005    0.21677691290500772    
  0.2928533494141808    0.34465769607843577    0.3606836272312308    0.3447027914107979    0.29270422968656873    
  0.3951785212756618    0.3446729354693793    0.2427509924710439    0.1524605729488889    0.09867077426103762    
  0.07553736521772018    0.07552201155474694    0.09868924404540592    0.1524235617415233    0.2428541136819923    
  0.3446576955123174    0.39504849661308633    0.3880569693385195    0.38815320447690627    0.3951785212756618    
  0.2996217634269344    0.38808755295716024    0.3607827797429904    0.24275095181831596    0.1463413765995371    
  0.09650103417857077    0.08207437122559731    0.09650076015154703    0.14634207381204273    0.24276785012404437    
  0.360683606352074    0.38805695503576976    0.2998454609978516    0.24661102206876429    0.2996217634269344    
  0.12403836991671473    0.24662298799721252    0.3880875847388318    0.3446729218561293    0.21679583328919966    
  0.1304078217831451    0.09397901017084213    0.09395729605922871    0.13043392023839503    0.2167595877210839    
  0.3447027996460108    0.388153197904589    0.24661102827514778    0.12392882652757899    0.12403836991671473    
  0.06837680133553295    0.12403839221006381    0.2996217619315482    0.39517848935322614    0.2927042255369542    
  0.17427668787089456    0.11093135693078897    0.09290365783161136    0.1109313515321089    0.1742766785739522    
  0.29270421012187015    0.3951785364954505    0.2996217849028566    0.12403839630750066    0.06837680133553295    
  0.11643908511683848    0.1783600145730735    0.336303357830058    0.3882119156652576    0.2768395345612662    
  0.16499514181036476    0.10602370151606245    0.08916098786729616    0.10602369942372047    0.16499515625992997    
  0.27683951187750333    0.38821192920728903    0.3363033927546011    0.17835998824331628    0.11643908511683848    
  0.17835997440036216    0.17822709149434038    0.29319491915957946    0.3942650810468102    0.32850718342334906    
  0.2047330652646121    0.12420436629280857    0.09017595023643893    0.09019530268956612    0.12418129404843266    
  0.20476481498978172    0.3284765515176966    0.394230366741475    0.29318238302772126    0.17835997440036216    
  0.3363033658486728    0.29319488848435454    0.3365098368501502    0.39418826836890736    0.34539761637064453    
  0.22926466114615215    0.13901821194746658    0.09256873283855785    0.0790451009473767    0.09256971420248661    
  0.13901559336004998    0.22925786473499465    0.34545836061162816    0.39423037011576917    0.3363033658486728    
  0.3882119863569464    0.39426508223741613    0.39418831133953597    0.3880984367777236    0.32847517105149726    
  0.2293266619910252    0.14468620605082316    0.09456075061169993    0.07287670004630055    0.07288605555993016    
  0.0945495215379012    0.14470950579555955    0.22925789109352043    0.3284765458303634    0.3882119863569464    
  0.2768395161328969    0.3285071710446097    0.3453976471800545    0.32847515809386757    0.27696056309571565    
  0.2047455058575133    0.1389791322121042    0.0945564389289326    0.07102448628886132    0.06380581636444083    
  0.07102540218848169    0.09454951347048415    0.13901560650757927    0.20476478643397358    0.2768395161328969    
  0.16499514899770942    0.20473307002116065    0.2292646737150011    0.22932662869277795    0.2047455202486286    
  0.1649060627416891    0.12419348000002446    0.0925994235042954    0.0728795474541167    0.0638088265209371    
  0.06380581888825956    0.07288605024591223    0.09256971958075026    0.12418126641341654    0.16499514899770942    
  0.10602370373029221    0.12420436290349814    0.13901822608120787    0.14468618889122814    0.13897913504323237    
  0.12419349117853379    0.1060949343808206    0.0901841657686527    0.0790197038832085    0.07287955621252226    
  0.07102448516479608    0.07287669682208119    0.07904510589853184    0.09019530073355121    0.10602370373029221    
  0.08916099321987891    0.090175946310146    0.09256873892194034    0.09456073762667831    0.09455644779508163    
  0.09259942290718935    0.09018416659266194    0.0890978114463577    0.09018415450643691    0.09259942310576141    
  0.09455644311609751    0.09456074408522229    0.09256873775504185    0.09017594113770111    0.08916099321987891    
  0.10602370065333154    0.09019530243331246    0.07904510713164296    0.07287668999978529    0.0710244906257212    
  0.0728795535581802    0.07901970661769264    0.09018415734895605    0.1060949259436876    0.1241934794221863    
  0.13897912672413879    0.14468619064745655    0.1390182079485102    0.12420435293144581    0.10602370065333154    
  0.1649951532314278    0.12418127237654415    0.09256971861590788    0.07288605774263707    0.06380581501185129    
  0.06380882847954121    0.0728795527845465    0.09259942712735869    0.12419348662833565    0.1649060619676832    
  0.20474549011133603    0.22932662469201295    0.229264655596173    0.20473305737817188    0.1649951532314278    
  0.2768395361982239    0.20476478459890038    0.1390156189808031    0.09454950721277376    0.0710254139078961    
  0.06380581266486728    0.07102448145953578    0.09455645069967834    0.13897911839600927    0.2047454948801226    
  0.2769605443685264    0.3284751808416904    0.34539760924975876    0.3285071724868928    0.2768395361982239    
  0.38821192351530215    0.3284765560123724    0.22925790259152268    0.1447094934721634    0.09454952471318907    
  0.07288606233426197    0.0728767062515996    0.09456075477951463    0.1446862142219016    0.22932666149155603    
  0.3284751689651437    0.388098455294283    0.39418824765819366    0.39426507159061197    0.38821192351530215    
  0.33630336800004995    0.394230366118068    0.34545836067069857    0.2292578638785971    0.13901560647113684    
  0.09256970977972906    0.07904509756133236    0.09256873432757588    0.13901819550122027    0.22926464662653684    
  0.3453976256505932    0.39418825131445423    0.3365098237660125    0.2931949000558444    0.33630336800004995    
  0.17835998704170944    0.2931824342559478    0.39423041352636706    0.32847655116566865    0.2047647990083323    
  0.12418128790665008    0.09019530518128599    0.09017595481158942    0.12420436020723144    0.2047330803512631    
  0.3285071994356709    0.39426505185695654    0.29319490310780866    0.17822710185485463    0.17835998704170944    
  0.11643908511683848    0.1783600145730735    0.336303357830058    0.3882119156652576    0.2768395345612662    
  0.16499514181036476    0.10602370151606245    0.08916098786729616    0.10602369942372047    0.16499515625992997    
  0.27683951187750333    0.38821192920728903    0.3363033927546011    0.17835998824331628    0.11643908511683848    
  0.2733817684367798    0.32068577356355243    0.3904202152228884    0.34995483554062623    0.2333071413806039    
  0.14082080343582984    0.09318011610174429    0.07931456977026723    0.09318010867430424    0.14082080266415983    
  0.23330713044304663    0.3499548372464394    0.39042025984927486    0.320685751744338    0.2733817684367798    
  0.3206857625769994    0.3205892678705616    0.3784563820956801    0.3788076534414279    0.28004965295872664    
  0.173073586096476    0.10789367659167    0.08019139647278833    0.08019882598010844    0.10788486777179071    
  0.1730851136192259    0.2800364872370332    0.37880387602880033    0.3784335309606276    0.3206857625769994    
  0.39042021409029    0.37845637106859487    0.3905237963865549    0.3787749218332974    0.29692892717605907    
  0.19326425822906937    0.11981455193180397    0.08214088451350009    0.07100909580038277    0.08214188963300535    
  0.11981240440294179    0.19326613918157803    0.29693983768579946    0.37880383988124555    0.39042021409029    
  0.34995486756893507    0.37880766347418887    0.3787749705368921    0.3499063695101181    0.28004028827042243    
  0.19328643365923448    0.12439188407380382    0.0836924220048489    0.06589253058613122    0.06589512728563628    
  0.08368880134606528    0.12439876286302064    0.19326614319164412    0.28003646404957966    0.34995486756893507    
  0.2333071429891987    0.2800496383189219    0.29692896483758485    0.2800402702051493    0.2333562299332573    
  0.1730730175331134    0.11980330958238039    0.08369014223370567    0.06433135720958935    0.05835623036299524    
  0.06433181010622986    0.08368880238966847    0.11981241669214072    0.17308510277066586    0.2333071429891987    
  0.1408208019091589    0.17307357040423574    0.1932642834662578    0.19328641195411492    0.17307305028942943    
  0.1407891484157446    0.10789023095796958    0.08215047738635822    0.06589373374304139    0.05835695794366153    
  0.058356238728966586    0.06589511884368285    0.08214188852303708    0.10788485039355915    0.1408208019091589    
  0.0931801173550008    0.10789367645067499    0.11981456498775776    0.12439186965518406    0.11980332196419254    
  0.10789023389496295    0.09320618817313704    0.08019499955060765    0.07100058143258568    0.06589373629961871    
  0.06433135468447095    0.06589252776251305    0.0710091070911685    0.08019882241830448    0.0931801173550008    
  0.07931457484909638    0.08019139267512011    0.08214089886787668    0.08369240680958213    0.0836901537832234    
  0.08215047400572303    0.08019499775387162    0.0792900568287688    0.08019498975305683    0.08215047424808651    
  0.08369013665935789    0.08369241195666847    0.08214089428096376    0.08019138656562405    0.07931457484909638    
  0.09318011097362423    0.08019882056497331    0.07100910443488755    0.06589252428421687    0.06433135327267835    
  0.0658937343600799    0.07100058407974223    0.08019499689349384    0.09320618311247283    0.10789022925531049    
  0.11980331474460099    0.12439186862965501    0.11981454361931365    0.10789366942620533    0.09318011097362423    
  0.14082080286336496    0.10788485230647167    0.08214189045237462    0.06589512973821748    0.05835623333493291    
  0.058356962149740156    0.06589373638799874    0.08215047183403028    0.10789022609862792    0.14078916358304458    
  0.17307303710878397    0.19328640569124914    0.1932642770110271    0.17307357583901636    0.14082080286336496    
  0.23330715410735375    0.1730851024568885    0.11981242683856204    0.08368879359301433    0.06433181597900207    
  0.058356228265161014    0.06433135189145395    0.08369014610685888    0.11980330626611302    0.17307303256646403    
  0.23335622723113505    0.2800402896373071    0.29692894787067303    0.280049657161386    0.23330715410735375    
  0.3499548612283437    0.2800364743088445    0.19326618341968668    0.12439875148030967    0.08368880972978623    
  0.06589512972340923    0.06589253813604332    0.08369242790148868    0.12439188764408582    0.19328642122303305    
  0.28004030369018923    0.34990638425117343    0.3787749223625657    0.3788076391948143    0.3499548612283437    
  0.3904202200685075    0.3788038519400665    0.29693985707274684    0.19326613958959807    0.11981241508287788    
  0.08214187958602497    0.07100909605123897    0.08214088420700917    0.11981454341480056    0.19326427337558005    
  0.296928933326759    0.3787748999491215    0.39052382187901186    0.378456391261815    0.3904202200685075    
  0.320685732484145    0.37843358674887495    0.37880392064124946    0.28003645087984663    0.17308511844667934    
  0.10788487732687567    0.08019882469693553    0.08019140331696226    0.10789367136993544    0.17307359217628368    
  0.28004965291009876    0.37880761852318184    0.37845640751152193    0.32058927258940595    0.320685732484145    
  0.2733817684367798    0.32068577356355243    0.3904202152228884    0.34995483554062623    0.2333071413806039    
  0.14082080343582984    0.09318011610174429    0.07931456977026723    0.09318010867430424    0.14082080266415983    
  0.23330713044304663    0.3499548372464394    0.39042025984927486    0.320685751744338    0.2733817684367798    
  0.3892764606343525    0.38927154786064827    0.35694126801414455    0.27102896512200547    0.17615111305507375    
  0.1105794430507649    0.07677142471969134    0.06666751147431677    0.07677142178068297    0.1105794554002028    
  0.17615110571277764    0.2710289744314465    0.3569412871458074    0.3892715157734939    0.3892764606343525    
  0.3892714927781273    0.3892559487883207    0.37131082236436963    0.3053402300020651    0.21100511519034273    
  0.13323057152219359    0.08725394081958733    0.06730866588442343    0.0673090379933806    0.08725299842286016    
  0.13323064944642096    0.21100510059787167    0.3053425096592801    0.3713035367867046    0.3892714927781273    
  0.35694127319014135    0.371310800147293    0.35695305011294415    0.30533852663679273    0.22432302648704014    
  0.14749758688065073    0.0956712350431282    0.0686998129753469    0.06056554170587008    0.06870052798704267    
  0.09567162907144902    0.1474982590955236    0.2243196037918216    0.30534250694608267    0.35694127319014135    
  0.2710290188274357    0.30534023309319874    0.3053385670232952    0.27102345486711515    0.21100399827232713    
  0.14749869506619456    0.0989383108628627    0.0698137566180905    0.0568057581899301    0.05680566805333207    
  0.0698122814052486    0.0989391354504752    0.1474982749545977    0.21100512187029621    0.2710290188274357    
  0.17615110448814544    0.21100508751657115    0.22432303557170127    0.21100396235427335    0.17615808920193546    
  0.13322882650632883    0.09567261266471878    0.06981180976003332    0.055649268478694135    0.05122397357896099    
  0.055650137366643926    0.06981227887267871    0.09567164085265258    0.13323062819444173    0.17615110448814544    
  0.11057945392915772    0.13323056286085652    0.1474976162189901    0.14749868461277868    0.133228845876619    
  0.11057664250141766    0.08725278110285443    0.0687005804695573    0.0568060111357795    0.05122453380210047    
  0.051223979096047687    0.05680566173683265    0.06870053555251568    0.08725298855967366    0.11057945392915772    
  0.0767714291740462    0.08725394626090527    0.0956712484971086    0.0989382959972224    0.09567260809246252    
  0.08725278246480049    0.07677458368502987    0.06730925179427164    0.06056475956177773    0.056806012681946044    
  0.05564926636668004    0.05680575449431891    0.06056555168759689    0.06730903145220399    0.0767714291740462    
  0.06666751733388195    0.06730866536129894    0.06869982225922744    0.06981374184048396    0.06981182138405687    
  0.06870057578841875    0.06730924997075452    0.06666401220667253    0.06730924264196958    0.06870057610069635    
  0.06981182062281518    0.06981374790059719    0.06869982219375688    0.06730866187842088    0.06666751733388195    
  0.07677143369337076    0.06730903169674024    0.060565552479483316    0.05680575037576791    0.05564926927335735    
  0.056806016467052044    0.0605647602699537    0.06730925114030697    0.07677457400229507    0.08725278282709384    
  0.09567260153529937    0.09893830118391192    0.09567123585650597    0.08725393045253337    0.07677143369337076    
  0.11057945350101629    0.08725298738233633    0.06870052689126228    0.056805667495737656    0.051223972803669665    
  0.051224533552113705    0.056806019897918    0.06870057645608607    0.08725277537716597    0.11057664638934735    
  0.13322883015855402    0.14749867928861488    0.14749761077823878    0.13323056004547265    0.11057945350101629    
  0.17615112679828296    0.13323063175929975    0.09567165545990497    0.06981227570685758    0.05565014210394383    
  0.05122396795766506    0.055649264754603835    0.06981181768815609    0.09567260647773906    0.13322882753612492    
  0.1761580653843774    0.21100397531601747    0.224323029119326    0.21100509119613464    0.17615112679828296    
  0.27102901317031247    0.2110050929711354    0.1474983017198651    0.0989391275404911    0.06981228606853172    
  0.05680567249411382    0.05680575980553766    0.06981375728980205    0.09893831486734773    0.1474986838806895    
  0.21100399802339037    0.27102347468916754    0.30533853474973743    0.30534021367857134    0.27102901317031247    
  0.3569412698541135    0.30534250138877683    0.22431961918907473    0.14749826610986655    0.09567163636716636    
  0.06870052163027615    0.06056554302387133    0.06869980993398676    0.09567123382530235    0.1474976021521874    
  0.22432302888055955    0.3053385388528934    0.3569530525867446    0.37131084425096555    0.3569412698541135    
  0.38927150601724525    0.3713035628446642    0.30534257382651414    0.21100509376576568    0.13323063598845955    
  0.08725299983168394    0.06730903737407855    0.0673086680624065    0.08725394235990078    0.13323057469426897    
  0.211005088891894    0.3053402175653723    0.3713108442740585    0.38925597070164164    0.38927150601724525    
  0.3892764606343525    0.38927154786064827    0.35694126801414455    0.27102896512200547    0.17615111305507375    
  0.1105794430507649    0.07677142471969134    0.06666751147431677    0.07677142178068297    0.1105794554002028    
  0.17615110571277764    0.2710289744314465    0.3569412871458074    0.3892715157734939    0.3892764606343525    
  0.3211079503715049    0.3035778841617201    0.25268284898060844    0.18455900818514523    0.12381976134066129    
  0.08291214201621697    0.06121366266238436    0.05457095914714269    0.06121365925802539    0.08291215289452056    
  0.12381975720701267    0.18455902053910317    0.25268286412290836    0.3035778689666597    0.3211079503715049    
  0.30357784823175116    0.3035805938798061    0.26897986102133215    0.20885490135920026    0.14556059766979973    
  0.09714889518114574    0.06801067053482628    0.054984860479244835    0.05498479489911909    0.06801083377989149    
  0.09714772319968142    0.14556197149665345    0.20885514432988747    0.2689803398987266    0.30357784823175116    
  0.25268284220847415    0.2689798437161404    0.25268117821133274    0.2088566619531007    0.15397790681651877    
  0.10608457668505493    0.0734680015799843    0.05590489085698365    0.05049823623546125    0.05590465387360354    
  0.0734690516003778    0.10608436148983898    0.15397646564155332    0.20885513091703717    0.25268284220847415    
  0.18455904595709444    0.20885489269041024    0.20885669869802997    0.18455814930211062    0.14556126266740044    
  0.10608297493367844    0.07561701980392223    0.056664939236007746    0.047958788550737104    0.047958413789094476    
  0.056664879287987184    0.07561614375493654    0.106084372347343    0.14556199238403658    0.18455904595709444    
  0.12381976778168487    0.1455605853782092    0.15397793446369298    0.14556124439290477    0.12381984606485598    
  0.09714885459832753    0.07346895189975251    0.05666518231361266    0.04715735322896284    0.04413349618997342    
  0.047158127230819157    0.056664876796596216    0.0734690626521766    0.09714770385302894    0.12381976778168487    
  0.08291215277884563    0.09714888434144595    0.10608459351221491    0.10608296510131084    0.09714885741328193    
  0.0829116769415188    0.06801059546538428    0.05590444778839965    0.047957924671637855    0.04413500624591507    
  0.04413350010951018    0.047958411049784884    0.05590465558956708    0.0680108259838144    0.08291215277884563    
  0.06121366512109908    0.0680106756326847    0.07346801711219973    0.07561701020042456    0.07346894618492647    
  0.06801059827651648    0.06121426335855989    0.05498434130558569    0.050499504017809414    0.04795792780646709    
  0.04715734638173154    0.0479587849473976    0.05049824301496993    0.054984789789554706    0.06121366512109908    
  0.05457096318596367    0.054984856547366685    0.05590489518409618    0.05666492795816251    0.05666518850212272    
  0.055904447285027824    0.05498433695245036    0.05457125414666933    0.054984328269793055    0.055904448421058434    
  0.05666518766326707    0.05666493166390087    0.05590489882457134    0.054984853993873255    0.05457096318596367    
  0.06121367117330168    0.05498478932811392    0.05049824361904099    0.04795878185908526    0.04715735680775522    
  0.04795792738063775    0.05049950531077822    0.054984337177475216    0.06121425396003819    0.06801059735940158    
  0.07346893990709624    0.0756170143849757    0.07346800327982118    0.06801066272067029    0.06121367117330168    
  0.08291215354441937    0.06801082203217472    0.055904651293422744    0.04795841758568784    0.04413349737891598    
  0.04413500352556395    0.047957927309407844    0.055904445410872125    0.06801059366888226    0.08291168692001806    
  0.09714884241289358    0.10608295929870548    0.10608459931124395    0.09714888926033441    0.08291215354441937    
  0.12381977607970807    0.09714770943864985    0.07346907461935495    0.05666487081888042    0.0471581294373198    
  0.04413349177041127    0.04715734761313141    0.05666518795126019    0.07346894499964154    0.09714885331650375    
  0.12381981977744798    0.1455612680915792    0.15397792000595747    0.14556057802916106    0.12381977607970807    
  0.18455905186804208    0.14556196862783283    0.1060843986823615    0.07561613097434963    0.056664881083659566    
  0.04795842230775633    0.047958788504618564    0.056664943033068176    0.07561703055570304    0.1060829664207694    
  0.1455612745617142    0.1845581574095132    0.20885668006100036    0.20885489213662603    0.18455905186804208    
  0.25268284937561625    0.20885513515228465    0.15397647295182004    0.10608436274994576    0.07346905869824305    
  0.055904646601260426    0.05049823741880192    0.05590488877280425    0.07346800537352546    0.10608458553904034    
  0.15397791424636287    0.2088566680480276    0.2526811673552002    0.26897986499619586    0.25268284937561625    
  0.30357784420846995    0.26898036526623065    0.2088551842401209    0.1455619668746227    0.09714771868055348    
  0.06801083717164665    0.05498479586122154    0.05498485982248193    0.0680106718735488    0.09714889059967304    
  0.14556058334947186    0.20885488695523152    0.26897987372568427    0.3035806211327795    0.30357784420846995    
  0.3211079503715049    0.3035778841617201    0.25268284898060844    0.18455900818514523    0.12381976134066129    
  0.08291214201621697    0.06121366266238436    0.05457095914714269    0.06121365925802539    0.08291215289452056    
  0.12381975720701267    0.18455902053910317    0.25268286412290836    0.3035778689666597    0.3211079503715049    
  0.20708320236138347    0.19446359970941363    0.16170015224032294    0.12175727503759967    0.08689968169741098    
  0.06270271078403943    0.04937211810943228    0.04521784943063975    0.04937211254944043    0.06270270803724103    
  0.08689967733235228    0.12175727967221145    0.16170019893295334    0.19446359014544887    0.20708320236138347    
  0.19446361095179474    0.194464538053501    0.1717776201510728    0.1357768403353172    0.09945816214168353    
  0.07127320030989293    0.05361048529845775    0.04547807531217756    0.045477932973809664    0.05361025651040978    
  0.07127370362859872    0.09945775967925521    0.13577732246869947    0.17177703315810336    0.19446361095179474    
  0.16170014514540704    0.17177759701154918    0.1616990902991966    0.13577697185090223    0.10430637634398059    
  0.07661236800323502    0.057034684882889014    0.0460701523963165    0.042631649743883206    0.046070607338538114    
  0.05703424999835856    0.07661245045139814    0.10430592644458518    0.13577730795200124    0.16170014514540704    
  0.12175729556666565    0.13577684255058992    0.1357769784905897    0.12175810884476701    0.09945835822476813    
  0.0766117814952396    0.05838636065857244    0.0465645886048269    0.040973889730851    0.04097319527341655    
  0.04656497593580179    0.05838612832479256    0.07661245714955031    0.09945775039960247    0.12175729556666565    
  0.08689968403332396    0.09945815761415307    0.10430639990252986    0.09945834655000783    0.08689874445090219    
  0.0712734604938132    0.057034732382954825    0.046564852350231466    0.040431902394402905    0.03844489135019328    
  0.040431855947435626    0.046564971520235296    0.057034259020790436    0.07127370121729179    0.08689968403332396    
  0.06270271043448503    0.0712731920558186    0.07661237234471206    0.07661176896362346    0.07127347964723986    
  0.06270313921075621    0.053610745135179064    0.04606977970070486    0.04097413690806309    0.03844372384088939    
  0.03844489429887015    0.04097318819112815    0.04607061015811308    0.053610242016213276    0.06270271043448503    
  0.04937212287301117    0.0536104887112339    0.05703469376450904    0.058386348679695416    0.05703473655789864    
  0.05361074997464252    0.049371164000444306    0.045478280963953004    0.042631432144199365    0.04097414136311265    
  0.04043189337907258    0.0409738882825082    0.04263165583635796    0.04547793219557089    0.04937212287301117    
  0.045217852301587265    0.04547807178612678    0.04607015943234081    0.04656457369534173    0.046564853100103845    
  0.04606977974215022    0.04547827441123367    0.04521828387634967    0.04547827232006386    0.046069779161084144    
  0.04656484581574361    0.04656458076619975    0.04607015762005474    0.04547806827775963    0.045217852301587265    
  0.04937211819183558    0.045477927091635666    0.04263165846877575    0.040973883491472206    0.04043189952822391    
  0.040974139293289906    0.04263143076747361    0.04547827939570326    0.04937116069272322    0.05361074632746979    
  0.05703473491385799    0.058386348756331835    0.05703467810045473    0.05361048010860961    0.04937211819183558    