#     DFTpy    
  CRYSTAL 
    
  PRIMVEC    
  5.018068965517242    0.0    0.0    
  0.0    5.018068965517242    0.0    
  0.0    0.0    5.018068965517242    
  PRIMCOORD    
  8    1    
  Si    0.0    0.0    0.0    
  Si    1.2545172413793104    1.2545172413793104    1.2545172413793104    
  Si    0.0    2.509034482758621    2.509034482758621    
  Si    1.2545172413793104    3.763551724137931    3.763551724137931    
  Si    2.509034482758621    0.0    2.509034482758621    
  Si    3.763551724137931    1.2545172413793104    3.763551724137931    
  Si    2.509034482758621    2.509034482758621    0.0    
  Si    3.763551724137931    3.763551724137931    1.2545172413793104    
  BEGIN_BLOCK_DATAGRID_3D    
  3d_datagrid_density    
  BEGIN_DATAGRID_3D#0    
  23    23    23    
  0.0    0.0    0.0    
  5.018068965517242    0.0    0.0    
  0.0    5.018068965517242    0.0    
  0.0    0.0    5.018068965517242    
  0.058006477988282526    0.10415080269219064    0.2710527491243296    0.433469778541785    0.4019371998681693    
  0.28119058766054844    0.1821048731858887    0.11999739274667305    0.08413342393320598    0.06454229934914052    
  0.05491492506127632    0.05200495663089805    0.05491493216160117    0.0645423028674093    0.08413343006249584    
  0.11999738784933084    0.1821048620960285    0.2811906468795513    0.4019371888515253    0.4334697759040187    
  0.27105280633193596    0.10415077761713817    0.058006477988282526    0.10415075184573125    0.15930633850153036    
  0.3246593312814068    0.450941644942314    0.39990464450800756    0.28021967998191905    0.18414667243739602    
  0.12324043028638113    0.08759675796242386    0.06783478729188525    0.057937558094551006    0.05491492691191287    
  0.05793754418145604    0.067834813092771    0.08759675796593258    0.12324044930958106    0.184146687184123    
  0.2802197328638591    0.39990467095539545    0.4509416374829028    0.32465938226961233    0.15930630801265452    
  0.10415075184573125    0.2710527451361184    0.3246593284177741    0.4353870572879008    0.4675994257467425    
  0.3854441090287117    0.27550363594283006    0.1896421732124072    0.13300824240636377    0.09837001468470875    
  0.07832807766473342    0.06783482237821177    0.06454227224852421    0.0678348163569854    0.07832806991607369    
  0.09837004481747531    0.1330082052653941    0.18964216532517233    0.27550363276546874    0.3854440844994142    
  0.4675995187151407    0.43538707340799604    0.3246592794504313    0.2710527451361184    0.433469832077075    
  0.4509416605094009    0.46759944945379983    0.431251285974308    0.350553959039796    0.26550064973768656    
  0.1975537156141409    0.14949673800589466    0.117910788614993    0.09837003279897945    0.08759679380757339    
  0.08413342731763619    0.08759672272208825    0.09837003655713648    0.11791078397938909    0.14949672526000843    
  0.19755370081402526    0.26550070132973813    0.35055398371881646    0.4312513146630107    0.46759949441956966    
  0.45094158876799867    0.433469832077075    0.40193715711327477    0.3999046941159784    0.3854440576684532    
  0.35055386448373704    0.301799783277662    0.2511709235932453    0.20746908215367738    0.17377610962422188    
  0.14949666473168446    0.13300820376458744    0.12324043090193117    0.11999736404880407    0.1232404346670858    
  0.1330082369906791    0.14949668938243083    0.17377606921723238    0.20746909011803713    0.2511709818147768    
  0.30179977370326566    0.3505539727082765    0.3854440319508405    0.3999046647423494    0.40193715711327477    
  0.28119060329209855    0.2802197470293745    0.275503671021949    0.2655006962657634    0.251171039666936    
  0.23481225107451278    0.2197255474401992    0.20746911634545298    0.19755367495274953    0.18964213497616977    
  0.18414677145440111    0.18210487483847315    0.18414667287325517    0.18964218549113274    0.19755371474984815    
  0.20746911400518595    0.21972559323376623    0.2348123483136702    0.25117097458796234    0.2655006605582785    
  0.2755036780387733    0.28021970363055054    0.28119060329209855    0.18210487661011637    0.18414678851310917    
  0.18964214766527468    0.19755368043951316    0.20746912363940231    0.2197255032711512    0.23481234041313945    
  0.2511710181637518    0.2655006760579258    0.27550366156687156    0.28021974679839773    0.2811906478830599    
  0.28021967855867785    0.2755037039612452    0.2655007080932949    0.2511709785790174    0.23481231552397536    
  0.2197256118934889    0.20746908314343984    0.19755371174550196    0.1896421284678335    0.18414672631912563    
  0.18210487661011637    0.11999736078899766    0.12324043748053026    0.13300820677313627    0.14949670016337913    
  0.17377608947083237    0.20746905001028432    0.25117098989052916    0.3017998109657982    0.3505538913031014    
  0.3854440164638139    0.39990468777955723    0.40193717451279304    0.3999046779665368    0.38544409508530586    
  0.3505538538434703    0.30179972531920574    0.251170966918243    0.20746911985812097    0.17377606282177185    
  0.1494966835679881    0.13300821080853778    0.12324041265749629    0.11999736078899766    0.08413341122252789    
  0.08759677807707211    0.09837002698752942    0.11791076707843502    0.14949671417022092    0.19755367101106341    
  0.26550067829664403    0.3505539796208974    0.4312513069858095    0.4675994163872439    0.4509417041064499    
  0.43346973189005167    0.45094158201270057    0.46759953456628917    0.43125130428426744    0.3505539611814462    
  0.2655007262248825    0.19755372374297733    0.14949672815350562    0.1179107806105553    0.09837005388691776    
  0.08759677134577981    0.08413341122252789    0.06454227504512271    0.06783481730224022    0.07832808132243972    
  0.0983700295378453    0.13300825276494288    0.1896421452800394    0.275503710951751    0.38544411014232427    
  0.46759941181383996    0.43538705723098586    0.32465937491135294    0.2710527468838684    0.3246593128506907    
  0.4353871270503199    0.46759946636999283    0.3854441130824453    0.2755037078028034    0.1896421429231603    
  0.13300821506879315    0.09837006169561113    0.07832804963128295    0.06783479981843478    0.06454227504512271    
  0.05491490646737348    0.05793754225701156    0.0678348027354864    0.08759677031316998    0.12324043584926242    
  0.18414667796309794    0.28021972470590584    0.3999046370336474    0.4509415961482344    0.3246592619110157    
  0.15930635398667312    0.1041507628891608    0.15930632156567415    0.32465934110576855    0.4509415996211541    
  0.3999046745386176    0.2802196613614237    0.18414671801404078    0.12324043406929813    0.08759677981157446    
  0.06783481108488704    0.05793752715649241    0.05491490646737348    0.05200494501458632    0.054914957813728765    
  0.0645422816537974    0.08413341166671415    0.1199973653812006    0.18210485844531626    0.2811906264279823    
  0.40193724921003854    0.43346981579941624    0.27105278438566355    0.10415078979901589    0.0580064920749431    
  0.10415076795995051    0.27105280212818117    0.4334698694958024    0.4019372038561384    0.28119058188727203    
  0.18210490977506372    0.11999735912770576    0.08413339461738611    0.06454229793222517    0.05491492989178708    
  0.05200494501458632    0.05491491623148929    0.057937544712391036    0.06783480788911897    0.08759677709683136    
  0.12324041954382205    0.18414667655534842    0.2802196936464316    0.39990470026473607    0.45094156872188007    
  0.32465927753240076    0.15930630356889655    0.10415077735920335    0.1593062964533595    0.3246593279115613    
  0.45094163697554296    0.3999046824760052    0.2802196426643957    0.1841467281722712    0.1232403974972102    
  0.08759677519595949    0.06783483776376513    0.057937554504815726    0.05491491623148929    0.064542270954217    
  0.06783480305130558    0.07832806862726559    0.09837002450179184    0.13300824985959575    0.1896421242373387    
  0.275503706255561    0.38544409139211433    0.4675994435829703    0.43538710303679246    0.32465934424834575    
  0.2710527856735574    0.32465934621544434    0.4353870775044108    0.46759948789933853    0.38544408930411683    
  0.2755036964390469    0.18964217081715817    0.13300820320550255    0.09837004995466657    0.07832804991078436    
  0.06783481084431002    0.064542270954217    0.08413342521182206    0.08759678327762653    0.09837002389759483    
  0.1179107609846738    0.1494967345077046    0.19755363954267122    0.26550079158833256    0.3505539654502738    
  0.43125133014912825    0.4675995152752947    0.45094162865956183    0.4334697740345425    0.4509415833314566    
  0.46759950572579634    0.4312512733108193    0.35055390339567355    0.26550072311199446    0.1975537110460832    
  0.149496758898963    0.11791079416479132    0.09837003370407897    0.08759676044653425    0.08413342521182206    
  0.11999733005405079    0.12324044804196486    0.1330081881343893    0.14949667522949925    0.17377610583953085    
  0.2074690728462774    0.25117096365508756    0.30179979787232364    0.35055390323172064    0.38544401237406917    
  0.39990468083506503    0.40193719841351094    0.3999046446340061    0.38544411574570314    0.35055384387385874    
  0.3017997470357807    0.25117093640739707    0.20746909896533586    0.1737760852026468    0.14949670189666187    
  0.13300822523400319    0.12324043279532412    0.11999733005405079    0.18210487731401143    0.18414675074358575    
  0.1896421510547693    0.19755370438313094    0.20746913541926462    0.21972554361444038    0.23481229929789324    
  0.25117101354726806    0.2655006541032099    0.27550369804497404    0.2802197764354007    0.28119061281229146    
  0.2802196900095865    0.2755037318511745    0.2655006930995439    0.25117099499296136    0.23481229358896166    
  0.21972559510524922    0.2074691009243211    0.1975536970898225    0.18964213330335944    0.18414671583065848    
  0.18210487731401143    0.28119061141333596    0.28021975909822316    0.27550367943817317    0.2655007132827531    
  0.25117105338750234    0.23481226901011898    0.21972558445857684    0.20746912718803723    0.1975536775238315    
  0.18964217717050078    0.18414674876979328    0.18210486983251528    0.18414668752051444    0.18964215291097    
  0.19755365497264404    0.207469102015774    0.21972556436307822    0.23481234767365086    0.2511709314912788    
  0.26550071015350757    0.2755037008370185    0.28021969646327666    0.28119061141333596    0.40193718225936376    
  0.3999046503025948    0.3854440609019784    0.35055388471328625    0.30179975146696897    0.25117088292499423    
  0.20746911839958782    0.17377611284764152    0.14949664531267629    0.13300817319573877    0.1232404444612636    
  0.1199973351749522    0.12324041231358705    0.133008249419498    0.14949669680798564    0.17377607390015123    
  0.20746909366865499    0.2511710023307218    0.301799764531537    0.3505538798699218    0.38544405580574914    
  0.3999046354007717    0.40193718225936376    0.4334698078939279    0.45094160522605203    0.4675994551898732    
  0.4312512473082008    0.3505539329951458    0.2655007088158174    0.19755369829492778    0.14949675280046382    
  0.11791077290390153    0.09837003013156119    0.08759679250621057    0.08413341360166447    0.08759676463713255    
  0.09837007658548008    0.11791076028228892    0.14949671776643894    0.19755369302898726    0.26550068744263944    
  0.35055392806764135    0.4312513453402034    0.46759946182997547    0.45094155150775833    0.4334698078939279    
  0.2710527639713767    0.32465930661457854    0.43538709611818355    0.4675994802292239    0.38544407918933815    
  0.275503640558603    0.18964212950386988    0.13300824241423162    0.09837003343667712    0.07832806248623242    
  0.06783483978614507    0.06454228712913261    0.06783480550204803    0.07832805836517952    0.09837003849345789    
  0.13300822987740618    0.18964213802570049    0.2755036799875345    0.38544406198761344    0.46759949558333763    
  0.4353870834973606    0.3246592886111923    0.2710527639713767    0.10415076729391158    0.1593063282368838    
  0.32465928701587343    0.45094162613260425    0.3999047055894558    0.280219700598097    0.18414670821217927    
  0.12324041998054595    0.08759675235270786    0.06783480203072825    0.05793756361157986    0.054914910492328245    
  0.057937541193700155    0.0678348197887936    0.08759676393856418    0.1232404267590988    0.18414668710590384    
  0.2802197296889747    0.3999046629329335    0.45094161678662364    0.32465932615106907    0.1593062749021422    
  0.10415076729391158    0.058006477988282526    0.10415080269219064    0.2710527491243296    0.433469778541785    
  0.4019371998681693    0.28119058766054844    0.1821048731858887    0.11999739274667305    0.08413342393320598    
  0.06454229934914052    0.05491492506127632    0.05200495663089805    0.05491493216160117    0.0645423028674093    
  0.08413343006249584    0.11999738784933084    0.1821048620960285    0.2811906468795513    0.4019371888515253    
  0.4334697759040187    0.27105280633193596    0.10415077761713817    0.058006477988282526    0.10415076296740959    
  0.15930636041922802    0.32465927892948476    0.4509415526139729    0.3999046912170807    0.2802196568690707    
  0.18414670696152957    0.12324044327817246    0.0875967589569082    0.0678348024249753    0.05793753625069858    
  0.05491492512302518    0.05793754636873139    0.06783480203746046    0.0875967576897723    0.12324043349979828    
  0.1841467002825285    0.28021974162106067    0.39990465946689346    0.45094154518371043    0.3246593057154115    
  0.15930630460061398    0.10415076296740959    0.15930628131444566    0.2297481605345386    0.4023789641900537    
  0.5096204590636779    0.44334332825903056    0.3159327124358211    0.21222020544072545    0.14388541452998688    
  0.10216095398672205    0.07764470432161516    0.06398018968302906    0.057937530728953704    0.05823052506314488    
  0.0651426739362031    0.08101414490768119    0.11093984486514083    0.16307785016467086    0.24655037660801718    
  0.3549407362723231    0.41964715584674467    0.3426690503574211    0.20752919735279793    0.15930628131444566    
  0.3246592738510933    0.40237894575692323    0.5261153784068827    0.5582321629562541    0.46927860525180387    
  0.34668444117326613    0.2448884624492383    0.17307337518266291    0.12597465524427215    0.09604410204323262    
  0.07764475080561589    0.06783478350739251    0.0651426320338291    0.06937493863818232    0.08193654957328748    
  0.10651446186118622    0.14921711470008872    0.2169022828016328    0.30882496246390595    0.39149570175170756    
  0.3992471207272876    0.342668973538387    0.3246592738510933    0.45094158345380064    0.5096204776153415    
  0.5582321087703475    0.5407118051427837    0.4620029767729658    0.364773001397931    0.27796886132565657    
  0.21030406037261262    0.1609229208870184    0.125974684484228    0.1021609745550003    0.08759675394036763    
  0.08101411273678091    0.08193651865125112    0.09073048739391748    0.10938631770046395    0.1415934187988057    
  0.19119170171272587    0.2591383142569349    0.33461826050006427    0.39149567499868626    0.41964706626552084    
  0.45094158345380064    0.3999045849809812    0.4433433539166332    0.469278554223725    0.46200290829542173    
  0.4230119594145266    0.36599765888475555    0.30722203359901884    0.254980989506841    0.21030397788734578    
  0.17307333055318808    0.1438854452128333    0.123240430750994    0.11093983911779082    0.1065144675357863    
  0.10938628226143778    0.11987322690604063    0.13955294051968936    0.16978547222136253    0.21063324078618278    
  0.25913828975987413    0.3088249251371982    0.3549407803622767    0.3999045849809812    0.2802197116601296    
  0.31593278782907486    0.3466844565524499    0.36477302751434454    0.3659977852340607    0.3521584310474396    
  0.331362390245074    0.30722206735602153    0.27796881581332933    0.2448884431127538    0.21222028973982884    
  0.18414671080472936    0.16307785308884323    0.14921713364556072    0.14159341849035073    0.1395529788178049    
  0.14341970474338145    0.15357457371733774    0.1697854870218382    0.1911916734915448    0.21690234972601866    
  0.2465503887334635    0.2802197116601296    0.18414669632056102    0.21222029294379344    0.24488841715830303    
  0.2779688051624994    0.30722209995293626    0.3313623563197579    0.35215847670752576    0.3659977575234144    
  0.36477300726880846    0.3466844960920165    0.3159328285465653    0.2802197019447241    0.24655033306537158    
  0.2169023527419516    0.19119171391929482    0.16978549468542678    0.15357454913758856    0.1434197122146319    
  0.13955297356720178    0.14159341639490702    0.14921709440406802    0.1630778881178093    0.18414669632056102    
  0.12324041482942782    0.14388545543560816    0.17307332006085213    0.21030399155991786    0.25498100263469753    
  0.30722196671694313    0.3659977206408252    0.4230119669307158    0.4620028881986233    0.4692785351720998    
  0.44334337906168925    0.399904632260043    0.354940733232044    0.3088249916678176    0.25913822153185306    
  0.21063321496037654    0.1697854601753634    0.13955297538056724    0.11987323064999891    0.1093862980737611    
  0.10651447907892232    0.1109398437658828    0.12324041482942782    0.08759674215601584    0.10216097240450758    
  0.12597468749803248    0.16092290426660916    0.2103040114398782    0.277968815003214    0.36477305733403453    
  0.46200301693434165    0.5407118131196474    0.5582321675047794    0.5096205420009969    0.45094148381098276    
  0.4196470949296738    0.3914956743768401    0.33461824020514125    0.25913830274827077    0.19119170584051667    
  0.14159341195436112    0.10938630803705886    0.09073048753546924    0.08193655523491454    0.08101415081111148    
  0.08759674215601584    0.06783479489760394    0.07764473325569089    0.09604410566346991    0.1259746923438919    
  0.1730733626219016    0.24488842360981472    0.3466844978586293    0.46927860715863107    0.5582321390714143    
  0.5261154266233475    0.4023789678317903    0.3246592847738471    0.3426689768243987    0.3992471787465502    
  0.3914956433173384    0.3088249756414723    0.21690234800824487    0.14921710875193545    0.1065144715935596    
  0.08193654746092345    0.06937495503054769    0.06514263120503448    0.06783479489760394    0.05793751589943477    
  0.06398017322289082    0.07764473391022196    0.1021609809138091    0.1438854407690551    0.21222022139473423    
  0.3159327961739653    0.44334328813700236    0.5096204080172877    0.4023789065389212    0.229748195815171    
  0.15930628177407433    0.20752924324626534    0.3426690157032796    0.4196471187718425    0.35494072950102445    
  0.2465502955544201    0.16307788341964263    0.11093984711383774    0.08101415676298038    0.06514266808057007    
  0.058230518561838425    0.05793751589943477    0.054914919431907475    0.057937561294434566    0.06783480447943166    
  0.08759673101197207    0.12324040396960449    0.18414670801604804    0.280219732700674    0.3999047040091073    
  0.45094160617356904    0.3246593380145584    0.15930633006051156    0.1041507792092583    0.15930630754253372    
  0.32465931761418143    0.4509416005367655    0.399904694524958    0.28021967416450405    0.18414676596434051    
  0.12324042265281777    0.08759673590168669    0.06783480682443574    0.05793753334865878    0.054914919431907475    
  0.05793752928954383    0.05823053681887633    0.06514264578331103    0.08101416297212748    0.11093983131909069    
  0.16307787307491042    0.24655032051639847    0.3549407261776065    0.41964705072379127    0.34266894900309397    
  0.20752920717178575    0.1593062921267769    0.22974814766300677    0.4023789299932803    0.5096204561836716    
  0.4433433543897833    0.3159327302909684    0.21222025720474336    0.14388540814069267    0.10216096695984815    
  0.077644755076228    0.06398017501273298    0.05793752928954383    0.06783479689470334    0.06514263974129482    
  0.06937495067839228    0.08193654457278027    0.10651449470433905    0.14921706432155443    0.2169023698266118    
  0.308824949552228    0.39149561192420995    0.399247165196346    0.34266901458084603    0.324659307826043    
  0.4023789697387563    0.5261154051980776    0.5582322037134599    0.4692785983715615    0.34668449580598476    
  0.24488846131170788    0.17307333379642978    0.12597470253288579    0.09604406721349316    0.07764472677035243    
  0.06783479689470334    0.08759676142230756    0.0810141822722496    0.08193654124214565    0.09073047433141962    
  0.10938632331903463    0.14159337135885477    0.19119175366071745    0.25913832026864525    0.33461829817678895    
  0.3914956860118328    0.4196471397149313    0.4509415591390242    0.5096204444042085    0.5582321721728527    
  0.5407117787621541    0.46200293757512284    0.3647730308870016    0.2779688529128572    0.21030402782450433    
  0.16092290357645148    0.1259746734962584    0.10216096099600978    0.08759676142230756    0.12324039161716045    
  0.11093986753680099    0.1065144410494654    0.10938627774228143    0.11987327720409895    0.13955293324390866    
  0.16978546914252557    0.21063326540892008    0.25913825373875704    0.3088249064374059    0.3549407296032585    
  0.39990463200118875    0.4433433168747885    0.46927861328263715    0.46200286965406756    0.4230119434250686    
  0.3659977099951637    0.30722206212692915    0.2549809889001324    0.21030399589786639    0.17307336423302427    
  0.14388543651331806    0.12324039161716045    0.18414670415993528    0.16307789642251758    0.14921710519203257    
  0.14159341354574714    0.13955299603852533    0.14341965775284357    0.1535745500358514    0.16978551438845507    
  0.1911916627231543    0.21690234491950836    0.24655045403397932    0.280219685245136    0.31593273482500117    
  0.34668453043301767    0.36477306889130723    0.36599772741912684    0.35215847632378133    0.33136243286825684    
  0.3072220518503006    0.27796881347088986    0.24488844685117578    0.21222024494418468    0.18414670415993528    
  0.28021967519512186    0.2465504118524037    0.2169023370812305    0.19119168140409512    0.1697855496600106    
  0.1535745016830677    0.14341972003793269    0.13955299029431625    0.14159336684531523    0.14921711892976516    
  0.16307790406714973    0.1841466897355782    0.2122202248646685    0.24488846069241055    0.2779688257639567    
  0.3072220651405995    0.33136237895635057    0.3521584912001649    0.36599767408405504    0.36477306321698716    
  0.34668450435968184    0.31593274145960015    0.28021967519512186    0.39990467716388844    0.3549407349448429    
  0.30882493420698787    0.2591382481264597    0.210633243057047    0.1697854059685371    0.13955296337609557    
  0.11987326265622995    0.10938627370503543    0.10651441158180229    0.1109398529770479    0.12324038819680701    
  0.14388544023228747    0.17307336609935128    0.21030397806383824    0.25498096567367395    0.3072220086890255    
  0.365997751660661    0.4230119316736711    0.462002830787847    0.4692785337129944    0.4433433080806604    
  0.39990467716388844    0.4509415718251953    0.41964715159867283    0.39149566934022506    0.3346182266285915    
  0.2591382820401108    0.19119169041492337    0.14159342313189208    0.10938634729908374    0.09073048647089564    
  0.08193652548267634    0.08101419477640194    0.08759674695924988    0.10216097412594029    0.1259747247423546    
  0.16092290025962516    0.2103040249454536    0.2779688477482348    0.36477305182607933    0.4620029271075759    
  0.5407118350302534    0.5582321940567481    0.5096204359061631    0.4509415718251953    0.32465931027505357    
  0.3426690148722115    0.3992471617062283    0.3914957106975957    0.308824970856174    0.2169023067044335    
  0.14921710066295055    0.1065144800460871    0.08193654160315635    0.06937495562778842    0.06514266742528778    
  0.06783480044215896    0.07764471255762719    0.09604406487118941    0.1259746647093148    0.1730733548545744    
  0.24488842703901717    0.34668449130145823    0.46927854442457556    0.5582322560117536    0.5261154041673992    
  0.4023788933449953    0.32465931027505357    0.15930629419552722    0.20752925900027286    0.3426690249268523    
  0.4196471074259715    0.3549407551123585    0.24655035943682999    0.16307786775952476    0.11093982896326808    
  0.08101414998399953    0.06514263905271264    0.05823056211601581    0.05793752241289705    0.06398017154858954    
  0.07764473097428479    0.10216095690301066    0.14388542970588583    0.21222023045604696    0.3159327710127081    
  0.44334333908376666    0.5096204752349077    0.4023789220852694    0.22974811254749253    0.15930629419552722    
  0.10415076296740959    0.15930636041922802    0.32465927892948476    0.4509415526139729    0.3999046912170807    
  0.2802196568690707    0.18414670696152957    0.12324044327817246    0.0875967589569082    0.0678348024249753    
  0.05793753625069858    0.05491492512302518    0.05793754636873139    0.06783480203746046    0.0875967576897723    
  0.12324043349979828    0.1841467002825285    0.28021974162106067    0.39990465946689346    0.45094154518371043    
  0.3246593057154115    0.15930630460061398    0.10415076296740959    0.2710527898634276    0.32465939270702093    
  0.43538706808468913    0.4675994587720487    0.3854441249942249    0.2755036663644863    0.18964215680621044    
  0.1330082503612217    0.09837004508450511    0.07832807545370153    0.0678348017320506    0.06454229105238656    
  0.06783480722699783    0.07832808275226066    0.09837003712593592    0.1330082466731496    0.18964215120874042    
  0.2755037084522591    0.3854440849903773    0.467599444708229    0.435387068985536    0.3246593174793499    
  0.2710527898634276    0.32465927843844417    0.4023789382275285    0.5261154312115739    0.558232249940687    
  0.46927858991164156    0.3466844666534575    0.24488839839111592    0.1730733288255671    0.12597467208106722    
  0.09604406543135538    0.07764474183019027    0.06783480724979712    0.06514264444087879    0.0693749875246085    
  0.08193654903889747    0.10651447325504798    0.14921708422243585    0.216902358242248    0.30882497521274405    
  0.39149571523387483    0.39924721763094306    0.34266897327545    0.32465927843844417    0.43538704041010046    
  0.5261153998627341    0.6230222568331387    0.6300077019432839    0.5403515690225792    0.41922512552997054    
  0.31054650459080985    0.2268582908435984    0.16680230482576175    0.12465384578613559    0.09604411511467326    
  0.07832807517677726    0.06937497739632242    0.06817685231343235    0.07490797651412312    0.09155440330833937    
  0.12239765105289489    0.1726055196426088    0.2444562766249751    0.3247488139858125    0.37909845058255925    
  0.39924718094368306    0.43538704041010046    0.4675994759635179    0.5582322203573183    0.6300076783963476    
  0.6353523094700931    0.5699618705737809    0.4701165871782679    0.37154295687506766    0.28857854485350326    
  0.22110347602781635    0.16680233121135357    0.12597472908081458    0.09837004340888558    0.08193650993672141    
  0.07490796584142287    0.07610151565661043    0.0858018787438631    0.10633197242148315    0.14067149631320458    
  0.19135459354854825    0.2561780250541439    0.3247487727127399    0.391495642550688    0.4675994759635179    
  0.38544402299226826    0.46927855965029486    0.5403514828431766    0.5699618002757515    0.5432491417276221    
  0.47852227676366715    0.41015586643731616    0.3494547684501314    0.28857844850973025    0.22685825135530777    
  0.17307335363471987    0.13300821459822793    0.10651446521146814    0.09155442592784792    0.0858018551993383    
  0.08797403557803835    0.0985308090165568    0.11850583004874476    0.14920076820761355    0.19135457035143807    
  0.2444562918218929    0.30882496947051846    0.38544402299226826    0.27550367420757654    0.34668454705955304    
  0.41922520497917265    0.4701166378118937    0.47852246104777796    0.45467105218529935    0.4305443647677253    
  0.41015594267302957    0.37154285742076937    0.31054644965121525    0.24488850417912833    0.18964213530719876    
  0.14921708858064128    0.12239764351750161    0.10633198896890976    0.09853082954704975    0.09797439795654117    
  0.10453027311414527    0.11850586222715744    0.14067147950213063    0.17260553124200365    0.21690236654378128    
  0.27550367420757654    0.18964217405213588    0.24488850424792488    0.3105464572166781    0.3715428887093019    
  0.4101559150074885    0.4305442744922659    0.45467115948248693    0.4785224530519622    0.4701165761397225    
  0.4192251964324508    0.34668454598457493    0.2755036846786731    0.21690234256131294    0.17260553647604085    
  0.14067146679250794    0.11850583763144108    0.10453026825728068    0.09797438990981869    0.0985308336995988    
  0.10633197831113876    0.12239759862760459    0.1492171239698163    0.18964217405213588    0.13300820321542514    
  0.1730733674802941    0.22685824983138855    0.28857847632586303    0.349454708162016    0.41015576160729594    
  0.47852239549131215    0.5432491597594694    0.5699617880316169    0.5403514133347763    0.46927859013707734    
  0.3854440738732275    0.30882497005991283    0.2444563515751932    0.19135453521694334    0.14920077448941352    
  0.11850581706107483    0.09853082151636854    0.08797402650790727    0.08580184780647593    0.09155441521500193    
  0.10651445361490901    0.13300820321542514    0.0983700201871803    0.1259747181662738    0.166802331654439    
  0.2211034220991849    0.2885784982769621    0.3715428660086055    0.47011663824076455    0.569961945239939    