#     DFTpy    
  CRYSTAL 
    
  PRIMVEC    
  4.203413793103448    0.0    0.0    
  0.0    4.203413793103448    0.0    
  0.0    0.0    4.203413793103448    
  PRIMCOORD    
  4    1    
  Si    0.0    0.0    0.0    
  Si    0.0    2.101706896551724    2.101706896551724    
  Si    2.101706896551724    0.0    2.101706896551724    
  Si    2.101706896551724    2.101706896551724    0.0    
  BEGIN_BLOCK_DATAGRID_3D    
  3d_datagrid_density    
  BEGIN_DATAGRID_3D#0    
  19    19    19    
  0.0    0.0    0.0    
  4.203413793103448    0.0    0.0    
  0.0    4.203413793103448    0.0    
  0.0    0.0    4.203413793103448    
  0.05993949576299666    0.10627362840919338    0.2618815317402861    0.3810633651969104    0.3229029412952673    
  0.21634233587574828    0.14487352622943378    0.10768494069445193    0.09098554083547783    0.08636585540138818    
  0.09098560035503808    0.10768495478609928    0.1448734720839404    0.2163423710763084    0.32290289807730505    
  0.38106338943791934    0.2618815679451949    0.10627363993701497    0.05993949576299666    0.10627365893170854    
  0.15919985513364188    0.3039828952547282    0.3833084219005003    0.31151757369253597    0.2104704836556815    
  0.1445731936185163    0.1103905780177877    0.09514052437263099    0.09098560013083043    0.09514055110935306    
  0.110390562624073    0.14457314558307616    0.21047045233448133    0.311517635182496    0.3833085249241807    
  0.30398293689358025    0.159199930651431    0.10627365893170854    0.2618815762670061    0.3039829061387418    
  0.37636338161328475    0.36619861175782853    0.2794483025352473    0.19703062434650181    0.14659424913355742    
  0.12113758765338294    0.11039053667596671    0.10768497291057164    0.11039053094647612    0.1211375830137854    
  0.14659420631798903    0.19703063780714328    0.2794483774506163    0.36619865751775504    0.3763633786876846    
  0.3039828635253396    0.2618815762670061    0.38106341108368086    0.3833084374764025    0.3661987273807518    
  0.30832766669244344    0.23771033456735857    0.1856267800402365    0.15755380271616773    0.14659422289192484    
  0.14457312917191847    0.14487356298697052    0.14457317258893052    0.1465942328029165    0.15755378386553193    
  0.18562680218713587    0.23771030940481166    0.30832765641778    0.3661985490481778    0.3833084871473743    
  0.38106341108368086    0.3229028955767405    0.3115175815068873    0.27944834701860916    0.23771030284250455    
  0.20324189601773304    0.18579617672355242    0.18562685566721504    0.19703067067357427    0.21047044876550783    
  0.2163423899222772    0.2104704783679066    0.1970306443009485    0.18562683692165574    0.1857962016857015    
  0.20324190793133318    0.23771033521360957    0.2794483784616584    0.3115175987544377    0.3229028955767405    
  0.2163423960840194    0.21047049107506122    0.1970306698692828    0.18562681063900607    0.18579617766627843    
  0.2032419005347492    0.2377103458372257    0.2794483468934982    0.3115175281098802    0.322902974248079    
  0.31151760152679414    0.2794483352425236    0.23771028337986563    0.20324188875984592    0.185796209722133    
  0.18562682815551032    0.19703063412707827    0.2104704140655009    0.2163423960840194    0.14487353772999673    
  0.14457314956385076    0.14659426111254267    0.15755374847485779    0.18562679968380055    0.2377102254873004    
  0.3083276308843338    0.36619863871754194    0.3833083859612498    0.38106337604345114    0.38330844932438496    
  0.36619858866171395    0.3083276457339018    0.23771028967669625    0.18562680840044823    0.15755380691140145    
  0.14659419211015248    0.14457315496674508    0.14487353772999673    0.10768496288319868    0.11039051197283205    
  0.12113762611762627    0.14659420585559008    0.19703059036258821    0.2794483179296043    0.3661986519585177    
  0.3763633618604541    0.3039828859374594    0.26188153419631943    0.3039829904233548    0.37636334250137904    
  0.36619861315363883    0.27944836048271965    0.19703059704696163    0.14659424876643878    0.12113760023780268    
  0.11039049178239169    0.10768496288319868    0.0909855853265444    0.09514056814011089    0.11039054464392258    
  0.1445731524851771    0.2104704791720685    0.3115175730298034    0.3833084927982074    0.3039828977878372    
  0.15919991607414966    0.10627368937653162    0.1591998818777616    0.30398292401272936    0.3833084415781792    
  0.3115176163422372    0.21047046111983192    0.14457317288446594    0.11039056120131788    0.09514055863847634    
  0.0909855853265444    0.08636588600930391    0.09098556272688765    0.10768495612057155    0.14487348888633705    
  0.2163423653402812    0.32290287974411136    0.3810633862248881    0.2618814745440791    0.1062736236569804    
  0.059939489762923744    0.10627362562917157    0.2618814972484035    0.38106345024138355    0.3229028465132584    
  0.2163423934723384    0.14487348420627627    0.1076849410103361    0.09098556623707381    0.08636588600930391    
  0.09098559418649901    0.09514054972102902    0.11039054690031601    0.144573155739332    0.2104703946428184    
  0.31151763698949503    0.38330851605711    0.3039829025319563    0.15919983812251087    0.10627367623040845    
  0.15919990202077275    0.3039829175819753    0.3833085079005092    0.3115176506280233    0.21047049294882042    
  0.14457318746066472    0.110390542143111    0.09514056354139477    0.09098559418649901    0.10768497700512619    
  0.1103905230331136    0.1211375994960175    0.14659425890547176    0.19703060171400408    0.27944829507155694    
  0.36619869986911435    0.37636335086332035    0.3039828624698919    0.2618815855935166    0.30398284690478167    
  0.37636337501184947    0.3661985814216235    0.2794483231972257    0.19703060929869562    0.14659425227774536    
  0.12113760257803763    0.11039050623096278    0.10768497700512619    0.1448735118823012    0.1445731244570522    
  0.1465942394227675    0.15755376930344328    0.18562683378717146    0.23771025627833994    0.3083276214397116    
  0.36619860111495983    0.38330839313993065    0.38106340159391716    0.3833083912321995    0.3661986368432577    
  0.30832767747580136    0.23771032276363557    0.1856268028048802    0.15755378455594993    0.1465942383552275    
  0.1445731135302139    0.1448735118823012    0.21634239570587124    0.2104704546154936    0.197030697374344    
  0.18562677362979496    0.18579618090206157    0.20324186697225397    0.23771036589719002    0.2794483443666076    
  0.3115176583059445    0.3229029608199549    0.3115176351378754    0.27944835655406836    0.23771033190559754    
  0.2032419409281034    0.18579619107824102    0.18562682850061027    0.1970307088703337    0.2104704757270342    
  0.21634239570587124    0.32290294890161614    0.31151762087142065    0.2794483536747257    0.2377103092057521    
  0.20324188136928967    0.18579617020065575    0.18562682743015646    0.19703063385474104    0.21047043001203933    
  0.21634240605718552    0.2104704537010296    0.1970306412794471    0.18562679179900238    0.1857961801917141    
  0.20324190695215347    0.23771032896964617    0.27944828505769825    0.31151762134269056    0.32290294890161614    
  0.3810634434978494    0.38330840329773636    0.3661986870970374    0.3083276901021843    0.2377103188207073    
  0.18562677072033942    0.15755378051021465    0.14659422162957178    0.14457310002999646    0.1448735354823072    
  0.14457313800369165    0.14659421910653797    0.15755378238457748    0.18562679767214982    0.23771028828620727    
  0.308327659868155    0.3661985812470516    0.38330843181740326    0.3810634434978494    0.261881535059004    
  0.3039828233545183    0.37636340680383285    0.36619856314902755    0.2794483670200654    0.1970306042146129    
  0.1465942996047678    0.12113758982702295    0.11039053188359131    0.10768496105837136    0.11039057875563238    
  0.12113760642447785    0.14659422287176554    0.19703067077635703    0.2794483458369858    0.366198673198938    
  0.3763633417781654    0.3039829070655526    0.261881535059004    0.10627366375916654    0.15919991134202427    
  0.3039829061577893    0.3833084237821861    0.31151762672046146    0.21047048222409595    0.14457317800888203    
  0.1103905816716391    0.09514055152933809    0.09098562013486991    0.0951405482716265    0.11039050377802462    
  0.14457312385628565    0.21047046096690294    0.31151760002403334    0.38330841133360005    0.30398290440349107    
  0.15919990627827948    0.10627366375916654    0.05993949576299666    0.10627362840919338    0.2618815317402861    
  0.3810633651969104    0.3229029412952673    0.21634233587574828    0.14487352622943378    0.10768494069445193    
  0.09098554083547783    0.08636585540138818    0.09098560035503808    0.10768495478609928    0.1448734720839404    
  0.2163423710763084    0.32290289807730505    0.38106338943791934    0.2618815679451949    0.10627363993701497    
  0.05993949576299666    0.1062736716032617    0.15919988237708893    0.3039829265106455    0.38330846752173947    
  0.3115176219021398    0.210470436274065    0.14457318826585425    0.11039052178875437    0.09514052124621175    
  0.09098557691287622    0.09514056534911189    0.11039054781922765    0.14457312752364682    0.21047042109781872    
  0.31151758074399444    0.3833084224264663    0.30398293115122366    0.1591998980139203    0.1062736716032617    
  0.1591998742846682    0.2127462334934849    0.33690248069490986    0.3804515627552145    0.2999137643815424    
  0.2047217253233574    0.14399331911141922    0.11264361518078347    0.09882869664139288    0.095140578878425    
  0.0988287212540291    0.11264363180609999    0.14399325870542648    0.2047217375737267    0.29991374205022137    
  0.3804515896098996    0.3369025485813831    0.2127463112551507    0.1591998742846682    0.3039829536002287    
  0.33690252222536865    0.3836601976837996    0.35462097118442576    0.2679499821229797    0.19131225680201458    
  0.1450547408694322    0.12201882642803667    0.11264358694106436    0.11039056810047754    0.11264360887076331    
  0.12201879474281375    0.1450547071657605    0.19131226692764963    0.2679500380506416    0.3546209799559049    
  0.3836601547997152    0.3369023806833669    0.3039829536002287    0.38330846114881695    0.38045152449574016    
  0.3546210399050359    0.2945224352515579    0.22750825814481257    0.17957996403419896    0.15429229831356495    
  0.14505468047286288    0.143993218830443    0.14457318667729102    0.1439932556421925    0.14505474278608396    
  0.154292266020163    0.17957997393447125    0.22750823939162917    0.29452242559087777    0.3546208548846627    
  0.38045155180498913    0.38330846114881695    0.31151756479177334    0.2999137092521573    0.26795005145588113    
  0.22750822451136798    0.19490165281767666    0.17894024410740272    0.17957999441657185    0.19131228237835407    
  0.20472173424103582    0.21047050428268319    0.20472180301530213    0.1913122963328874    0.17958000320159007    
  0.17894024568192612    0.19490165783520913    0.22750825650048886    0.2679500880734679    0.29991370799706535    
  0.31151756479177334    0.21047047984506076    0.2047217539898914    0.1913122570745318    0.1795799897152174    
  0.17894027027639403    0.19490164403976326    0.22750826917094347    0.2679500148239223    0.29991370305923215    
  0.3115176282981004    0.2999137171111477    0.2679499994319066    0.227508200032102    0.19490165080477123    
  0.17894026731384138    0.17957999315606063    0.1913122754234144    0.20472173790833012    0.21047047984506076    
  0.14457318666871338    0.1439932458777061    0.145054793686016    0.15429225204802816    0.17958000448648975    
  0.22750821530171284    0.2945224400197002    0.3546209789095643    0.3804515187390565    0.38330850678939693    
  0.3804516195357005    0.35462098141288    0.2945224459344617    0.22750821914945907    0.17957997204477746    
  0.1542922902723895    0.1450547197162256    0.1439932522533674    0.14457318666871338    0.11039056923635591    
  0.11264356331732396    0.12201883930043386    0.14505467097716582    0.19131223805309855    0.2679499995299888    
  0.35462104233346503    0.38366022806600475    0.3369025054418608    0.30398293220006    0.3369024877125426    
  0.3836601521925801    0.35462096031292345    0.26795002413122443    0.19131222890603658    0.1450547255834785    
  0.12201882387604512    0.11264359582592688    0.11039056923635591    0.09514054540109249    0.098828749042904    
  0.11264363307686594    0.1439932855033886    0.20472178131160526    0.2999137661452878    0.38045165875648224    
  0.33690249493547947    0.2127462188438039    0.15919996015623739    0.21274624713868123    0.33690247371204757    
  0.38045148877293267    0.2999137514758643    0.20472180576672896    0.14399326357713987    0.11264361498514536    
  0.0988287224282906    0.09514054540109249    0.09098563526235627    0.09514053658086184    0.11039056759343259    
  0.14457312741145126    0.21047046261193894    0.31151753479854866    0.3833084577488055    0.30398284979395035    
  0.15919989640890123    0.10627365342701763    0.1591998788488377    0.3039828300139367    0.3833084368016588    
  0.3115176245372883    0.21047039972096798    0.14457314737859994    0.11039057107499646    0.09514056685800738    
  0.09098563526235627    0.09514055662044185    0.09882874984848439    0.11264360530498192    0.1439932479876322    
  0.20472175066780998    0.2999137607183017    0.3804516116482504    0.33690253011297355    0.21274622073466498    
  0.15919992198237254    0.21274622586919675    0.3369025134558742    0.38045158543274415    0.2999137224013631    
  0.2047217572454305    0.14399330165313992    0.11264362240240962    0.09882872084820628    0.09514055662044185    
  0.1103905319231263    0.11264361852218845    0.12201885952693416    0.1450547208251016    0.19131217510999105    
  0.26794998440885653    0.35462102679335217    0.38366021226984737    0.3369024743996846    0.3039829258049217    
  0.3369025120342545    0.3836602140714105    0.3546209112331645    0.2679500226789614    0.19131222598980213    
  0.14505474137525168    0.12201879993484367    0.11264361023506099    0.1103905319231263    0.14457315489819536    
  0.14399326052585312    0.14505476832983566    0.15429229850591605    0.1795800236573203    0.2275082259442962    
  0.29452242868763    0.3546208975161418    0.38045154758541117    0.38330847783773503    0.3804515319722691    
  0.3546209873018916    0.2945224175357401    0.2275082660941518    0.17957995000331337    0.154292293961174    
  0.14505471391380337    0.1439932656451081    0.14457315489819536    0.21047047685582632    0.20472171181952023    
  0.19131228996638752    0.17957994014862788    0.1789402058739301    0.19490162102248526    0.22750830969872848    
  0.2679500730350506    0.2999137520790107    0.31151766480300314    0.2999137773898263    0.2679500150848356    
  0.2275082737858662    0.19490169647809985    0.17894026209505398    0.17958002899276976    0.19131224951753292    
  0.20472171154434066    0.21047047685582632    0.31151762905996305    0.29991373738807464    0.26795000546093756    
  0.22750823127078815    0.19490166890361935    0.1789402447098685    0.17958005337722743    0.19131225260716458    
  0.20472172121803378    0.2104704819048358    0.20472174404454344    0.19131223995081917    0.17957992812422477    
  0.17894022684651195    0.19490166208844753    0.22750826858273157    0.2679499571125161    0.29991373765890733    
  0.31151762905996305    0.3833085296629411    0.3804516034014171    0.3546210185092918    0.2945224756579908    
  0.22750826249177933    0.1795799407172035    0.15429228207289084    0.1450547362288361    0.14399320388628906    
  0.14457317511865286    0.14399328179832058    0.14505470681310978    0.15429230016960552    0.1795800024609797    
  0.22750822020925365    0.2945224649530871    0.3546209520636709    0.3804516108788929    0.3833085296629411    
  0.3039828958731158    0.33690247221250735    0.3836601230128758    0.35462093456343885    0.2679499851148434    
  0.1913122246683437    0.14505478033198024    0.12201882871275453    0.11264363063292425    0.11039056771252434    
  0.11264363367274448    0.12201882744675431    0.14505468949007286    0.19131227890064487    0.2679500758269771    
  0.35462096906095486    0.3836602226307347    0.33690243677938536    0.3039828958731158    0.15919992139547837    
  0.2127462556453052    0.33690250127715343    0.38045156565680305    0.2999136861617169    0.2047217340309172    
  0.14399328680398704    0.11264361821926562    0.09882871103708614    0.09514060260531071    0.09882873480848609    
  0.11264364737334207    0.14399324197340735    0.20472171054882393    0.29991378162477367    0.3804515407924897    
  0.3369025551184593    0.2127462273030418    0.15919992139547837    0.1062736716032617    0.15919988237708893    
  0.3039829265106455    0.38330846752173947    0.3115176219021398    0.210470436274065    0.14457318826585425    
  0.11039052178875437    0.09514052124621175    0.09098557691287622    0.09514056534911189    0.11039054781922765    
  0.14457312752364682    0.21047042109781872    0.31151758074399444    0.3833084224264663    0.30398293115122366    
  0.1591998980139203    0.1062736716032617    0.2618815349149754    0.30398284905333894    0.3763633560932055    
  0.366198655478117    0.2794483462502819    0.19703060246035706    0.14659424259297252    0.1211375447461617    
  0.11039052676075947    0.10768492810916434    0.11039055497062197    0.12113758430804794    0.1465942659310994    
  0.19703060426171493    0.27944829307898705    0.36619854652123984    0.3763634320153497    0.30398288881329627    
  0.2618815349149754    0.3039828605752025    0.3369025075124416    0.3836601171486896    0.3546209146374551    
  0.2679500334689394    0.1913122249380446    0.14505473528965623    0.12201881947365917    0.11264356818488085    
  0.11039056832203371    0.11264360444941968    0.12201885029883074    0.14505468277614558    0.19131224768826863    
  0.2679499789568184    0.35462096198462034    0.3836601678060338    0.33690250317122833    0.3039828605752025    
  0.3763633962076986    0.3836601707653174    0.37476163101069715    0.3163940537553516    0.23789932215884926    
  0.17764793870343304    0.14307951793267018    0.1272467990039154    0.12201878749991274    0.12113765009930508    
  0.12201880782256146    0.12724677105153478    0.1430794575357432    0.1776479931548236    0.23789933757231235    
  0.31639416581483204    0.37476155245936643    0.38366007402257274    0.3763633962076986    0.36619859031478247    
  0.35462093465791256    0.31639410292851805    0.25783670925669533    0.20209570850445696    0.16504225300700134    
  0.1472832648573705    0.1430794578653418    0.14505466730712505    0.1465942759043214    0.14505469948121252    
  0.14307949038939657    0.14728324171628204    0.1650422529602521    0.20209567045096397    0.2578366838911534    
  0.3163940293403225    0.3546209918811959    0.36619859031478247    0.2794482669612562    0.2679499529335981    
  0.23789935548877283    0.20209566722803154    0.1746622658975652    0.16241989000129037    0.16504230961774236    
  0.1776480060455074    0.19131224752121143    0.19703065637305925    0.1913122780377179    0.1776479593013445    
  0.16504228236959526    0.16241991904569175    0.17466227776039356    0.20209570174519084    0.2378993817192988    
  0.267949999112958    0.2794482669612562    0.19703067902656074    0.19131223332997918    0.17764796597677932    
  0.16504226274488773    0.16241990344963908    0.17466227948185503    0.20209573748701792    0.23789931575588127    
  0.26794993170280124    0.27944834470776    0.2679500004055544    0.23789930675696935    0.20209565288245002    
  0.1746622796170929    0.16241991947193296    0.16504230244391238    0.1776479861063662    0.19131222934766237    
  0.19703067902656074    0.1465942281907726    0.14505470016893773    0.14307951332130742    0.14728326199833472    
  0.1650423129077243    0.20209562904350514    0.2578366634901131    0.3163940935439344    0.3546209716947712    
  0.3661986767278327    0.3546210265164357    0.3163940302108026    0.2578366720703688    0.20209566604521995    
  0.16504228526869982    0.1472832488643731    0.14307946109633365    0.14505469472574667    0.1465942281907726    
  0.12113761941179275    0.12201876890036625    0.1272467970970971    0.14307942879839283    0.1776479683781859    
  0.2378992510064097    0.31639419729580504    0.37476166268354183    0.3836601745621306    0.37636343207573747    
  0.38366015630355227    0.37476161343964887    0.31639408186173873    0.2378993416726565    0.17764797752844633    
  0.14307947336165042    0.12724677660145295    0.12201882208599055    0.12113761941179275    0.11039052743321462    
  0.11264365076963642    0.12201882422857353    0.1450546910554396    0.19131223389621682    0.26795001030335025    
  0.35462104863444016    0.38366015907632617    0.3369024416883566    0.30398294356967365    0.33690250872225713    
  0.3836601629384392    0.35462098293259586    0.2679499837477672    0.19131224513667006    0.1450547301709086    
  0.12201882724701987    0.11264360682216891    0.11039052743321462    0.10768497752178363    0.11039054829112731    
  0.1211376155491362    0.14659420430347164    0.19703061050904067    0.2794482445541348    0.3661986067199346    
  0.37636330332347195    0.303982833720699    0.2618815036243314    0.3039828430841263    0.3763632716801117    
  0.3661986134296397    0.27944831653582075    0.19703059875203116    0.14659422462522076    0.12113760844009396    
  0.11039055555918996    0.10768497752178363    0.11039052212977771    0.11264359106939383    0.12201881030625855    
  0.14505469896404968    0.19131218899632682    0.26795000758810755    0.3546210131288442    0.3836602470049664    
  0.33690240262841514    0.30398291425787444    0.3369024814525564    0.38366013377544045    0.35462096342561605    
  0.26794995335176386    0.19131225233606677    0.1450547516594666    0.1220188295839729    0.1126436129752921    
  0.11039052212977771    0.12113761579294495    0.12201881258698882    0.12724677552032243    0.1430794725007951    
  0.17764793370590642    0.23789932536824415    0.31639410153569036    0.37476160672557934    0.3836601095130083    
  0.3763633871911683    0.3836601340633242    0.37476165274830336    0.31639409064219615    0.23789930000316997    
  0.17764790671035585    0.14307945113149154    0.1272467246790841    0.12201880444722706    0.12113761579294495    
  0.14659421858774224    0.14505470266354786    0.14307949010322393    0.14728321372904052    0.16504229699222164    
  0.202095660140475    0.25783665418392815    0.31639409982569044    0.3546209282150207    0.36619864918166767    
  0.35462095938754695    0.3163940750242231    0.2578366523185559    0.2020957023165139    0.16504228428322937    
  0.14728324259218364    0.14307945953843068    0.14505472558628602    0.14659421858774224    0.19703064623898106    
  0.19131220312879724    0.17764801954213993    0.165042247220693    0.1624199024238537    0.17466226259622245    
  0.2020957563793127    0.23789937004629863    0.26795003034593184    0.2794483718915482    0.26795004509096976    
  0.23789934179881622    0.20209571848460633    0.17466231220134398    0.16241990756321165    0.16504230378496113    
  0.1776479544017056    0.19131221688170644    0.19703064623898106    0.2794483501602142    0.26795000668583696    
  0.23789930986992555    0.20209566541243745    0.17466227418424063    0.1624198892802111    0.16504232749290684    
  0.1776479390651982    0.19131221222659212    0.19703066138492858    0.19131223639697545    0.17764792535169416    
  0.1650422804472447    0.16241991439787212    0.17466224635864017    0.2020957245405699    0.23789931492307362    
  0.2679499394948355    0.2794483501602142    0.36619869309962216    0.35462097852684593    0.3163940893390895    
  0.25783669864892106    0.202095698912077    0.1650422229241367    0.14728326341287246    0.14307946867176385    
  0.14505466286066152    0.14659424287252396    0.1450547325848119    0.14307944780707102    0.1472832594436019    
  0.16504227670260807    0.20209565735278745    0.25783668023063855    0.31639407398979147    0.35462097513975527    
  0.36619869309962216    0.3763633942029975    0.3836601034015769    0.37476159311862184    0.3163940545857771    
  0.23789931469515946    0.17764791351994344    0.14307951912864703    0.1272467730268171    0.12201884098065383    
  0.12113760856626662    0.1220188390349851    0.12724674696539426    0.14307948383867494    0.17764797652946446    
  0.23789934419198838    0.3163940836493624    0.37476165140629075    0.3836601311351424    0.3763633942029975    
  0.3039829051464297    0.3369024550667759    0.38366020908336274    0.3546210001572203    0.26794995903291996    
  0.19131224939132055    0.14505475516004016    0.12201882796918997    0.11264357559064767    0.11039057367060434    
  0.11264361648103602    0.12201881646940194    0.1450547006176324    0.19131225253508213    0.26795001764863624    
  0.35462093534396977    0.38366017598862634    0.33690247029914927    0.3039829051464297    0.2618815349149754    
  0.30398284905333894    0.3763633560932055    0.366198655478117    0.2794483462502819    0.19703060246035706    
  0.14659424259297252    0.1211375447461617    0.11039052676075947    0.10768492810916434    0.11039055497062197    
  0.12113758430804794    0.1465942659310994    0.19703060426171493    0.27944829307898705    0.36619854652123984    
  0.3763634320153497    0.30398288881329627    0.2618815349149754    0.3810633742411343    0.3833084558207068    
  0.36619864903727345    0.30832764023731496    0.2377103611161759    0.18562679112506877    0.1575538096170753    
  0.14659423861217305    0.1445730870062416    0.14487349685491652    0.1445731427470788    0.14659424070053714    
  0.15755377290247632    0.18562675864882314    0.23771033406163952    0.30832763158988585    0.3661986618786628    
  0.38330834753144527    0.3810633742411343    0.3833084493853136    0.380451455919338    0.35462097423003547    
  0.2945223800498032    0.22750825114802353    0.1795799880198856    0.1542923630937729    0.14505476007389106    
  0.14399322878194173    0.14457315938843462    0.1439932707022485    0.14505476960147384    0.1542922649077042    
  0.1795799865014926    0.22750825371065073    0.2945224753535836    0.3546209791019635    0.3804515877517442    
  0.3833084493853136    0.366198671219383    0.35462099448418843    0.31639412120765625    0.25783665964238384    
  0.2020956790432622    0.1650422786044615    0.14728327568392915    0.14307948992394284    0.1450547015937977    
  0.1465942843412495    0.14505472974451264    0.14307947392125095    0.1472832004665616    0.16504230090757027    
  0.20209570430943366    0.2578367257406832    0.31639411692462743    0.35462092934047634    0.366198671219383    
  0.3083276850586337    0.29452239081041515    0.257836740350985    0.2119823850911961    0.17340250054908118    
  0.1507961832692809    0.14368296124148663    0.14728322037551858    0.1542922992047606    0.1575538125007416    
  0.15429228877111897    0.14728325269267314    0.14368296892754637    0.15079619355124055    0.173402493454468    
  0.21198239165262178    0.2578366250267276    0.29452244203149425    0.3083276850586337    0.23771029731673932    
  0.22750822089812883    0.2020957261683393    0.17340247725917524    0.1525977331091497    0.1451474118896085    
  0.15079623207346315    0.16504230530019867    0.17957996687731637    0.18562682930686816    0.17957997218714966    
  0.16504229881676874    0.1507962400922685    0.14514740929004483    0.1525977764647861    0.17340250672929114    
  0.20209571014188685    0.22750825630708116    0.23771029731673932    0.185626828286153    0.1795800013225188    
  0.16504230160398872    0.15079619319817353    0.1451474234324848    0.15259773807861438    0.17340252364338835    
  0.20209571612981414    0.2275082166115642    0.23771038405985803    0.2275082385120023    0.20209571309120083    
  0.1734024754689529    0.15259773159379794    0.14514743571859817    0.15079621290286568    0.16504227657769832    
  0.1795799510759368    0.185626828286153    0.15755379680996281    0.15429229465288719    0.14728330084678476    
  0.1436829234633866    0.1507962225550592    0.17340246494980577    0.211982345536109    0.2578366912636922    
  0.2945223511619725    0.3083276484920002    0.29452242848288196    0.2578366575533896    0.21198235506566876    
  0.1734024818457063    0.15079622828044745    0.1436829648228842    0.14728321719485257    0.15429231350052103    
  0.15755379680996281    0.1465942516428761    0.14505468026614565    0.14307950350030246    0.14728322611357153    
  0.16504225389693022    0.2020956502043076    0.25783672658587764    0.3163941586733518    0.35462097493610156    
  0.36619868962807306    0.35462106835405355    0.3163940823307752    0.2578367173250508    0.20209571627098952    
  0.16504222267579075    0.1472832599934102    0.1430794507922569    0.14505471591758454    0.1465942516428761    
  0.14457317769552672    0.14399328259990943    0.14505473833681418    0.15429229511324205    0.17958000621725637    
  0.22750823034138093    0.29452247633520345    0.3546209706791191    0.38045159009683627    0.3833085161799907    
  0.38045149803375666    0.3546210065959686    0.29452239023235505    0.2275082438892917    0.1795799657455413    
  0.15429231995780773    0.14505473638912397    0.14399326891040362    0.14457317769552672    0.14487353645849596    
  0.14457313446534348    0.14659425083692365    0.1575537652768028    0.18562681018786967    0.23771029140885538    
  0.3083276359706335    0.36619855891502534    0.3833084532822936    0.38106344814821225    0.38330845461418644    