#     DFTpy    
  CRYSTAL 
    
  PRIMVEC    
  1.2316806422567743    -2.133333451087799    0.0    
  1.2316806422567743    2.133333451087799    0.0    
  0.0    0.0    4.16441435986207    
  PRIMCOORD    
  2    1    
  Si    1.2316806422567743    0.7111111503625996    1.0411035899655174    
  Si    1.2316806422567745    -0.7111111503625996    3.123310769896551    
  BEGIN_BLOCK_DATAGRID_3D    
  3d_datagrid_density    
  BEGIN_DATAGRID_3D#0    
  11    11    19    
  0.0    0.0    0.0    
  1.2316806422567743    -2.133333451087799    0.0    
  1.2316806422567743    2.133333451087799    0.0    
  0.0    0.0    4.16441435986207    
  0.2035262620060583    0.21767638191055996    0.2576719919739536    0.31404238835933246    0.3661956393536956    
  0.38777873063405877    0.366195647490881    0.31404236041172345    0.25767199178962463    0.21767640053270274    
  0.2035262620060583    0.21767639255678475    0.21767860936816488    0.24484635315149686    0.2935472738930925    
  0.34850517675369175    0.38550041703428767    0.38549360798485055    0.3485026746359951    0.2935490614984214    
  0.2448518053727572    0.21767639255678475    0.25767200296240117    0.24484635500697235    0.25768075618733677    
  0.2935462741664189    0.34170274209357826    0.3824666326697766    0.39811109704281333    0.38247492409158756    
  0.3416999423529327    0.29354908619542097    0.25767200296240117    0.3140423811574745    0.29354724721734315    
  0.2935462741566229    0.3140325899771409    0.34850468467801915    0.38247855125508345    0.4023805501053891    
  0.40239166141006216    0.3824749103329522    0.34850266073477526    0.3140423811574745    0.3661956573170332    
  0.3485051678485851    0.34170272912171135    0.3485047086292182    0.3662033205355955    0.38549558051177735    
  0.39810888273052136    0.40238052725552315    0.398111112033165    0.38549362143113386    0.3661956573170332    
  0.3877787616053631    0.3855004078481851    0.38246657482423285    0.382478590579291    0.38549558092927855    
  0.38776828958285425    0.38549557168249343    0.382478527160183    0.38246661060157516    0.38550042803041873    
  0.3877787616053631    0.3661956458130505    0.38549360500239943    0.3981111057504601    0.402380536526753    
  0.39810888353317525    0.38549558018480334    0.36620329200130375    0.34850467996478596    0.341702737519468    
  0.3485051938234184    0.3661956458130505    0.31404238807126117    0.3485026682622335    0.38247490834623565    
  0.4023916633613014    0.40238056546855955    0.38247857071821517    0.3485046969122023    0.31403259198745004    
  0.29354627753918494    0.29354725799556936    0.31404238807126117    0.2576719828992724    0.29354905864949227    
  0.3416999401592719    0.38247491408943773    0.3981110800663993    0.38246659017279405    0.3417027560625331    
  0.29354628067837096    0.2576807601372032    0.24484638197512207    0.2576719828992724    0.21767640232814753    
  0.24485178753505338    0.2935490727215643    0.34850266370203187    0.3854936144727149    0.3855004065033995    
  0.3485051668992118    0.2935472502693915    0.2448463648626808    0.21767863293944353    0.21767640232814753    
  0.2035262620060583    0.21767638191055996    0.2576719919739536    0.31404238835933246    0.3661956393536956    
  0.38777873063405877    0.366195647490881    0.31404236041172345    0.25767199178962463    0.21767640053270274    
  0.2035262620060583    0.22003559685375243    0.23456553863701465    0.2754726776744687    0.3320657119378002    
  0.38267837019624185    0.4030310609221688    0.38267386156735084    0.3320662139196636    0.2754711011180049    
  0.23456751885937804    0.22003559685375243    0.23456753184321655    0.23456474288471293    0.2576711296841796    
  0.2977922726920253    0.3418501899025767    0.3711441086420275    0.3711382411433851    0.3418536784473124    
  0.2977945880870773    0.25766967574970956    0.23456753184321655    0.2754711233252783    0.2670403784197577    
  0.27547712237121197    0.2977930790697661    0.326311270297891    0.35020795385010417    0.35947006360129763    
  0.35021294758204086    0.3263060254781033    0.29779459663991464    0.2754711233252783    0.3320662131264393    
  0.3248518336593622    0.3248487022975895    0.3320604812686771    0.3418507869588736    0.3502166037672595    
  0.35503559822194536    0.355039517797669    0.3502129594956362    0.3418536754013243    0.3320662131264393    
  0.3826739029437665    0.38690615632477887    0.38683661868267455    0.38690666518506006    0.3826882810310192    
  0.37113606496082613    0.3594728225509701    0.35503560483444563    0.3594700851308456    0.3711382571477389    
  0.3826739029437665    0.4030310800435014    0.4253604143411801    0.4309270501662204    0.43093451779596686    
  0.42535112003564135    0.40302775622990267    0.3711360541196561    0.3502165819695875    0.3502079539083937    
  0.37114413948843805    0.4030310800435014    0.3826783224449228    0.4253569070931816    0.4446164492595171    
  0.4466741664440364    0.4446155510598539    0.42535111762451416    0.38268828547152145    0.341850787505191    
  0.32631127074379823    0.34185024688750326    0.3826783224449228    0.33206567225400574    0.3869116343107808    
  0.43092939838011257    0.44668884090880834    0.4466741773735818    0.43093445860868473    0.38690663210883014    
  0.3320604794292528    0.2977930606391022    0.2977922729012422    0.33206567225400574    0.2754726803393375    
  0.32485417003808686    0.38683258421508643    0.43092942056924516    0.4446164352001582    0.43092707674269326    
  0.3868366217425787    0.3248487018534564    0.275477121707616    0.2576711495488678    0.2754726803393375    
  0.23456555118477615    0.2670416135523912    0.3248541559536104    0.38691161761790255    0.4253569276565548    
  0.42536040832549343    0.386906181837634    0.324851832072413    0.2670404000740413    0.23456478833252475    
  0.23456555118477615    0.22003559685375243    0.23456553863701465    0.2754726776744687    0.3320657119378002    
  0.38267837019624185    0.4030310609221688    0.38267386156735084    0.3320662139196636    0.2754711011180049    
  0.23456751885937804    0.22003559685375243    0.26545380758896014    0.28096711828445503    0.32361921078343525    
  0.3777410624252409    0.41849622512731993    0.4322177929561976    0.4184438773195229    0.37774970352861537    
  0.32364550356549066    0.2809638477895358    0.26545380758896014    0.28096385261318946    0.2809539306703016    
  0.3005311478347457    0.3333743804443842    0.3667527402517153    0.3872631497521571    0.38726625356717675    
  0.36679971943359163    0.3333687476970359    0.30049946448945636    0.28096385261318946    0.3236455127365686    
  0.3195222978442547    0.32361638352606986    0.3333690844842293    0.3437718473450098    0.35124997029933896    
  0.35400365697805036    0.35125329127328286    0.3437299621501501    0.3333687809048815    0.3236455127365686    
  0.3777497277807608    0.38032699911729956    0.38035916254956703    0.3777487361468258    0.3667509101754645    
  0.3512612462011884    0.3406282486812973    0.34061695835757444    0.3512532544430478    0.36679973396961696    
  0.3777497277807608    0.41844390833114153    0.42678635754606953    0.4239153439212664    0.4267984534095314    
  0.4185064034457425    0.38725686579566737    0.35399915958746864    0.34062822745935906    0.354003689822123    
  0.38726623906387536    0.41844390833114153    0.4322178184133601    0.44015931645666195    0.4163098452580822    
  0.4162949798880467    0.4400835179436614    0.4322486345888287    0.38725683534361527    0.3512612230959386    
  0.35124994840142565    0.3872631738377729    0.4322178184133601    0.4184961916537536    0.4401267357674733    
  0.3999799676748904    0.36906888633458373    0.4000427726908471    0.44008348167038897    0.4185063805703465    
  0.36675090541232547    0.34377185021187423    0.366752772586474    0.4184961916537536    0.37774103724648417    
  0.42679932793422926    0.41630406630148287    0.36910696489653233    0.3690688932375491    0.4162949524147208    
  0.4267984399537469    0.37774871558909967    0.33336907602970833    0.3333743975921035    0.37774103724648417    
  0.32361922216413314    0.3803673870228033    0.4239048670426983    0.4163041142220805    0.3999799166674433    
  0.41630985813462223    0.4239153812067356    0.38035917408407655    0.32361638297959555    0.3005311702680146    
  0.32361922216413314    0.2809671245878197    0.3195027981267336    0.3803674075777151    0.426799306157299    
  0.4401267626617223    0.4401592937584907    0.42678638106317335    0.3803270027028127    0.3195223041394595    
  0.28095395895772024    0.2809671245878197    0.26545380758896014    0.28096711828445503    0.32361921078343525    
  0.3777410624252409    0.41849622512731993    0.4322177929561976    0.4184438773195229    0.37774970352861537    
  0.32364550356549066    0.2809638477895358    0.26545380758896014    0.32387645600890186    0.34052508225014533    
  0.3834174186500058    0.42696280991025143    0.4435075165130327    0.44288044424054124    0.4433297907748994    
  0.426988761906361    0.3835387044097451    0.340499155065808    0.32387645600890186    0.34049913790434627    
  0.34047732864551666    0.35696471796180984    0.38282457161510997    0.4044079166383368    0.4145641177839822    
  0.4145765894689686    0.4045639458620673    0.3828053183964125    0.35684260000300416    0.34049913790434627    
  0.38353868665270546    0.38304730263079984    0.3834000614229033    0.3827982627029116    0.37786110183803895    
  0.3711288583759748    0.368413220516734    0.37114640784683994    0.3777096396541325    0.38280534875494554    
  0.38353868665270546    0.4269887771375385    0.43111672189537553    0.431278934780114    0.4269986123124462    
  0.4044029821683543    0.37116737158085183    0.34853474831604814    0.34849882832537904    0.37114638076776046    
  0.40456394571828697    0.4269887771375385    0.4433298113283526    0.4252061636370419    0.4054258854023924    
  0.42522459252830747    0.44350326984677246    0.41455072115281116    0.3683877496999733    0.3485347312232804    
  0.3684132304384325    0.4145766378341823    0.4433298113283526    0.44288044789069386    0.3832523801475757    
  0.2991756976596146    0.2991275907029845    0.38303486902324674    0.4430059032684559    0.41455072626346656    
  0.3711673516178161    0.37112887396732297    0.4145641463581116    0.44288044789069386    0.44350750362339286    
  0.38314722647492205    0.24443380057217393    0.18304841081784257    0.24461446848763266    0.3830348498492229    
  0.4435032618225968    0.4044029839553055    0.3778610776459018    0.40440793844009404    0.44350750362339286    
  0.42696280064900477    0.42519563304466745    0.2991746661436686    0.18313718700977089    0.1830484442868945    
  0.2991275704113493    0.42522455895910644    0.4269986029978614    0.3827982646004479    0.3828245661679199    
  0.42696280064900477    0.38341739702939137    0.4312951337873335    0.4053771706832342    0.29917467110802104    
  0.24443379044097135    0.2991757049744398    0.4054259477069297    0.4312789385903894    0.38340007874082743    
  0.3569647608349551    0.38341739702939137    0.34052509754294064    0.3829597387857496    0.4312951523202414    
  0.42519563377228486    0.38314724695570807    0.38325239259238336    0.42520616643967873    0.43111676011838557    
  0.38304731818041315    0.34047735759454173    0.34052509754294064    0.32387645600890186    0.34052508225014533    
  0.3834174186500058    0.42696280991025143    0.4435075165130327    0.44288044424054124    0.4433297907748994    
  0.426988761906361    0.3835387044097451    0.340499155065808    0.32387645600890186    0.3662652179680651    
  0.3836613697901536    0.42512921243881724    0.45546658644750676    0.4476278739898883    0.4340320700049068    
  0.44735238985398784    0.4555046439149679    0.42535073917657235    0.3836096783179818    0.3662652179680651    
  0.38360968134445383    0.3835867930785265    0.398471755538206    0.4193389515344849    0.4314261963114798    
  0.4333196751243742    0.4333402519349379    0.43167233144169787    0.4193045879584394    0.39826430731672285    
  0.38360968134445383    0.4253507878699378    0.42638777970949576    0.42509919388100265    0.4192868683333902    
  0.4051184366278695    0.3895211427963882    0.38357314203995024    0.3895549816611272    0.40487214910256925    
  0.4193045957980912    0.4253507878699378    0.4555046371847546    0.4545477825508574    0.45482818851192236    
  0.4555334379192297    0.4314231583040849    0.38957590166398265    0.36069752588675    0.36062406097019245    
  0.38955498495772    0.43167234440904256    0.4555046371847546    0.4473524107764486    0.39667972354837666    
  0.360922259157686    0.3967064179152375    0.447589039509115    0.4333200790541291    0.3835145342338568    
  0.360697527728692    0.3835731534462623    0.4333402648787281    0.4473524107764486    0.43403206078508316    
  0.31389047220313593    0.19882005982009812    0.1987468291662336    0.31361466123863896    0.43421870612025615    
  0.4333200438843198    0.38957587885912925    0.3895211509112556    0.4333197238522513    0.43403206078508316    
  0.4476278208423692    0.31375014404644436    0.13609226711000602    0.07939380132443452    0.13628880808889937    
  0.31361468202767506    0.44758904507969505    0.43142312149954687    0.40511845653307504    0.4314262399550903    
  0.4476278208423692    0.4554665467614843    0.396638581812459    0.19883003031141444    0.0794683026284905    
  0.07939381353094793    0.19874682884984107    0.39670641651939215    0.45553340822835353    0.41928686519379293    
  0.41933893395344746    0.4554665467614843    0.4251292472120489    0.4548599294378077    0.360832300995319    
  0.19883003739352142    0.13609225226989655    0.19882006548826278    0.360922257879061    0.4548282043232495    
  0.4250991972789755    0.3984717620617596    0.4251292472120489    0.3836613942037511    0.42623482148545566    
  0.4548599154891    0.39663855911899426    0.31375013683762665    0.3138904713691865    0.3966797375453651    
  0.45454780208205736    0.4263877856997164    0.38358685491224503    0.3836613942037511    0.3662652179680651    
  0.3836613697901536    0.42512921243881724    0.45546658644750676    0.4476278739898883    0.4340320700049068    
  0.44735238985398784    0.4555046439149679    0.42535073917657235    0.3836096783179818    0.3662652179680651    
  0.3662650790650024    0.3836615131878866    0.42512905188204    0.4554667638521641    0.44762769794110807    
  0.4340322096853341    0.44735223740535796    0.4555047880546539    0.42535061218680137    0.38360981574841885    
  0.3662650790650024    0.38360981837218755    0.383586654349758    0.3984719255045804    0.41933880153766834    
  0.43142635961801074    0.4333195479188296    0.4333404088465164    0.4316721762442052    0.41930469952631333    
  0.39826418633450783    0.38360981837218755    0.4253506047695186    0.4263879433128856    0.4250990354838093    
  0.41928701458635775    0.4051182962885102    0.3895213195234547    0.38357299701349    0.38955514151965404    
  0.4048719899672015    0.4193047549505263    0.4253506047695186    0.45550481411074223    0.4545476576850647    
  0.45482835388870385    0.45553325865651884    0.431423274595614    0.38957574554196306    0.36069764810340077    
  0.3606239206435066    0.38955513407815123    0.4316721894935567    0.45550481411074223    0.44735223600286544    
  0.39667983875305873    0.36092212116459255    0.3967065815410364    0.4475888952781025    0.43332022733925296    
  0.38351440933362274    0.3606976456930436    0.3835730174948892    0.433340408485623    0.44735223600286544    
  0.4340322357817964    0.3138903600520819    0.1988201746114093    0.198746735031391    0.3136147933524337    
  0.4342185494581264    0.43332019796178267    0.3895757138987243    0.38952129554166975    0.4333195448898241    
  0.4340322357817964    0.447627672556725    0.3137502583772159    0.13609217422064132    0.07939386960073212    
  0.13628871211622173    0.3136147920572736    0.44758890286797937    0.4314232822941926    0.40511830856052733    
  0.4314264059380952    0.447627672556725    0.4554667285030659    0.3966384206353995    0.19883013298860575    
  0.07946823610842578    0.07939388211161313    0.19874670899958694    0.3967065612606097    0.45553324805902917    
  0.4192870200212956    0.4193388143563385    0.4554667285030659    0.425129066472821    0.45486007162835607    
  0.3608321624742382    0.19883014610480174    0.1360921617911339    0.19882019262698195    0.36092214783545573    
  0.4548283555114002    0.4250990418837502    0.3984719185769228    0.425129066472821    0.3836615216226036    
  0.4262346492599704    0.4548600898503636    0.3966384146592058    0.31375027770943315    0.3138903590662327    
  0.3966798689095838    0.4545476577038614    0.4263879532377948    0.3835866948625032    0.3836615216226036    
  0.3662650790650024    0.3836615131878866    0.42512905188204    0.4554667638521641    0.44762769794110807    
  0.4340322096853341    0.44735223740535796    0.4555047880546539    0.42535061218680137    0.38360981574841885    
  0.3662650790650024    0.3238765797051745    0.3405249495579936    0.38341757108375507    0.4269626562334127    
  0.44350767286750287    0.4428802580441482    0.44332995870288416    0.4269886101698157    0.3835388368444975    
  0.3404990224083852    0.3238765797051745    0.3404990037227508    0.3404774578419657    0.35696457462686965    
  0.3828247136842753    0.4044077810094637    0.4145642560210891    0.4145764519011489    0.4045640972811649    
  0.3828051915224933    0.3568427448877921    0.3404990037227508    0.3835388287336979    0.38304716144237383    
  0.3834001926014942    0.3827981092291186    0.3778612384688983    0.37112871992549185    0.3684133674142968    
  0.3711462746001466    0.3777097698808215    0.3828052005882432    0.3835388287336979    0.42698864467962183    
  0.4311168831657273    0.4312787894580145    0.42699880142377217    0.4044028328236388    0.3711675216912036    
  0.3485346150537818    0.3484989556504774    0.37114623894789434    0.4045640854284158    0.42698864467962183    
  0.44332994235203793    0.42520602011920905    0.4054260352006248    0.4252244392585866    0.4435034020709019    
  0.4145505720733716    0.3683878877033096    0.3485345937559081    0.3684133706646033    0.414576481853151    
  0.44332994235203793    0.4428803188544416    0.38325251925504483    0.29917557756093366    0.29912771106458486    
  0.38303471479988166    0.4430060575234101    0.41455056325988693    0.37116749270090055    0.3711287321591138    
  0.41456428863746575    0.4428803188544416    0.4435076564573332    0.383147093639135    0.244433917563348    
  0.1830483094394875    0.24461458544107073    0.38303471714546433    0.44350342113496866    0.404402829490123    
  0.3778612074039841    0.40440779774679914    0.4435076564573332    0.42696266052784804    0.42519578418789855    
  0.2991745337367267    0.18313729499838277    0.18304834318529248    0.2991276954646036    0.42522439946330964    
  0.4269987539304616    0.3827981122046195    0.3828247008914875    0.42696266052784804    0.3834175504304734    
  0.4312949733943203    0.40537732119979497    0.2991745499483873    0.24443391174097875    0.2991755820725767    
  0.40542608454578466    0.43127878018748506    0.38340018874235454    0.35696462304912613    0.3834175504304734    
  0.3405249678868902    0.38295988353977367    0.4312949854261066    0.42519579939324065    0.38314711343689295    
  0.3832525471045699    0.4252060168815444    0.43111689758400873    0.3830471824798517    0.3404774915644043    
  0.3405249678868902    0.3238765797051745    0.3405249495579936    0.38341757108375507    0.4269626562334127    
  0.44350767286750287    0.4428802580441482    0.44332995870288416    0.4269886101698157    0.3835388368444975    
  0.3404990224083852    0.3238765797051745    0.2654536852633769    0.2809672338042658    0.32361909896290875    
  0.3777411948803202    0.41849609669451776    0.4322179610112066    0.41844372429245885    0.3777498659722191    
  0.3236453398427917    0.280963970998281    0.2654536852633769    0.28096397485802305    0.280953795340983    
  0.3005312529544854    0.33337425640040896    0.36675286553579406    0.38726302165340704    0.3872663806833673    
  0.36679959129444295    0.3333688912391663    0.30049931969718213    0.28096397485802305    0.32364538648924474    
  0.319522423369086    0.3236162524371813    0.33336922467521296    0.3437716998176366    0.3512500855574056    
  0.3540035169332728    0.3512533939126118    0.343729848049862    0.3333689103463257    0.32364538648924474    
  0.37774985206664763    0.3803268665050522    0.3803592992551308    0.377748604324542    0.36675106044018013    
  0.35126111442344765    0.3406283961377377    0.34061684521131036    0.35125339601424665    0.3667995878641314    
  0.37774985206664763    0.41844376748766376    0.4267865014549678    0.4239152059988188    0.42679860282039234    
  0.41850623829471434    0.3872570280642094    0.3539990142613155    0.3406283801418135    0.35400353892269365    
  0.38726639251159506    0.41844376748766376    0.43221798475967366    0.44015913710370996    0.4163099773568909    
  0.41629483500506076    0.4400836612952317    0.4322484811252358    0.38725699154979204    0.35126110240686736    
  0.3512500950081457    0.3872630279425282    0.43221798475967366    0.41849604679352087    0.44012690847472496    
  0.39997981842786423    0.36906902048884827    0.40004262976465815    0.4400836645664072    0.41850623499614303    
  0.36675103901332745    0.34377171562958747    0.3667529185546406    0.41849604679352087    0.37774116710442684    
  0.42679917534920825    0.41630424152408846    0.3691068211374189    0.3690690542806896    0.41629479473781794    
  0.426798572830818    0.37774859501918057    0.33336919255812875    0.3333742430973581    0.37774116710442684    
  0.32361911139164024    0.38036753811736784    0.423904694510774    0.4163042326761653    0.39997978189844263    
  0.4163099848007757    0.42391521328147114    0.3803593001556154    0.32361625930556254    0.3005312897276572    
  0.32361911139164024    0.2809672352386295    0.31950268018232053    0.3803675373100244    0.426799149758132    
  0.4401269098339011    0.440159127439797    0.4267865193484338    0.3803268558580504    0.3195224426963415    
  0.28095383232043136    0.2809672352386295    0.2654536852633769    0.2809672338042658    0.32361909896290875    
  0.3777411948803202    0.41849609669451776    0.4322179610112066    0.41844372429245885    0.3777498659722191    
  0.3236453398427917    0.280963970998281    0.2654536852633769    0.22003570476110249    0.23456542683913548    
  0.2754727938726583    0.332065578871783    0.38267851768105965    0.40303089040770695    0.38267401887908964    
  0.3320660716036459    0.2754712394895582    0.23456741808199183    0.22003570476110249    0.23456740520293934    
  0.23456487434286932    0.25767103840248495    0.2977923969549979    0.3418500755845353    0.37114425093868775    
  0.37113812024603937    0.3418538010026095    0.2977944428236955    0.2576697974260628    0.23456740520293934    
  0.2754712435847741    0.26704028050243    0.2754772487455343    0.2977929283735343    0.3263114132704395    
  0.35020784059310717    0.35947019756889487    0.3502128117622355    0.3263061622974689    0.29779446443407603    
  0.2754712435847741    0.3320660812060069    0.3248519568373901    0.32484857137550405    0.3320606102229562    
  0.34185064408772714    0.3502167299760126    0.35503545391934793    0.35503965975655494    0.3502128174883868    
  0.34185381280424687    0.3320660812060069    0.3826740376179166    0.38690599662336206    0.3868367623967469    
  0.38690651477380816    0.3826884297216866    0.3711359283045581    0.35947296839858095    0.35503545511016993    
  0.35947023672089895    0.3711381153430555    0.3826740376179166    0.4030309273933295    0.42536057567557345    
  0.4309269254601172    0.43093464091680694    0.42535096941978706    0.40302790271740224    0.3711358969646682    
  0.3502167061592972    0.3502078113969455    0.3711442766408419    0.4030309273933295    0.38267848215374933    
  0.42535675389212463    0.44461661050793466    0.44667402085550284    0.44461570991351945    0.4253509523717531    
  0.3826884249690462    0.3418506446886094    0.3263114029213036    0.34185010799150833    0.38267848215374933    
  0.33206555161781687    0.3869117758002087    0.43092922973402786    0.446689005162555    0.4466740218331356    
  0.43093459466912704    0.3869064945703841    0.3320605819424227    0.2977929294035671    0.29779242106980014    
  0.33206555161781687    0.27547280438730476    0.32485403680996144    0.3868327273286962    0.4309292741990537    
  0.44461658206468935    0.43092694055987907    0.3868367969583669    0.3248485653251398    0.27547723795440693    
  0.2576710532827934    0.27547280438730476    0.23456544034560578    0.26704170566507535    0.32485404991797046    
  0.38691176854417336    0.4253567663038456    0.4253605778271193    0.3869060100239887    0.3248519690062981    
  0.2670402770287567    0.23456489264399644    0.23456544034560578    0.22003570476110249    0.23456542683913548    
  0.2754727938726583    0.332065578871783    0.38267851768105965    0.40303089040770695    0.38267401887908964    
  0.3320660716036459    0.2754712394895582    0.23456741808199183    0.22003570476110249    0.20352615800105703    
  0.21767649096615682    0.25767186903344    0.31404252120418047    0.36619550364938835    0.38777887778015363    
  0.36619551002648565    0.3140424877397179    0.2576718774204344    0.2176765117241976    0.20352615800105703    
  0.21767650144253395    0.21767850360154656    0.2448464631241172    0.29354714538613425    0.3485053117006608    
  0.3855002791449294    0.3854937548559901    0.3485025397552607    0.29354919227406095    0.24485169000396534    
  0.21767650144253395    0.2576718844814256    0.24484647460598213    0.257680630315952    0.29354640486097094    
  0.34170260437071515    0.3824667770006469    0.39811095233339167    0.38247506979420554    0.34169981043069053    
  0.2935492157762265    0.2576718844814256    0.3140425169971434    0.2935471225262854    0.29354640004627697    
  0.3140324616697335    0.3485048189934903    0.38247840607037886    0.4023806989944117    0.40239151795874595    
  0.38247505440477786    0.3485025212535699    0.3140425169971434    0.366195514594207    0.34850530368375054    
  0.3417025945631682    0.34850484562134476    0.36620317989397616    0.3854957270971315    0.3981087314438383    
  0.40238068163809176    0.3981109619245665    0.38549376946413705    0.366195514594207    0.38777890367159223    
  0.38550026890017214    0.3824667231628873    0.3824784462378819    0.38549571718303327    0.38776814611936    
  0.38549571318521614    0.3824783871491056    0.3824667521972532    0.3855002852656588    0.38777890367159223    
  0.36619550314516675    0.3854937504546603    0.39811096615560243    0.4023806852518311    0.3981087365609536    
  0.3854957226725289    0.36620315195371095    0.34850481311800763    0.34170260054805845    0.3485053320370186    
  0.36619550314516675    0.31404251760702656    0.3485025281074252    0.38247505107314195    0.40239151507905924    
  0.40238071109129364    0.38247842634275947    0.34850483854754893    0.31403245423835546    0.29354640671427645    
  0.29354712698786906    0.31404251760702656    0.2576718684371839    0.29354918154909876    0.34169980932710475    
  0.38247505731385883    0.3981109349891941    0.3824667350833948    0.3417026193206117    0.29354640711433827    
  0.25768064640036714    0.24484649675410794    0.2576718684371839    0.21767651549461792    0.24485166988609816    
  0.2935491988839785    0.3485025259083739    0.38549376319325673    0.3855002523215579    0.34850530304503846    
  0.2935471257271431    0.244846478623981    0.21767852208531896    0.21767651549461792    0.20352615800105703    
  0.21767649096615682    0.25767186903344    0.31404252120418047    0.36619550364938835    0.38777887778015363    
  0.36619551002648565    0.3140424877397179    0.2576718774204344    0.2176765117241976    0.20352615800105703    
  0.22003570703398412    0.23456742123357158    0.27547122554561354    0.33206611105291933    0.38267404131112026    
  0.4030309171322495    0.3826784768681541    0.33206554866326    0.2754727937461952    0.23456540971595755    
  0.22003570703398412    0.2345654289519302    0.23456486229233037    0.2670402684409615    0.32485196577822606    
  0.3869059931749489    0.4253605535568584    0.4253567215223169    0.3869117815859619    0.3248540379900003    
  0.26704176146940073    0.2345654289519302    0.275472822991545    0.2576710050851178    0.2754772397491894    
  0.3248485791686683    0.3868367473971037    0.43092693852826014    0.44461659803745884    0.43092926559889166    
  0.3868327297211563    0.32485405311110155    0.275472822991545    0.33206554896599755    0.29779239225870197    
  0.2977929365503775    0.3320606107970879    0.3869065025003363    0.4309346078848429    0.4466740271394995    
  0.4466890195289041    0.4309292790947737    0.38691177841233954    0.33206554896599755    0.3826785118146403    
  0.3418500623766871    0.32631141578076445    0.3418506637415082    0.38268841965839795    0.425350990300424    
  0.4446157269160519    0.44667403623019497    0.44461662860413603    0.4253567477669113    0.3826785118146403    
  0.4030309287361115    0.37114425775915577    0.35020778664581886    0.3502167873975027    0.3711359058177745    
  0.4030278997074076    0.42535098249461045    0.43093457410929437    0.4309269443762373    0.42536059547057753    