#     DFTpy    
  CRYSTAL 
    
  PRIMVEC    
  1.156653380374584    -2.00338242155507    0.0    
  1.156653380374584    2.00338242155507    0.0    
  0.0    0.0    2.1771955994482752    
  PRIMCOORD    
  1    1    
  Si    0.0    0.0    0.0    
  BEGIN_BLOCK_DATAGRID_3D    
  3d_datagrid_density    
  BEGIN_DATAGRID_3D#0    
  11    11    11    
  0.0    0.0    0.0    
  1.156653380374584    -2.00338242155507    0.0    
  1.156653380374584    2.00338242155507    0.0    
  0.0    0.0    2.1771955994482752    
  0.04956968955072546    0.09244875012218694    0.2592851852803343    0.4632812791000342    0.5268760395378898    
  0.5226075558050484    0.526876064478765    0.4632812501602719    0.25928518595530425    0.09244873465076109    
  0.04956968955072546    0.09244874312339332    0.09244064943393272    0.20183939778523463    0.4014860428918277    
  0.5150904020847318    0.5181894788753493    0.5181990784758314    0.5150935210645778    0.4014198111001909    
  0.20188294650962513    0.09244874312339332    0.259285145777346    0.20183940792809174    0.25934910828709257    
  0.4014364478748143    0.5050755543721935    0.510962741119703    0.49762429120349977    0.5109453616813039    
  0.505157067374812    0.4014198290052919    0.259285145777346    0.4632812599910567    0.4014860284529988    
  0.40143644783196836    0.463252089612088    0.5150579840742775    0.5110440021212704    0.4873663662717983    
  0.487406531575373    0.5109453680016033    0.515093526367594    0.4632812599910567    0.5268760221118258    
  0.5150903914844814    0.5050755149104396    0.5150579288999914    0.526948598650324    0.5181987810891353    
  0.4975551701019682    0.4873663689073241    0.4976243063222432    0.5181991389368625    0.5268760221118258    
  0.5226075401955127    0.5181894985610873    0.510962730307492    0.5110440232268345    0.518198757865162    
  0.5225330400945158    0.5181987563225258    0.5110440376781723    0.5109627698369603    0.5181894793273503    
  0.5226075401955127    0.5268760433897751    0.5181991086959501    0.4976242634527039    0.48736636412333767    
  0.49755519708557344    0.5181987661294896    0.5269485702718788    0.5150579622078972    0.5050755284629058    
  0.5150903862504411    0.5268760433897751    0.4632812257488833    0.5150935179285346    0.5109453703428346    
  0.4874065455497349    0.4873663696321545    0.5110440334302329    0.5150579612678856    0.46325209562102293    
  0.40143643830624537    0.4014860263906468    0.4632812257488833    0.25928516726258694    0.4014198301133882    
  0.5051570574209264    0.5109453657579043    0.4976243107078775    0.510962728665004    0.505075516723804    
  0.4014364478714128    0.25934910319958115    0.20183939596396083    0.25928516726258694    0.09244873175232028    
  0.20188292587735526    0.4014198234746984    0.5150935309005367    0.5181991236869521    0.5181894873903884    
  0.5150903707292146    0.4014860123461636    0.20183939608319884    0.09244065035301083    0.09244873175232028    
  0.04956968955072546    0.09244875012218694    0.2592851852803343    0.4632812791000342    0.5268760395378898    
  0.5226075558050484    0.526876064478765    0.4632812501602719    0.25928518595530425    0.09244873465076109    
  0.04956968955072546    0.08943875881004798    0.14070706983526177    0.3046206999252816    0.4671033463738831    
  0.5010321360865517    0.49082479430022813    0.5010321426587753    0.467103346569993    0.30462070648865985    
  0.14070706501981212    0.08943875881004798    0.14070705854256554    0.14066805514383618    0.2521550980037101    
  0.42148105349810283    0.49696808266613607    0.4872232442399205    0.48724596553968674    0.49695481946896874    
  0.421435874688502    0.2521798875403027    0.14070705854256554    0.30462067401452525    0.2521551174396319    
  0.30471138576106216    0.42143568971998757    0.49068057758327954    0.4813900492877701    0.4659148596521934    
  0.48137760525001017    0.49074798927115953    0.4214358775523624    0.30462067401452525    0.4671033427167024    
  0.4214810448977579    0.42143569929036945    0.46704958571899435    0.4969397379803449    0.4814562389950288    
  0.4561268634121816    0.45615484261394645    0.4813776304509085    0.49695482197901664    0.4671033427167024    
  0.5010321335725434    0.49696804877659173    0.49068053819048657    0.49693970773406093    0.5011151410424665    
  0.4872377671511725    0.4658566300533104    0.45612685998932534    0.4659148665910546    0.4872460123655346    
  0.5010321335725434    0.4908247995703111    0.4872232439129317    0.481390062587644    0.48145624649312624    
  0.48723776826881704    0.4907399367528035    0.48723777300399496    0.4814562608508605    0.4813900342812255    
  0.4872232382234102    0.4908247995703111    0.5010321334951346    0.4872459876691682    0.4659148448791328    
  0.4561268594410112    0.46585662218002694    0.48723776060189844    0.5011150954188598    0.4969397369835134    
  0.4906805516586258    0.4969680608713049    0.5010321334951346    0.46710332448241587    0.4969548205160441    
  0.48137760428930143    0.45615485741260325    0.45612686834072697    0.4814562551293598    0.4969396995645006    
  0.4670495744091387    0.42143568245020196    0.4214810648996647    0.46710332448241587    0.30462068897958855    
  0.4214358708984687    0.4907479819635209    0.4813776188197027    0.46591487104879215    0.4813900128841248    
  0.49068056307095387    0.42143569157138305    0.3047113937475335    0.2521551029980794    0.30462068897958855    
  0.14070705742837492    0.25217988241445066    0.42143586939390876    0.49695480508307227    0.4872460131995049    
  0.48722324570029146    0.49696802701124987    0.4214810603729352    0.252155094178003    0.14066806471699092    
  0.14070705742837492    0.08943875881004798    0.14070706983526177    0.3046206999252816    0.4671033463738831    
  0.5010321360865517    0.49082479430022813    0.5010321426587753    0.467103346569993    0.30462070648865985    
  0.14070706501981212    0.08943875881004798    0.25581230390963466    0.30607993650543497    0.4120003379714536    
  0.4608758058426836    0.43440283143016506    0.41314114389115664    0.4344028311580654    0.4608757849894645    
  0.4120003795175784    0.30607992506347503    0.25581230390963466    0.30607991288933073    0.3060142638990537    
  0.3843148309283313    0.4535223400529292    0.4455860247585428    0.41142220510857186    0.4114367982924763    
  0.44557412081453357    0.45350539210107055    0.38431470332510026    0.30607991288933073    0.41200032113083873    
  0.38431483690587426    0.41208373104892304    0.4534897525924331    0.4472154327208315    0.4087353038410627    
  0.38922823169340764    0.4087330166924479    0.44724201553938003    0.4535053833873601    0.41200032113083873    
  0.4608758031492076    0.4535223581274923    0.45348975660440505    0.4608348011897699    0.44557213391314365    
  0.4087683946226446    0.38045826331547195    0.3804681454968004    0.4087330043291338    0.4455741330834272    
  0.4608758031492076    0.4344028123648332    0.4455860060073102    0.4472154090475941    0.4455721108351343    
  0.4344557510120144    0.41143073429629173    0.38919944647401616    0.380458296793075    0.38922823368861437    
  0.4114368417649623    0.4344028123648332    0.41314115372513255    0.4114222224974156    0.40873532017809494    
  0.4087684146234324    0.41143072941604575    0.4130876739980464    0.41143073215968806    0.4087684270739139    
  0.4087353197281343    0.41142219613077047    0.41314115372513255    0.4344028396231172    0.4114368213523846    
  0.3892282383447742    0.3804582751707639    0.38919945943004014    0.41143073029975524    0.434455737487611    
  0.44557211873194935    0.44721542708348194    0.44558601555605865    0.4344028396231172    0.4608757931798977    
  0.4455741315021657    0.40873300625469744    0.3804681502348632    0.3804582751854392    0.40876842027856836    
  0.44557210106855955    0.4608348120069892    0.45348978995361505    0.4535223222317179    0.4608757931798977    
  0.4120003196386104    0.4535053960873626    0.44724200201588876    0.40873302882243495    0.38922824544838397    
  0.4087352942439935    0.4472154356603675    0.4534897819852554    0.4120837035971065    0.38431484438293667    
  0.4120003196386104    0.3060799211781383    0.3843146766972891    0.45350537946786956    0.44557414027215336    
  0.4114368267368077    0.4114222113385031    0.4455859967382773    0.45352231041533914    0.3843148319456994    
  0.3060142831347224    0.3060799211781383    0.25581230390963466    0.30607993650543497    0.4120003379714536    
  0.4608758058426836    0.43440283143016506    0.41314114389115664    0.4344028311580654    0.4608757849894645    
  0.4120003795175784    0.30607992506347503    0.25581230390963466    0.5130083672827813    0.5155108930832971    
  0.4935660433091286    0.4267477901476277    0.35718224413154837    0.3295157959074323    0.3571822397726463    
  0.4267477897269141    0.49356607144493453    0.5155108726022787    0.5130083672827813    0.5155108599854922    
  0.5154898184722141    0.5040743873761725    0.45271697880990697    0.37883863232889875    0.3293126701401247    
  0.3293154027938123    0.378837431788028    0.4527136602600351    0.5040723011143098    0.5155108599854922    
  0.49356601468161543    0.5040743884819426    0.4935875416653161    0.4527084037093972    0.3866122458073011    
  0.32920180719748005    0.30748694409166644    0.32920042422575346    0.38661545482350423    0.45271364994145663    
  0.49356601468161543    0.42674781555878905    0.4527169884199458    0.45270841300016756    0.4267396571261603    
  0.3788368543515262    0.3292051932551794    0.29963627845771995    0.2996383638569028    0.329200415198384    
  0.37883744389527535    0.42674781555878905    0.3571822307245887    0.37883861028094445    0.38661222315673804    
  0.3788368316639755    0.35719259331419917    0.3293161792013169    0.30748192823727877    0.29963631270244845    
  0.30748694938081866    0.32931544179333827    0.3571822307245887    0.32951581166133875    0.3293126818092352    
  0.32920181987517083    0.3292052046965916    0.3293161930794289    0.3295013219391446    0.32931619576314836    
  0.32920521455749596    0.32920182343136895    0.3293126547223359    0.32951581166133875    0.3571822478045788    
  0.3293154209988576    0.30748694561317796    0.29963629341142173    0.30748195334372297    0.32931619061604595    
  0.3571925638347296    0.3788368472493553    0.3866122259055247    0.37883862578977107    0.3571822478045788    
  0.42674778841519473    0.3788374506974628    0.3292004210600419    0.29963836719927694    0.2996362910773843    
  0.32920521083966314    0.3788368270221417    0.4267396632339267    0.4527084270177954    0.45271698317298975    
  0.42674778841519473    0.4935660186991565    0.452713671080165    0.3866154367435658    0.329200431202405    
  0.30748697134179825    0.3292017992298685    0.38661224601917227    0.45270842783971466    0.49358751597710315    
  0.5040744062206146    0.4935660186991565    0.5155108815458307    0.5040722668947808    0.4527136524267724    
  0.37883746058573703    0.3293154218630764    0.3293126720966429    0.3788386054896529    0.45271694999185697    
  0.5040744088057499    0.5154898348479245    0.5155108815458307    0.5130083672827813    0.5155108930832971    
  0.4935660433091286    0.4267477901476277    0.35718224413154837    0.3295157959074323    0.3571822397726463    
  0.4267477897269141    0.49356607144493453    0.5155108726022787    0.5130083672827813    0.6583409079573656    
  0.6155871354047625    0.5066821815620399    0.3849957911077162    0.3006238036212694    0.27191706743527577    
  0.30062380804697997    0.3849958010254776    0.5066822007162252    0.6155871391313664    0.6583409079573656    
  0.6155871155611614    0.615587226400494    0.5396842643922871    0.42531501968361585    0.3255912066712647    
  0.2721379654854955    0.2721374983733856    0.3255920547139396    0.42531364418325984    0.5396862262021193    
  0.6155871155611614    0.5066821540812804    0.5396842920794773    0.506684114751444    0.4253138781808938    
  0.33579509677364    0.2728731182824825    0.2511115734889401    0.27287302500905225    0.3357948081119005    
  0.4253136528062341    0.5066821540812804    0.38499579421918473    0.425315022875765    0.42531389205007336    
  0.3849956980888315    0.3255913062879421    0.27287231200283846    0.2437547235683815    0.24375336375898612    
  0.2728730287428679    0.32559206605207514    0.38499579421918473    0.30062380151612444    0.3255911978067681    
  0.33579507942970566    0.3255912898786323    0.3006239284365674    0.2721396765493342    0.2511101010814431    
  0.2437547256481449    0.25111157430754405    0.2721375187087737    0.30062380151612444    0.27191707823275896    
  0.2721379646136644    0.27287311860750385    0.2728723202309163    0.27213968060452814    0.2719135652570884    
  0.2721396701151565    0.27287233076081413    0.2728731146952316    0.27213796582340655    0.27191707823275896    
  0.3006238027078341    0.2721375145623707    0.25111157201008194    0.24375471574468566    0.2511101018360112    
  0.27213966773797105    0.3006238990947649    0.325591319311419    0.3357950796507017    0.3255911999706833    
  0.3006238027078341    0.3849957726232578    0.32559205443007794    0.2728730148128717    0.2437533737822717    
  0.2437547259348666    0.2728723203234396    0.32559128808505206    0.38499568750671515    0.4253138885674356    
  0.4253150583642418    0.3849957726232578    0.50668217427787    0.42531365360479084    0.3357948034759945    
  0.2728730340155208    0.25111158402816447    0.2728730844580025    0.33579510078200103    0.42531390009521025    
  0.506684132337072    0.5396842915439652    0.50668217427787    0.6155871245188769    0.5396861897013394    
  0.42531362741619894    0.32559205106091244    0.2721375161266098    0.2721379744039246    0.325591173005857    
  0.4253150496916893    0.5396842765189721    0.6155872516066737    0.6155871245188769    0.6583409079573656    
  0.6155871354047625    0.5066821815620399    0.3849957911077162    0.3006238036212694    0.27191706743527577    
  0.30062380804697997    0.3849958010254776    0.5066822007162252    0.6155871391313664    0.6583409079573656    
  0.6849316758113099    0.6302065026778393    0.5003237256845403    0.36710275082727195    0.2805467100881266    
  0.25212494411205105    0.2805467246719632    0.3671027418217909    0.5003237376392283    0.6302064745235585    
  0.6849316758113099    0.6302064981954664    0.6302037525824221    0.5385361605198157    0.41032939621677544    
  0.30586211145917147    0.2523114483882096    0.2523126316263956    0.30585928293319    0.4103287325707701    
  0.5385400190507637    0.6302064981954664    0.5003236792387524    0.5385361892681495    0.5003280992818061    
  0.41033223503257626    0.31649491021347465    0.25307462580492396    0.2316058231844508    0.2530757523246858    
  0.3164983212938617    0.41032875173608896    0.5003236792387524    0.36710275257393266    0.41032938716382594    
  0.4103322380692889    0.36709677645857086    0.3058612037148591    0.2530768041799985    0.22437792514455634    
  0.22437581854103905    0.2530757532516093    0.3058592850126306    0.36710275257393266    0.2805467081061795    
  0.30586211598034424    0.31649487792671344    0.3058611690835461    0.280549075135701    0.2523113412875756    
  0.23160433611374256    0.2243779315028153    0.23160582902625151    0.25231266912401573    0.2805467081061795    
  0.252124940145908    0.2523114613330581    0.2530746252796676    0.2530768136383112    0.252311330260983    
  0.25212481225452454    0.25231133130170313    0.25307682742064597    0.2530746424953797    0.2523114488302559    
  0.252124940145908    0.28054672050107615    0.2523126554230973    0.23160579956441435    0.2243779289467669    
  0.23160435210260133    0.2523113350679901    0.2805490547321687    0.3058611893009543    0.31649489412351905    
  0.30586210661823593    0.28054672050107615    0.3671027235830942    0.30585927988415773    0.25307575526286163    
  0.22437582970328335    0.22437793047079838    0.2530768201215151    0.30586119297889536    0.3670967832880851    
  0.41033222567815286    0.410329398022866    0.3671027235830942    0.5003236985081806    0.4103287553957035    
  0.316498310275623    0.25307575531558607    0.23160583589057712    0.2530746198943853    0.3164948917486188    
  0.4103322371515675    0.5003281028245513    0.5385361877960021    0.5003236985081806    0.6302064681410874    
  0.5385399903786133    0.4103287422853584    0.3058592835418248    0.2523126577589671    0.25231145037216346    
  0.30586209136880527    0.41032936668522674    0.5385361892285759    0.6302037869585005    0.6302064681410874    
  0.6849316758113099    0.6302065026778393    0.5003237256845403    0.36710275082727195    0.2805467100881266    
  0.25212494411205105    0.2805467246719632    0.3671027418217909    0.5003237376392283    0.6302064745235585    
  0.6849316758113099    0.6583409088611842    0.6155871193701189    0.5066821835365677    0.38499578465912676    
  0.30062380260149546    0.2719170768226091    0.3006238022049361    0.38499579436623677    0.5066821928250349    
  0.6155871228879243    0.6583409088611842    0.6155871219013349    0.6155872198950983    0.5396842708606236    
  0.4253150257439608    0.32559120662910074    0.27213797043565136    0.2721374927281386    0.32559205912945366    
  0.42531365544522054    0.5396862134796672    0.6155871219013349    0.5066821460681826    0.5396842905179815    
  0.5066840933948776    0.4253138906680884    0.3357951012524776    0.2728731174272471    0.2511115774670292    
  0.27287302566179833    0.33579480006488077    0.425313657365838    0.5066821460681826    0.38499579830325686    
  0.42531501549423295    0.4253139086806728    0.38499568786807464    0.3255913133851257    0.2728723108205965    
  0.24375472650225358    0.24375336034579123    0.27287304007612756    0.32559206102253024    0.38499579830325686    
  0.30062380116331205    0.32559118855153596    0.3357950674593208    0.32559128473795834    0.30062392506225055    
  0.2721396685786261    0.25111010336928563    0.24375472934528844    0.25111157708072007    0.27213752749646297    
  0.30062380116331205    0.27191707720163094    0.27213796955823816    0.2728731251333605    0.27287232431091313    
  0.2721396704052197    0.2719135728951324    0.2721396725369157    0.27287233177411113    0.27287310919167646    
  0.2721379625574874    0.27191707720163094    0.3006237972308565    0.27213751158566946    0.2511115668854179    
  0.24375471535799206    0.2511100970156643    0.2721396657771746    0.30062389532411565    0.32559131041049183    
  0.33579508822539    0.3255911984101744    0.3006237972308565    0.384995784159547    0.3255920571169529    
  0.2728730170391999    0.24375337370781322    0.24375472506797746    0.2728723241730639    0.32559128474592186    
  0.3849956928566488    0.4253138898257845    0.42531503223468636    0.384995784159547    0.5066821648051122    
  0.42531365072139854    0.3357947924604322    0.27287303461527246    0.251111584375599    0.2728730928747561    
  0.33579509255927836    0.4253138962658423    0.5066841252987748    0.5396842935292561    0.5066821648051122    
  0.6155871135227142    0.5396861921773876    0.42531364418215856    0.3255920479744399    0.27213751855294754    
  0.2721379705222108    0.32559116559371803    0.4253150285061098    0.5396842866505531    0.6155872252521974    
  0.6155871135227142    0.6583409088611842    0.6155871193701189    0.5066821835365677    0.38499578465912676    
  0.30062380260149546    0.2719170768226091    0.3006238022049361    0.38499579436623677    0.5066821928250349    
  0.6155871228879243    0.6583409088611842    0.5130083454481273    0.5155108877658036    0.4935660352691637    
  0.4267477955141364    0.35718224551407063    0.3295158014972837    0.35718223598664844    0.4267477819758419    
  0.4935660790899018    0.5155108726436403    0.5130083454481273    0.515510859209621    0.5154897951382211    
  0.5040743818826818    0.4527169908326143    0.37883863480779206    0.3293126746596428    0.3293153994851566    
  0.37883743539078596    0.4527136579213878    0.5040722848775276    0.515510859209621    0.4935660213687686    
  0.5040743918855538    0.4935875538404098    0.4527084031343022    0.38661224374273695    0.32920179696457397    
  0.30748694984738295    0.3292004231719976    0.38661545884478926    0.4527136572222755    0.4935660213687686    
  0.42674780296082826    0.45271700112091867    0.4527084073843678    0.426739650947001    0.37883684921297517    
  0.3292051917982293    0.29963628246080076    0.299638366370969    0.32920041025032576    0.37883744934275676    
  0.42674780296082826    0.3571822293864389    0.3788386184602122    0.386612220539099    0.3788368244014626    
  0.35719258591684977    0.32931618432498083    0.3074819356503706    0.2996363091902776    0.3074869505977793    
  0.3293154462164025    0.3571822293864389    0.3295158137385438    0.32931268250709744    0.3292018118487664    
  0.3292052100485431    0.329316183301813    0.3295013356304555    0.3293161919477337    0.32920522148237397    
  0.32920182134076725    0.3293126633349174    0.3295158137385438    0.3571822491852633    0.32931542658792873    
  0.3074869534617834    0.299636285107877    0.30748194516700206    0.3293161855576569    0.3571925731862555    
  0.37883683560068815    0.3866122413965952    0.3788386197237634    0.3571822491852633    0.4267477891795616    
  0.3788374467639203    0.3292004045361578    0.29963837355603573    0.2996362840606984    0.3292052134460591    
  0.37883682141024594    0.42673966861289964    0.4527084271908621    0.4527169758995009    0.4267477891795616    
  0.4935660108372894    0.4527136750769574    0.386615443128837    0.3292004266079668    0.3074869608703882    
  0.32920179497185226    0.38661224922584814    0.45270843049144566    0.4935875168494228    0.5040744027642512    
  0.4935660108372894    0.5155108636871891    0.504072256364862    0.452713641107304    0.3788374661744566    
  0.3293154234696353    0.3293126821684826    0.3788386052806904    0.452716955715862    0.5040743869678332    
  0.5154898320441986    0.5155108636871891    0.5130083454481273    0.5155108877658036    0.4935660352691637    
  0.4267477955141364    0.35718224551407063    0.3295158014972837    0.35718223598664844    0.4267477819758419    
  0.4935660790899018    0.5155108726436403    0.5130083454481273    0.255812303171522    0.30607993807039785    
  0.41200033818621246    0.46087580918740445    0.43440283488808346    0.4131411388979848    0.4344028311056309    
  0.4608757974851344    0.41200036126884537    0.30607992301406756    0.255812303171522    0.30607991399130546    
  0.30601426579924224    0.3843148264058141    0.4535223309055511    0.4455860297120481    0.41142220432529525    
  0.41143680091589685    0.44557411830604793    0.4535053912949183    0.3843147020080469    0.30607991399130546    
  0.41200030851973646    0.3843148283346787    0.4120837153587392    0.4534897527176705    0.4472154382840489    
  0.40873531070607266    0.3892282336511067    0.40873302740487577    0.4472420088825496    0.4535053896548407    
  0.41200030851973646    0.4608758172304933    0.45352234041756523    0.4534897567787863    0.4608347958656076    
  0.4455721365423205    0.4087683975414255    0.3804582640307816    0.3804681479595011    0.40873301783920996    
  0.4455741404304699    0.4608758172304933    0.4344028123780905    0.4455859979154451    0.44721540666509385    
  0.44557210591082813    0.4344557519792247    0.4114307212829305    0.38919944429677483    0.3804582989304977    
  0.3892282456717274    0.41143684843129513    0.4344028123780905    0.41314115813328645    0.411422216081393    
  0.408735326965975    0.4087684031287232    0.4114307381462431    0.41308766218021287    0.4114307424813314    
  0.4087684230442977    0.40873532841530974    0.4114221893003885    0.41314115813328645    0.43440282828299326    
  0.4114368227265318    0.38922823213751084    0.38045827776594465    0.3891994651579283    0.411430733668642    
  0.4344557253070724    0.44557212236924826    0.4472154157821105    0.4455860087698583    0.43440282828299326    
  0.46087578849175354    0.4455741390595746    0.4087330182245299    0.38046815067164735    0.3804582726725472    
  0.408768423393991    0.44557210340621983    0.460834805933971    0.45348977922577444    0.4535223306247726    
  0.46087578849175354    0.4120003106354464    0.4535053999533776    0.4472419972870478    0.40873303566969343    
  0.3892282619190813    0.4087353028658201    0.44721542870148345    0.4534897646138667    0.41208370022509094    
  0.3843148337156365    0.4120003106354464    0.3060799301285298    0.3843146779464333    0.45350538704128895    
  0.4455741443049699    0.41143682247195823    0.4114222066430628    0.44558599087687656    0.45352230808145666    
  0.38431483204788275    0.30601426857043185    0.3060799301285298    0.255812303171522    0.30607993807039785    
  0.41200033818621246    0.46087580918740445    0.43440283488808346    0.4131411388979848    0.4344028311056309    
  0.4608757974851344    0.41200036126884537    0.30607992301406756    0.255812303171522    0.08943875773357145    
  0.14070707177159755    0.30462070278014014    0.46710334650649477    0.5010321492403242    0.4908247912677016    
  0.5010321571337576    0.46710335278685217    0.3046207115960063    0.14070706682881534    0.08943875773357145    
  0.14070705838652012    0.14066805556039422    0.25215508830025246    0.42148105493267213    0.49696808081275023    
  0.48722324152065716    0.4872459810886601    0.4969548087518342    0.42143586487087425    0.25217989724763545    
  0.14070705838652012    0.30462067369314805    0.2521551098821255    0.3047114010800234    0.4214356696726948    
  0.49068056940263943    0.48139005515620353    0.4659148527539377    0.4813776144048119    0.4907479980569586    
  0.42143588102482765    0.30462067369314805    0.4671033486314773    0.42148104556002747    0.4214356809389369    
  0.46704959215548125    0.4969397299855428    0.4814562405395623    0.4561268627481012    0.4561548402879526    
  0.48137762132887074    0.49695483417492825    0.4671033486314773    0.501032134128642    0.49696806599790433    
  0.490680543398521    0.49693971123858105    0.5011151281288749    0.4872377860897093    0.46585662634503194    
  0.4561268649794601    0.4659148587774947    0.4872460121003568    0.501032134128642    0.49082479991602995    
  0.4872232375371841    0.48139004646543354    0.4814562362926877    0.48723777615527636    0.4907399325038846    
  0.48723777024813403    0.48145625960667787    0.48139004134002483    0.48722324178350607    0.49082479991602995    
  0.5010321312216213    0.4872460005033427    0.4659148537510053    0.456126852774268    0.4658566232226595    
  0.4872377666190891    0.5011150972461977    0.4969397366858573    0.4906805476914572    0.49696806724558773    
  0.5010321312216213    0.46710331548917744    0.49695481079560877    0.4813776000310736    0.45615485550648227    
  0.4561268698308425    0.48145625512763257    0.4969396992000382    0.4670495740385397    0.42143567476738353    
  0.42148108083390146    0.46710331548917744    0.3046206886574132    0.42143587036619323    0.49074798991733076    
  0.481377623237298    0.46591487674890636    0.4813900012591897    0.49068056769332263    0.42143569535357894    
  0.3047113998681683    0.2521551017977119    0.3046206886574132    0.14070705963896465    0.25217987628218247    
  0.4214358522543943    0.4969548238527037    0.4872460084275647    0.48722326107522446    0.496968025490598    
  0.42148107216406205    0.25215509167425526    0.1406680636930755    0.14070705963896465    0.08943875773357145    
  0.14070707177159755    0.30462070278014014    0.46710334650649477    0.5010321492403242    0.4908247912677016    
  0.5010321571337576    0.46710335278685217    0.3046207115960063    0.14070706682881534    0.08943875773357145    
  0.04956968955072546    0.09244875012218694    0.2592851852803343    0.4632812791000342    0.5268760395378898    
  0.5226075558050484    0.526876064478765    0.4632812501602719    0.25928518595530425    0.09244873465076109    
  0.04956968955072546    0.09244874312339332    0.09244064943393272    0.20183939778523463    0.4014860428918277    
  0.5150904020847318    0.5181894788753493    0.5181990784758314    0.5150935210645778    0.4014198111001909    
  0.20188294650962513    0.09244874312339332    0.259285145777346    0.20183940792809174    0.25934910828709257    
  0.4014364478748143    0.5050755543721935    0.510962741119703    0.49762429120349977    0.5109453616813039    
  0.505157067374812    0.4014198290052919    0.259285145777346    0.4632812599910567    0.4014860284529988    
  0.40143644783196836    0.463252089612088    0.5150579840742775    0.5110440021212704    0.4873663662717983    
  0.487406531575373    0.5109453680016033    0.515093526367594    0.4632812599910567    0.5268760221118258    
  0.5150903914844814    0.5050755149104396    0.5150579288999914    0.526948598650324    0.5181987810891353    
  0.4975551701019682    0.4873663689073241    0.4976243063222432    0.5181991389368625    0.5268760221118258    
  0.5226075401955127    0.5181894985610873    0.510962730307492    0.5110440232268345    0.518198757865162    
  0.5225330400945158    0.5181987563225258    0.5110440376781723    0.5109627698369603    0.5181894793273503    
  0.5226075401955127    0.5268760433897751    0.5181991086959501    0.4976242634527039    0.48736636412333767    
  0.49755519708557344    0.5181987661294896    0.5269485702718788    0.5150579622078972    0.5050755284629058    