#     DFTpy    
  CRYSTAL 
    
  PRIMVEC    
  4.793379310344828    0.0    0.0    
  0.0    4.793379310344828    0.0    
  0.0    0.0    4.793379310344828    
  PRIMCOORD    
  8    1    
  Si    0.0    0.0    0.0    
  Si    1.198344827586207    1.198344827586207    1.198344827586207    
  Si    0.0    2.396689655172414    2.396689655172414    
  Si    1.198344827586207    3.595034482758621    3.595034482758621    
  Si    2.396689655172414    0.0    2.396689655172414    
  Si    3.595034482758621    1.198344827586207    3.595034482758621    
  Si    2.396689655172414    2.396689655172414    0.0    
  Si    3.595034482758621    3.595034482758621    1.198344827586207    
  BEGIN_BLOCK_DATAGRID_3D    
  3d_datagrid_density    
  BEGIN_DATAGRID_3D#0    
  21    21    21    
  0.0    0.0    0.0    
  4.793379310344828    0.0    0.0    
  0.0    4.793379310344828    0.0    
  0.0    0.0    4.793379310344828    
  0.05816817404957698    0.11124709123963304    0.3040240753939937    0.4692860141652396    0.4117096007635655    
  0.27830512404533647    0.17782449828278415    0.11761056801153515    0.08491586502702174    0.06914479502756518    
  0.06438862779821906    0.0691447673232715    0.084915843359466    0.11761059547155991    0.17782450353413765    
  0.2783050746109858    0.4117096110030135    0.4692860210812959    0.3040241047020449    0.11124708777141623    
  0.05816817404957698    0.11124713084338496    0.1757795050579    0.364508481004943    0.48613222876611895    
  0.41032658388838633    0.2794275423944017    0.18194534141441707    0.12275638047423008    0.09006960315910655    
  0.07403472009126211    0.06914475483476008    0.07403472565136937    0.09006959546834199    0.12275635596386376    
  0.18194538876972377    0.2794274739366366    0.4103266634493654    0.48613208734143715    0.36450847954256255    
  0.17577953084621425    0.11124713084338496    0.30402390528261564    0.3645085031210535    0.48117616903177163    
  0.4982406622537301    0.3988273670445771    0.28169232069750766    0.1942838058530001    0.13878546891587526    
  0.10659185440877794    0.09006960639007897    0.0849157667094434    0.0900696376769617    0.10659186098356078    
  0.13878550380406837    0.19428376747149412    0.28169237154668725    0.39882737052756584    0.4982405660770126    
  0.4811762206469078    0.36450849444016    0.30402390528261564    0.4692861989237409    0.48613215891150463    
  0.49824062631908544    0.45366892555374255    0.3680126136243758    0.28169160896518763    0.21399068494105958    
  0.16777475512028084    0.13878550376105236    0.12275630182849927    0.1176106340431537    0.12275632063753245    
  0.1387854968204607    0.16777475587344368    0.21399062826401863    0.28169159906122954    0.3680126508480378    
  0.45366878637165753    0.4982406759612941    0.48613200126438466    0.4692861989237409    0.41170933528193604    
  0.41032678099036474    0.3988273506912617    0.36801270437131817    0.32405678402870713    0.27942818121236185    
  0.24179906411579763    0.2139906813347238    0.19428384765496112    0.18194533716669134    0.1778243974690889    
  0.1819453964990298    0.19428376872924433    0.21399067982051465    0.24179905714023478    0.2794282468313921    
  0.3240568078662043    0.36801281781824124    0.39882725267381963    0.4103268290876784    0.41170933528193604    
  0.2783052793579967    0.2794274079062865    0.2816924474733904    0.2816916130157491    0.27942818992356566    
  0.278304465930457    0.2794281811581255    0.2816917011349427    0.2816923068071498    0.2794276370472437    
  0.2783051453108062    0.27942754845311163    0.28169236669131165    0.2816916713152507    0.27942822371645976    
  0.2783045232434202    0.2794282297055212    0.28169156983737303    0.2816924675958089    0.27942731476602395    
  0.2783052793579967    0.1778243297338173    0.18194549237702265    0.19428374871073018    0.21399072481217016    
  0.24179903331658162    0.2794281037284255    0.3240569214641466    0.36801258260114833    0.3988275435039501    
  0.4103265875751787    0.4117096018320264    0.410326554374643    0.39882752216365086    0.3680126128745358    
  0.32405685679091156    0.27942812246564047    0.24179909014831483    0.2139906559401107    0.1942837869891383    
  0.18194551882159377    0.1778243297338173    0.1176107027469329    0.12275630796910615    0.13878547481754125    
  0.16777485082582883    0.21399053943163845    0.28169168231181685    0.3680125353528652    0.4536690623226202    
  0.49824046618545437    0.48613235416090195    0.46928579047965724    0.4861322552564399    0.4982404827121342    
  0.45366894022376003    0.3680125470838488    0.28169171337533844    0.21399061437732642    0.16777477668608667    
  0.13878553347488465    0.12275625650835689    0.1176107027469329    0.08491577535303585    0.09006962871970771    
  0.10659185891333849    0.13878548704283986    0.19428379177741217    0.2816921853843457    0.39882761667539973    
  0.49824037393746456    0.4811764953642461    0.3645082302787783    0.304024101496098    0.3645082009796262    
  0.48117650905568093    0.4982404581375473    0.39882770369093645    0.2816922102442525    0.19428384638551408    
  0.13878542363769292    0.1065919081833801    0.09006960363035796    0.08491577535303585    0.06914477618895143    
  0.07403471940221912    0.09006956835246675    0.12275641548789241    0.18194529862472392    0.2794276861449988    
  0.41032645727468287    0.48613261919239037    0.3645082341731461    0.17577976204910067    0.11124691015878568    
  0.1757797604078863    0.36450812694788054    0.48613255112574516    0.41032645318005256    0.279427709004836    
  0.18194523227712056    0.12275636539372627    0.09006958382304366    0.07403469653300032    0.06914477618895143    
  0.06438862632812822    0.06914475200134035    0.08491587186611305    0.11761056332306336    0.17782452974103163    
  0.2783049315941152    0.41170979285301124    0.46928563786269695    0.3040243243293758    0.11124688520067869    
  0.05816833562079638    0.11124690206446433    0.3040242796034309    0.4692857880763457    0.4117098688777936    
  0.27830498062676007    0.17782461448169168    0.11761054170533429    0.08491587154399732    0.06914474502287114    
  0.06438862632812822    0.06914472917546165    0.07403477563905875    0.09006951571456914    0.12275649448008265    
  0.18194517629927023    0.2794277936448313    0.41032625120276967    0.48613276727195465    0.3645080603334943    
  0.17577989330801205    0.11124680431337813    0.1757798357626602    0.364507968810237    0.48613262128249746    
  0.410326352647849    0.2794277905589762    0.18194512298598056    0.12275642802515041    0.09006950466849831    
  0.07403477293979194    0.06914472917546165    0.08491592346573353    0.09006950764580518    0.10659207163004909    
  0.13878528551596306    0.19428405932655365    0.28169194839908673    0.3988279216025446    0.49824008158688    
  0.48117678287720095    0.3645079027771168    0.30402439849345997    0.3645079891076768    0.4811768323858126    
  0.49824010830518406    0.39882787124530356    0.2816919886523432    0.19428411912828794    0.13878526286818335    
  0.10659213135270951    0.09006945437405453    0.08491592346573353    0.11761049415633977    0.12275652662981636    
  0.13878521344632147    0.16777506406987286    0.21399027823949823    0.28169206870515784    0.36801216913278134    
  0.4536694128470643    0.4982400524754008    0.48613272549995706    0.46928549353711824    0.48613277056596577    
  0.4982400033683884    0.45366948495378534    0.3680121616378837    0.2816920214799354    0.2139902520290479    
  0.16777511743969808    0.1387853021162908    0.12275646874696763    0.11761049415633977    0.17782465694692037    
  0.18194517304864732    0.19428410551490155    0.2139903389522783    0.2417994313482389    0.27942772775885044    
  0.32405734457826024    0.36801215388380476    0.39882804797241544    0.410326102546897    0.4117100451069776    
  0.4103261421770951    0.3988279770218949    0.3680120448770805    0.32405733294891725    0.27942775729711056    
  0.2417994416810868    0.2139903348417091    0.19428405864696516    0.18194514605269838    0.17782465694692037    
  0.278304841336299    0.27942781670336125    0.28169200928196825    0.2816920320071275    0.2794277188718331    
  0.278304930796307    0.2794277541854255    0.28169204052522456    0.28169189537554545    0.2794280268835056    
  0.2783047039440928    0.27942792199517175    0.28169189709073    0.2816921455676238    0.2794277757487116    
  0.27830497829831696    0.2794277496391171    0.2816919961639572    0.281692069392202    0.27942782235268215    
  0.278304841336299    0.4117098466391944    0.41032632038863853    0.398827860046609    0.36801227386961155    
  0.32405721345476773    0.279427785582337    0.24179948689648165    0.21399031684845518    0.19428411465203121    
  0.18194506195916027    0.17782468807146895    0.18194509248373192    0.19428411594280506    0.2139902922949444    
  0.24179945113925655    0.27942782860644205    0.3240572163228917    0.3680122526475247    0.398827840249056    
  0.41032637696356516    0.4117098466391944    0.46928577391197823    0.48613252863336215    0.49824019343171666    
  0.4536692706486186    0.3680122084229192    0.2816919599902868    0.21399035834461386    0.16777509575094104    
  0.13878524030793402    0.12275654812226408    0.11761042614911464    0.12275654484088173    0.13878525474793607    
  0.1677750283569373    0.21399037485028363    0.2816919801058531    0.3680122904435354    0.4536692096104549    
  0.49824033648107435    0.4861325355685878    0.46928577391197823    0.30402413564916014    0.36450822627502144    
  0.4811764766250866    0.49824043891963693    0.3988276246173375    0.2816920707119221    0.1942840409319523    
  0.13878523895476394    0.1065920955389955    0.09006947159716101    0.0849158872773839    0.09006948541701743    
  0.10659206215920526    0.13878535458183514    0.19428406729673872    0.28169208408679874    0.39882775429111883    
  0.4982402932495422    0.48117663072751843    0.3645082228164827    0.30402413564916014    0.11124701759983492    
  0.17577960210077823    0.3645083116274997    0.48613245078327844    0.41032644317092626    0.2794276943238781    
  0.1819452212684527    0.12275644713300936    0.09006955903561892    0.0740347612833197    0.06914471027843883    
  0.07403480404233434    0.09006949882585825    0.12275647516973304    0.18194525557683144    0.279427647304262    
  0.41032660079009053    0.48613245905225855    0.36450832114902043    0.1757795792576291    0.11124701759983492    
  0.05816817404957698    0.11124709123963304    0.3040240753939937    0.4692860141652396    0.4117096007635655    
  0.27830512404533647    0.17782449828278415    0.11761056801153515    0.08491586502702174    0.06914479502756518    
  0.06438862779821906    0.0691447673232715    0.084915843359466    0.11761059547155991    0.17782450353413765    
  0.2783050746109858    0.4117096110030135    0.4692860210812959    0.3040241047020449    0.11124708777141623    
  0.05816817404957698    0.11124709832946456    0.1757795649446764    0.36450838345351316    0.4861323352766293    
  0.41032657470406325    0.27942761339603295    0.18194536832134212    0.12275640658152523    0.09006953975392865    
  0.0740347432906893    0.06914475855346779    0.07403472084322088    0.09006958666484424    0.12275637146851297    
  0.1819453433615777    0.2794275638692718    0.41032666227700243    0.4861322614782661    0.3645084485799573    
  0.1757795404154753    0.11124709832946456    0.17577944216652636    0.26126438300744115    0.4594065099096768    
  0.5595863020777874    0.4666126006345708    0.324057557550107    0.21546939506189414    0.14639644698596396    
  0.10586139770533752    0.08384822380388937    0.07403465220907039    0.07441320038550937    0.08549166981501179    
  0.11132208672460704    0.15998074373598645    0.2417996841030583    0.35560094600943226    0.4395609073739025    
  0.3753042059007646    0.22892759333236715    0.17577944216652636    0.36450856865252296    0.4594064044718305    
  0.5958106808913523    0.6157362465478344    0.5055375754131847    0.36801185117794427    0.25848924967695674    
  0.18328739383709078    0.13509238005783505    0.10586138074070313    0.09006963074456995    0.08549169443572588    
  0.0918378951029118    0.11142895065625887    0.14971026734210985    0.2139900683284319    0.3060828614979813    
  0.3986951382823888    0.42333887751843563    0.37530412366810173    0.36450856865252296    0.4861319808283386    
  0.5595864050436508    0.6157361332831717    0.5943343110623557    0.5055365367504876    0.39882835437275427    
  0.3060821676887812    0.23531623118246722    0.1832873283311979    0.1463965025731732    0.12275626524447245    
  0.11132213746730053    0.11142892034226473    0.12339561835648896    0.1497096899772237    0.1942844549368591    
  0.2584884373817172    0.3342823930967351    0.3986951626798143    0.4395609729027264    0.4861319808283386    
  0.41032680063218935    0.4666124986669166    0.505537886057005    0.5055366492042661    0.46661358582250384    
  0.4103257911558224    0.3556017222429581    0.30608219312962653    0.25848931698319544    0.21546931863987054    
  0.18194540713245888    0.1599806938540161    0.14971025694977735    0.1497097193766103    0.15998128623779617    
  0.18194477854189062    0.21547009040721182    0.2584884946381247    0.30608295896216686    0.3556007743493574    
  0.41032680063218935    0.279427336946912    0.3240577245599789    0.3680117512678914    0.39882840344159537    
  0.41032573906281944    0.41171040058288616    0.4103258636325007    0.39882833273956037    0.3680118448596624    
  0.3240576875225644    0.27942748534080003    0.2417997595033111    0.21399004637841018    0.194284431646889    
  0.18194479605891004    0.1778250380624651    0.18194478429498329    0.1942844611718591    0.21399002050113905    
  0.24179980414901386    0.279427336946912    0.18194545720368202    0.21546932068621696    0.25848928790475245    
  0.30608207860116327    0.35560172473494495    0.4103258323039411    0.4666135139986327    0.5055368597641208    
  0.5055375650556068    0.4666126576876562    0.41032665570088717    0.355600989369088    0.30608278616651086    
  0.25848864765923696    0.21546994668536257    0.18194476205905474    0.15998122352795063    0.14970964761630984    
  0.14971033016097168    0.1599806238530987    0.18194545720368202    0.12275627613905271    0.14639652983298304    
  0.18328726877413137    0.2353162994007626    0.30608207956797545    0.3988282212279234    0.5055368301897271    
  0.5943340652484506    0.6157364373383297    0.5595861043429458    0.4861321957957582    0.43956068965867096    
  0.3986954970748679    0.33428215420255913    0.2584886256752079    0.19428433550355131    0.14970975393524122    
  0.12339562091442555    0.11142895240400529    0.11132211728977807    0.12275627613905271    0.09006962644613133    
  0.10586138685749535    0.1350923647205844    0.1832873692858777    0.25848907304347235    0.36801192841040853    
  0.5055374463960031    0.615736414289517    0.5958102568198707    0.4594066931029714    0.3645081616813321    
  0.3753043901519767    0.42333863836047175    0.39869556219661534    0.3060827858714016    0.21399009245728656    
  0.1497102165038595    0.11142891837054851    0.09183792836359436    0.0854916681074624    0.09006962644613133    
  0.07403468467703275    0.08384821042253573    0.10586140944088007    0.14639642757336782    0.21546945531302314    
  0.32405742255766234    0.4666128427350427    0.5595860607688276    0.4594068403230868    0.26126412752814887    
  0.17577971354764363    0.22892734654920402    0.3753044445704932    0.439560655799858    0.3556011395358665    
  0.24179962322509094    0.15998076161376748    0.11132204516585766    0.08549171179217913    0.07441315237253679    
  0.07403468467703275    0.0691447446564342    0.07403475255183686    0.0900695324528518    0.12275645799877963    
  0.1819452233049031    0.2794277362567506    0.4103263676769143    0.4861324710517042    0.3645081148272033    
  0.17577980031250703    0.11124689254067609    0.17577979818896206    0.36450810752944945    0.4861325614099361    
  0.4103263785605774    0.27942770351707213    0.18194527310182332    0.12275640785286826    0.09006958250858718    
  0.07403473782732801    0.0691447446564342    0.0740347509404581    0.07441308444526382    0.08549179669165657    
  0.11132195180920965    0.15998090604665816    0.24179944520813879    0.3556012661707582    0.439560600841611    
  0.37530468331557837    0.22892725440150333    0.17577978711135547    0.26126391609279936    0.45940686610072096    
  0.5595858075136485    0.46661307312060246    0.32405730477725764    0.2154695712891699    0.14639628548559128    
  0.10586149068991245    0.08384813559549914    0.0740347509404581    0.09006948780484905    0.08549186840275888    
  0.09183774386481589    0.11142913945377202    0.14971000818596528    0.21399033457645122    0.3060824267177192    
  0.39869586411538993    0.4233382129182174    0.3753047147335268    0.36450790014311235    0.4594070207602977    
  0.5958099964485449    0.6157367940219474    0.5055371947655622    0.36801225313217567    0.258488971260239    
  0.18328752896879874    0.1350922623558286    0.10586150738895174    0.09006948780484905    0.12275648253174258    
  0.11132191457460601    0.11142908435377169    0.12339542312186601    0.14970997337902434    0.19428403807787412    
  0.2584889757257889    0.3342816994442306    0.39869590034070074    0.4395603016230159    0.486132662370072    
  0.5595855864201053    0.6157367852152971    0.5943335171851107    0.5055372211965454    0.39882778662811363    
  0.3060825028605175    0.2353159703634022    0.18328761380274264    0.14639625305535545    0.12275648253174258    
  0.18194510335027214    0.1599809464263378    0.14971000987693234    0.14970999415260577    0.15998090165641435    
  0.18194517249821485    0.21546959449710412    0.25848907050561415    0.3060824355653068    0.3556014931797531    
  0.41032613553852937    0.4666131982254647    0.5055370007531957    0.5055373425942479    0.46661301355762536    
  0.4103263224674782    0.3556013219460797    0.3060824992482488    0.25848888107924983    0.2154696343462449    
  0.18194510335027214    0.27942772289839685    0.24179944469988493    0.2139903261022017    0.19428410975981514    
  0.18194514558322616    0.1778246155344721    0.18194523039774166    0.19428397287612395    0.21399038434464038    
  0.2417993374156888    0.2794278724068381    0.32405717299945674    0.36801233565636066    0.398827891050756    
  0.41032631891546534    0.41170981304799364    0.41032622625254084    0.39882786157129024    0.3680122604004471    
  0.3240572469962546    0.27942772289839685    0.4103263439163913    0.3556013337673397    0.3060825512931923    
  0.25848891633418697    0.21546962999134364    0.18194512199116053    0.15998092839760025    0.14971004411791053    
  0.1497099582244631    0.15998102512324883    0.18194506243710304    0.2154697279396842    0.2584888488768567    
  0.30608259950231453    0.3556013498157687    0.41032631273385967    0.46661305435020406    0.5055371927146751    
  0.5055373126083645    0.4666129898898799    0.4103263439163913    0.48613240773268235    0.4395606831876527    
  0.3986955975294281    0.3342820282332363    0.2584888051915264    0.19428412771764506    0.14970998579089023    
  0.123395419517199    0.11142914057006459    0.11132190205930526    0.12275651595665993    0.14639622329792973    
  0.18328759238352924    0.23531593778427976    0.30608243572074084    0.3988279283846427    0.5055370312706083    
  0.594333770832415    0.6157367014665603    0.5595859257743827    0.48613240773268235    0.36450821349846363    
  0.3753044243279312    0.42333851086921803    0.3986957066665453    0.30608253347264297    0.2139902448577676    
  0.14971007007284498    0.11142906055947999    0.09183774419964347    0.08549183266455947    0.09006944459292651    
  0.10586152069030327    0.135092213261261    0.18328756638254337    0.25848904281602136    0.36801210151504976    
  0.5055373360699349    0.6157364784772125    0.59581035017785    0.4594066320522402    0.36450821349846363    
  0.17577954068862617    0.2289274477358518    0.37530436222703284    0.4395607792477393    0.35560104786775804    
  0.24179954581632274    0.15998077592974963    0.11132200954698182    0.08549180218848117    0.07441308011498189    
  0.07403477336605126    0.08384812709222861    0.10586145323863251    0.14639639504153315    0.21546952982256976    
  0.32405743578152524    0.4666127910439761    0.5595861764833681    0.4594066794954165    0.2612641831200637    
  0.17577954068862617    0.11124709832946456    0.1757795649446764    0.36450838345351316    0.4861323352766293    
  0.41032657470406325    0.27942761339603295    0.18194536832134212    0.12275640658152523    0.09006953975392865    
  0.0740347432906893    0.06914475855346779    0.07403472084322088    0.09006958666484424    0.12275637146851297    
  0.1819453433615777    0.2794275638692718    0.41032666227700243    0.4861322614782661    0.3645084485799573    
  0.1757795404154753    0.11124709832946456    0.3040239244676009    0.36450845992594333    0.48117632643763814    
  0.4982405365186518    0.39882745008545645    0.2816922726635836    0.19428386874839793    0.13878542239286248    
  0.10659195452293252    0.09006958628889766    0.08491583109954112    0.09006959172283995    0.10659197289135451    
  0.1387854348375421    0.1942838530315772    0.28169222847894526    0.3988274948353738    0.49824057293882085    
  0.4811763863627136    0.3645083531869152    0.3040239244676009    0.3645085000812635    0.45940641580768415    
  0.595810750353834    0.6157363014248012    0.5055375425113012    0.3680119208474809    0.2584891849300466    
  0.18328736822321684    0.13509235681242623    0.10586139922113176    0.09006956913972082    0.08549172301882765    
  0.09183786073109534    0.11142891470392023    0.14971024840450192    0.2139900170362112    0.30608287593378153    
  0.398695262666397    0.4233388282330165    0.37530419740448    0.3645085000812635    0.48117612128866916    
  0.5958107967141737    0.7065277514239132    0.7055222123469984    0.5943329939511037    0.45366972199846145    
  0.33428151550440316    0.24462648978776988    0.1798689399215772    0.1350924431457988    0.10659188869513714    
  0.09183791358547339    0.08910988121089541    0.09871790137674576    0.12339508520347997    0.1677753768068835    
  0.23531553955517656    0.3173694842872322    0.38427037653522234    0.4233388660543475    0.48117612128866916    
  0.49824071554860044    0.6157361310418374    0.7055221421738412    0.7055210206452771    0.6157371888314074    
  0.49823960899309433    0.3986961321848205    0.3173686568192492    0.24462643333398493    0.18328736223823433    
  0.13878544330680134    0.11142894436090306    0.09871789799552301    0.09871740503631445    0.11142941798651884    
  0.13878497931708644    0.18328795341176446    0.24462569480509935    0.31736949614699456    0.3986951122879887    
  0.49824071554860044    0.398827304743463    0.50553783504137    0.594332977138408    0.6157373049651675    
  0.5595851621958392    0.4861330555277007    0.43956003711340824    0.39869622922195175    0.33428161313534227    
  0.258489246292576    0.19428379126962875    0.14971028565999184    0.12339508823225478    0.11142939828134459    
  0.11132160838941227    0.12275681296305609    0.14639591210741504    0.18328801626669367    0.23531544631712126    
  0.3060830141431374    0.398827304743463    0.2816924212241214    0.368011734359013    0.4536698711594499    
  0.49823961094780295    0.48613309584268766    0.46928514337938293    0.48613314511223227    0.4982397480880655    
  0.45366972991848925    0.3680119722037749    0.2816923024200444    0.2139900720331541    0.16777533555699015    
  0.13878501608734636    0.12275676924876043    0.11761019235567141    0.12275683448226    0.1387849133618263    
  0.16777547007484628    0.21398988997050772    0.2816924212241214    0.1942836702567828    0.25848931741467696    
  0.3342814860811754    0.3986962846904828    0.4395599374864148    0.48613313410102826    0.5595853050533988    
  0.6157372925743789    0.5943332444147533    0.5055375671092392    0.39882744610870813    0.30608283106928663    
  0.23531555631284953    0.18328791903849043    0.1463959252744335    0.12275678902856085    0.11132161441302209    
  0.11142937583275331    0.12339509051920437    0.14971037333495818    0.1942836702567828    0.13878553538136343    
  0.18328730466184573    0.24462648206914006    0.31736865162970906    0.39869612486205724    0.4982397415929385    
  0.6157372011623893    0.7055212216416843    0.7055219618366193    0.6157364446961037    0.4982403104039026    
  0.39869533042046945    0.3173692974719274    0.24462583117342987    0.18328788608239469    0.13878499194079455    
  0.11142935458398029    0.09871739801688824    0.09871789720947637    0.11142884114294581    0.13878553538136343    
  0.10659187137096995    0.1350924201384708    0.17986895327031288    0.2446264543970943    0.3342815045329754    
  0.4536696026145139    0.5943333673438511    0.7055218597708546    0.7065280306820119    0.5958104509318995    
  0.48117641517009513    0.42333863340718914    0.38427060745391917    0.3173693049418982    0.2353157027338673    
  0.1677752361920985    0.12339518848983806    0.09871779946217783    0.08910993544564721    0.09183789034864208    
  0.10659187137096995    0.09006960843693956    0.10586140806373995    0.13509239034622214    0.1832874542284607    
  0.2584890601113407    0.3680119953235788    0.5055373718586145    0.6157366344466576    0.5958104368235642    
  0.4594067592064299    0.36450811203154815    0.3753045053680598    0.4233385171280923    0.3986955331406595    
  0.3060826800619378    0.21399016691350123    0.14971015963982592    0.11142894908529744    0.0918378975155402    
  0.08549169966959182    0.09006960843693956    0.08491581957392101    0.09006958294068133    0.10659199809570598    
  0.13878540401479958    0.19428390594768205    0.28169212573626295    0.39882772833619634    0.49824027639736995    
  0.48117663412409006    0.36450812166445845    0.3040242345190601    0.36450806988031453    0.4811766832839012    
  0.4982402811819015    0.39882764863934217    0.28169210805151923    0.1942839632370961    0.1387854031902639    
  0.10659198637868281    0.09006955933232717    0.08491581957392101    0.09006953768537618    0.08549177320022877    
  0.0918377805628792    0.11142909127481816    0.14971006680452442    0.21399029466703992    0.30608245994573274    
  0.39869590819377415    0.42333841351822227    0.3753047088904832    0.36450798469878626    0.45940691477116624    
  0.5958101456382111    0.6157367135911994    0.505537280450281    0.3680121634543481    0.25848893000199114    
  0.1832874878077262    0.13509228351129318    0.10586147610379541    0.09006953768537618    0.10659202289300156    
  0.09183780332452733    0.089110074191777    0.09871771037140212    0.12339534523621128    0.16777506323419436    
  0.23531591616377423    0.31736911696539527    0.384270830082721    0.4233382355551788    0.4811767773925163    
  0.5958100988397516    0.706528431590224    0.7055215696827386    0.5943336238301375    0.45366928725246974    
  0.3342819117923736    0.24462612967583403    0.17986920457659544    0.1350922458193518    0.10659202289300156    
  0.13878526615714254    0.11142908103276852    0.09871766395105046    0.0987176664482033    0.11142908940310704    
  0.1387853014607533    0.18328757689251723    0.24462610624310455    0.3173689743020407    0.3986958148344    
  0.49823988608123804    0.6157368526373784    0.7055214361740076    0.7055215726146702    0.6157367780040246    
  0.49824013182781984    0.3986957095546001    0.3173690433660356    0.24462618902694233    0.18328754244388173    
  0.13878526615714254    0.19428397608823675    0.14971005572610913    0.12339535732339411    0.111429131767273    
  0.11132184877527314    0.12275647457948839    0.14639628385034492    0.1832875879106403    0.23531604242398899    
  0.306082418601963    0.3988279505081008    0.5055370152396446    0.5943337280457256    0.6157367262564208    
  0.559585902970193    0.48613256069479    0.4395604981497025    0.3986957962890037    0.3342818507391109    
  0.2584889400310258    0.19428397608823675    0.28169200870107725    0.2139903009351672    0.16777510363157264    
  0.13878525230489797    0.12275648873034421    0.11761043861984098    0.12275651238919358    0.13878532147921682    
  0.16777495854593755    0.2139904647001477    0.28169186211869945    0.36801231955293573    0.45366919565117647    
  0.49824031987942313    0.48613257200220045    0.4692856244609547    0.48613256277268957    0.4982401353781419    
  0.45366944218779154    0.3680121778633439    0.28169200870107725    0.39882783753076334    0.3060826045090531    
  0.23531584089470195    0.18328771493149879    0.14639618722640396    0.12275653899090194    0.11132189469352365    
  0.1114291047281127    0.12339538703754896    0.1497099586095658    0.1942840930366655    0.25848889830696425    
  0.3342818893436931    0.3986957401560176    0.4395604960615414    0.4861326388492845    0.5595855975841874    
  0.6157367761610515    0.5943335923765808    0.5055373393447209    0.39882783753076334    0.4982402290988964    
  0.39869562956757704    0.3173690559834333    0.2446260964336875    0.18328760503049144    0.13878520670796368    
  0.11142915937893308    0.0987176715032262    0.09871763744755051    0.11142916291457716    0.13878522486671632    
  0.1832875817218482    0.2446261640740568    0.31736899808987684    0.39869585758242    0.49824005133247934    