#     DFTpy    
  CRYSTAL 
    
  PRIMVEC    
  5.916827586206897    0.0    0.0    
  0.0    5.916827586206897    0.0    
  0.0    0.0    5.916827586206897    
  PRIMCOORD    
  8    1    
  Si    0.0    0.0    0.0    
  Si    1.4792068965517242    1.4792068965517242    1.4792068965517242    
  Si    0.0    2.9584137931034484    2.9584137931034484    
  Si    1.4792068965517242    4.437620689655172    4.437620689655172    
  Si    2.9584137931034484    0.0    2.9584137931034484    
  Si    4.437620689655172    1.4792068965517242    4.437620689655172    
  Si    2.9584137931034484    2.9584137931034484    0.0    
  Si    4.437620689655172    4.437620689655172    1.4792068965517242    
  BEGIN_BLOCK_DATAGRID_3D    
  3d_datagrid_density    
  BEGIN_DATAGRID_3D#0    
  27    27    27    
  0.0    0.0    0.0    
  5.916827586206897    0.0    0.0    
  0.0    5.916827586206897    0.0    
  0.0    0.0    5.916827586206897    
  0.06749616769396931    0.1157306808467283    0.2767727271883571    0.40454749978853083    0.34038007444180185    
  0.215252222574669    0.12764878781603428    0.07929848576334027    0.05420420842221062    0.04128854870978369    
  0.03450519608566429    0.030962064524979654    0.02927235051100548    0.028778230616934086    0.029272365063815368    
  0.030962074854001244    0.03450520504330186    0.041288536953315025    0.054204204165838675    0.07929850290956741    
  0.12764879169342722    0.21525216270661426    0.3403801219835874    0.40454751403636885    0.27677271941934223    
  0.1157306918162049    0.06749616769396931    0.11573067186535331    0.17071676502783725    0.32252578900659795    
  0.41035097414150046    0.3302571023434649    0.20943601332758793    0.12628633712982945    0.07981870392262728    
  0.055251123410338464    0.04233380284317127    0.035378929325660974    0.03163945038744848    0.029823577265451286    
  0.02927234428872602    0.029823551237083478    0.03163943010466185    0.03537890106534197    0.042333767845699026    
  0.055251104095904356    0.0798187276993763    0.12628639463357696    0.20943600134238724    0.33025715147654305    
  0.4103510411649903    0.3225258417826522    0.17071671871206762    0.11573067186535331    0.27677272822422827    
  0.32252575986906973    0.4047709429619436    0.3986610488457244    0.2980095108036807    0.19325367194756723    
  0.12264984931940905    0.08149927260815686    0.058474790549788026    0.045554540048661205    0.03809838713804697    
  0.03383586373970227    0.03163941029017259    0.030962054820607716    0.03163942913180423    0.03383584874716416    
  0.03809839763487229    0.04555454648551145    0.05847478769190163    0.08149928712881245    0.12264986472171502    
  0.1932536536912906    0.29800954472961705    0.39866115180297584    0.4047710050268217    0.3225257826315559    
  0.27677272822422827    0.40454754915395374    0.4103510016840855    0.39866119582208753    0.33631779290042957    
  0.24755024643356452    0.1707263995106023    0.11770188648056638    0.08433131785660809    0.06387888035885782    
  0.05116537392816733    0.04308673547666795    0.038098401791264974    0.03537891003364136    0.03450524239035753    
  0.03537892062412995    0.03809839039064387    0.04308672855351803    0.05116539839903096    0.06387886917714612    
  0.0843313193175759    0.11770190343711774    0.17072636931655472    0.24755019454982607    0.3363178205442591    
  0.3986611571434327    0.4103510121818484    0.40454754915395374    0.3403801051938435    0.3302571880586916    
  0.2980095199729521    0.24755025370692854    0.1931072461883956    0.14677570713884258    0.11225193163902737    
  0.08808281855472293    0.07136490863091557    0.0595446791524107    0.05116538931733325    0.04555454947273395    
  0.04233380238221322    0.041288518937890824    0.042333792153028564    0.045554561217043404    0.05116538214128251    
  0.059544706172745245    0.07136490842994922    0.08808280946178118    0.11225191481766121    0.14677573030520058    
  0.19310729198000878    0.24755027709055144    0.29800957733926414    0.33025719729454656    0.3403801051938435    
  0.2152521423041703    0.20943601957182448    0.19325368448805114    0.17072637701215174    0.1467756924654938    
  0.12497412086736599    0.10689488076476228    0.09250127394197383    0.08088171920716065    0.07136487116392583    
  0.06387885457460775    0.058474759235958906    0.0552511198078104    0.05420420986538936    0.05525111502205779    
  0.058474771722295996    0.06387886648106034    0.07136491215004452    0.08088173113386163    0.09250129332706372    
  0.10689487028222912    0.12497409261475262    0.14677569590435646    0.17072635485533463    0.1932536836064828    
  0.20943604431941323    0.2152521423041703    0.12764878287751316    0.1262864026734422    0.1226498793581682    
  0.11770191481963474    0.11225189482526701    0.10689493133557276    0.1019408720764895    0.09721119111198749    
  0.09250131433259375    0.08808280575821918    0.08433133391247419    0.0814992836646945    0.07981869755094544    
  0.07929850033584991    0.07981869593175694    0.08149933066156269    0.08433129043523604    0.08808283502757935    
  0.09250129538018997    0.09721120585800107    0.10194082322720187    0.10689491601053189    0.11225191562472625    
  0.1177019241647125    0.12264984655360524    0.12628641685908684    0.12764878287751316    0.07929850222382036    
  0.07981870328724983    0.08149930785386736    0.08433131381669456    0.08808278037151719    0.09250128745980253    
  0.09721118718038547    0.10194083471137097    0.10689488417387351    0.11225191042689754    0.11770188554993015    
  0.1226498730960625    0.12628637458057268    0.12764879635703555    0.12628640144136938    0.12264983991891483    
  0.11770187072005381    0.11225195907668845    0.10689491617608968    0.10194084424672158    0.09721116058029224    
  0.09250129366167695    0.08808283327456098    0.08433131209235877    0.08149927137568629    0.07981869371996968    
  0.07929850222382036    0.054204172633007225    0.05525111235243377    0.05847479287763626    0.06387887687680727    
  0.07136484265342626    0.0808817589936468    0.09250128393937496    0.10689486765686491    0.12497404669588823    
  0.14677566251794485    0.17072638445916374    0.19325368151818784    0.20943604067993427    0.21525218834291235    
  0.20943600721145691    0.19325361218791126    0.1707263495514175    0.1467757305787458    0.12497409789132899    
  0.10689487546095468    0.09250128351882635    0.08088175902069844    0.07136487458513735    0.0638788742645936    
  0.05847477819356763    0.055251106207413705    0.054204172633007225    0.0412885401018051    0.0423337695426532    
  0.04555454804035534    0.05116538678426921    0.05954468045550676    0.07136489202673285    0.08808282882425933    
  0.11225193572275928    0.146775697708631    0.19310724974492385    0.2475502162797671    0.29800953710435024    
  0.33025720089375465    0.34038007891207195    0.33025708608877763    0.29800950752605787    0.24755026323090626    
  0.19310726767298947    0.1467756853714299    0.1122519371972267    0.08808279236465164    0.07136490820337817    
  0.05954471572343567    0.05116538029017746    0.04555456784682397    0.04233378191644353    0.0412885401018051    
  0.034505219812372714    0.03537891946681878    0.03809839306482955    0.04308672379302831    0.051165357249888174    
  0.06387886531763039    0.08433128106055357    0.11770190625187628    0.17072635299375155    0.24755023187565112    
  0.33631786043239786    0.3986611706328783    0.41035102667148443    0.4045475263309408    0.4103510205929041    
  0.39866106556595554    0.336317922285762    0.24755027079682965    0.1707263748236725    0.11770191860393084    
  0.08433129871282645    0.06387889669329083    0.05116538260534063    0.043086736339378644    0.038098363628546024    
  0.035378936437938636    0.034505219812372714    0.030962086938137515    0.03163943346890649    0.03383585286723298    
  0.03809838631205206    0.045554543988842865    0.05847476895050988    0.08149928144471631    0.12264986287812484    
  0.19325365969242025    0.29800949196738574    0.39866111279985966    0.404771035917078    0.32252582784184475    
  0.27677270578144036    0.3225257988187497    0.404770951440949    0.3986611389413092    0.2980095008784555    
  0.19325369305932025    0.12264985610502076    0.08149927231731531    0.05847477235066833    0.04555455690936968    
  0.03809838176063527    0.03383585991514476    0.031639430637862696    0.030962086938137515    0.02927234423357021    
  0.029823576445080574    0.031639434553644576    0.035378905193670346    0.04233378253163715    0.055251121116212    
  0.07981872112989648    0.12628637586141125    0.20943598829801818    0.3302571195569397    0.41035091943409796    
  0.32252582391642093    0.1707167345316537    0.11573066842904996    0.17071672082765804    0.32252579885274457    
  0.4103509930201644    0.33025717134676763    0.20943602718855253    0.1262863923772626    0.0798186799474386    
  0.05525113236052174    0.04233378880361021    0.035378926796978245    0.031639436184471015    0.029823582496081285    
  0.02927234423357021    0.02877823061414018    0.02927234082772078    0.030962072866388964    0.034505198870362755    
  0.0412885485747263    0.054204209657478686    0.0792985050395487    0.12764881293506544    0.21525213089405687    
  0.3403801292585515    0.4045474885368824    0.27677270748564464    0.11573066089167587    0.06749619230912504    
  0.11573067243306795    0.2767727544700943    0.4045474772067681    0.3403801232902924    0.2152521336621422    
  0.12764875961589767    0.079298498779915    0.05420422483685    0.04128855877676084    0.03450521963131532    
  0.030962057438273276    0.02927235630169154    0.02877823061414018    0.029272349230017564    0.029823558265124304    
  0.031639443088012524    0.035378907623515456    0.04233378863362659    0.05525111193176712    0.07981869448789769    
  0.12628637291261174    0.20943602720284807    0.33025709264054953    0.41035100951901604    0.32252585482893037    
  0.17071676216362153    0.11573065970179726    0.1707167274209055    0.3225258150863421    0.4103509211583559    
  0.33025713412123286    0.2094360220969426    0.12628638735901984    0.07981870588340671    0.055251119001823105    
  0.04233378128202476    0.03537891926585155    0.031639422661471545    0.029823595014242567    0.029272349230017564    
  0.030962074819914188    0.031639455139054265    0.033835860921381744    0.03809839488602947    0.045554543414673264    
  0.05847477825091964    0.08149928067498263    0.12264987481216842    0.19325365095714173    0.29800951882824783    
  0.39866111064817006    0.4047710573505002    0.32252577921552844    0.2767727742623179    0.3225258442457544    
  0.4047710161209113    0.39866107391579986    0.2980095554639174    0.19325368519479938    0.12264983667987406    
  0.08149927232809129    0.05847478239686811    0.045554563012452615    0.0380983747073315    0.03383587808460694    
  0.031639425437836294    0.030962074819914188    0.034505215435566935    0.03537891531303398    0.03809840119962096    
  0.043086717467864834    0.05116538232773962    0.0638788644580222    0.08433129253241048    0.11770187708297386    
  0.17072634486195848    0.2475502380145719    0.3363178310222584    0.39866117896457764    0.4103510593337287    
  0.40454743609953875    0.41035106662548854    0.3986611066231096    0.3363178633326315    0.24755023603714904    
  0.17072641527662305    0.11770192023757776    0.08433128458948712    0.06387890293659948    0.05116535784856752    
  0.04308672867791441    0.038098395828439345    0.03537890732290097    0.034505215435566935    0.04128856508973591    
  0.04233377882113477    0.04555455637138944    0.05116539336018439    0.059544704355503714    0.07136488383597786    
  0.08808280828957077    0.11225196383024709    0.14677570056767927    0.19310720481217586    0.24755020786689783    
  0.29800951440835227    0.3302572004944495    0.3403800921793849    0.3302571242483423    0.29800956621124225    
  0.24755025633579406    0.1931072797695668    0.14677570968366707    0.11225194825125072    0.08808281414778624    
  0.07136488388305824    0.05954470551389972    0.051165376137079374    0.045554549428183475    0.04233377949481619    
  0.04128856508973591    0.05420419153633665    0.055251097986974085    0.05847477556717254    0.06387886879788263    
  0.0713648454752712    0.08088178884235328    0.09250129903498311    0.10689487691597928    0.12497410730010915    
  0.14677570458687147    0.1707263510545438    0.19325367479252017    0.20943602549574744    0.21525216934921393    
  0.20943602054797275    0.19325362920153372    0.17072638932961187    0.14677569175957195    0.12497410840630763    
  0.10689490226055003    0.0925012763620002    0.08088175709144783    0.07136488413970225    0.06387889984412633    
  0.058474770639713645    0.05525111877235736    0.05420419153633665    0.07929850656316671    0.07981872093292919    
  0.08149932667016123    0.08433130985553665    0.08808277854604    0.09250132527067277    0.09721118997987226    
  0.10194084032084318    0.10689487982344359    0.11225194699882751    0.11770189686153075    0.12264985514664986    
  0.12628638950177037    0.12764880985435775    0.1262863985508159    0.122649889151411    0.11770189376579855    
  0.11225196634193547    0.10689488498977805    0.10194083474687042    0.09721117091032294    0.09250131824041544    
  0.08808281774730164    0.08433131413872458    0.08149926964890826    0.07981870701895186    0.07929850656316671    
  0.12764878142936784    0.1262863965378667    0.12264987492667542    0.11770186263042376    0.11225191463322043    
  0.10689489677764097    0.10194084770068773    0.09721119187141467    0.09250129900240923    0.08808278710454343    
  0.0843313099566943    0.08149926672102228    0.07981872741264334    0.07929850203488388    0.07981872075597732    
  0.08149928821262759    0.08433131004629602    0.08808282163223538    0.09250128101467348    0.09721118404724526    
  0.10194081654221422    0.10689488790051128    0.11225193024956447    0.11770190627543015    0.12264984640015426    
  0.12628639871442407    0.12764878142936784    0.21525217448821954    0.20943603632390784    0.1932537002099212    
  0.17072635290859123    0.1467756436853733    0.12497415075544223    0.10689487050236927    0.0925013048622647    
  0.08088172607077215    0.07136487583373742    0.06387886957211825    0.05847478375132347    0.055251112894740884    
  0.05420420544473768    0.05525111157645311    0.058474780269223425    0.06387887393776033    0.071364881758834    
  0.0808817393794986    0.09250129630240764    0.10689486440667842    0.12497409142999598    0.1467756790879275    
  0.17072636940313368    0.19325365955795334    0.20943599456457704    0.21525217448821954    0.34038009227092314    
  0.33025714949890206    0.29800950657144665    0.24755024660768593    0.1931072740217132    0.14677572129981312    
  0.11225197167271951    0.08808279608029106    0.07136489841717908    0.059544672142287716    0.051165398746826844    
  0.045554530862674594    0.04233378625175975    0.041288524828812116    0.042333776666512064    0.045554533831243256    
  0.05116541434055202    0.05954469402688522    0.0713648625931123    0.08808280432974724    0.1122519430434889    
  0.1467757592451027    0.1931072684040237    0.24755026850356351    0.29800954679298136    0.3302571567334536    
  0.34038009227092314    0.40454760018805197    0.4103510221113746    0.3986611410052494    0.3363178305582103    
  0.24755021872066496    0.17072636693829435    0.11770189202530335    0.08433128025372773    0.06387889625297251    
  0.051165365108599564    0.043086727093541353    0.038098389055847746    0.03537892929129254    0.034505217600798305    
  0.03537891648994799    0.03809837742010772    0.0430867395197939    0.051165359359388256    0.0638788669104973    
  0.08433131943735146    0.11770189282112017    0.17072636553850998    0.2475501646779907    0.336317844959663    
  0.3986611429147969    0.41035105455414117    0.40454760018805197    0.27677270424496025    0.32252579493938266    
  0.40477098368085856    0.39866116021834175    0.29800955512288557    0.19325365699692965    0.12264982913125808    
  0.08149929240684135    0.05847478129930661    0.04555452654837237    0.03809840081358213    0.03383585332031071    
  0.031639435794608296    0.030962056464029112    0.03163943884561272    0.033835848833111574    0.03809838590753322    
  0.045554522372338375    0.058474771814158465    0.08149928761445603    0.12264985032909945    0.19325363643948953    
  0.2980094900892211    0.39866113156850747    0.40477108164020215    0.32252581692039217    0.27677270424496025    
  0.11573068038148876    0.17071672748140126    0.3225258077525447    0.4103510107953028    0.33025713513859356    
  0.20943607818551566    0.1262863388791002    0.07981869694369155    0.05525112376877054    0.04233380085968666    
  0.035378920031686564    0.03163943431563022    0.029823574068324768    0.02927234983800632    0.029823559959231822    
  0.03163943724576717    0.035378931910940443    0.042333791455724336    0.0552511122147959    0.07981871973578733    
  0.12628637944086973    0.20943599382845962    0.33025714594353284    0.4103510225774467    0.3225258033284115    
  0.17071674922045074    0.11573068038148876    0.06749616769396931    0.1157306808467283    0.2767727271883571    
  0.40454749978853083    0.34038007444180185    0.215252222574669    0.12764878781603428    0.07929848576334027    
  0.05420420842221062    0.04128854870978369    0.03450519608566429    0.030962064524979654    0.02927235051100548    
  0.028778230616934086    0.029272365063815368    0.030962074854001244    0.03450520504330186    0.041288536953315025    
  0.054204204165838675    0.07929850290956741    0.12764879169342722    0.21525216270661426    0.3403801219835874    
  0.40454751403636885    0.27677271941934223    0.1157306918162049    0.06749616769396931    0.11573067724678096    
  0.17071670835902786    0.3225258036935081    0.41035097925493064    0.3302571278823259    0.20943606100697773    
  0.12628637533888606    0.0798187058434198    0.055251123072457956    0.04233378530178767    0.03537891636436827    
  0.03163944072870586    0.029823566326400163    0.029272353070502837    0.02982358297575528    0.0316394393898242    
  0.03537888426977818    0.04233376580199824    0.055251104216300195    0.07981869512282606    0.12628639414190462    
  0.20943599143318042    0.33025715488531787    0.41035101898367066    0.32252581339734215    0.17071672955584696    
  0.11573067724678096    0.17071673169621623    0.23198782573686857    0.37299088604600805    0.43070933152051005    
  0.33975387861601886    0.22011728990142704    0.13716801583124452    0.08917671782562084    0.06262404614379519    
  0.047847798099788126    0.03927393878631458    0.03420110259536353    0.031282856861296685    0.029823555767370686    
  0.029573747382515232    0.030669015868289875    0.033604868435670794    0.03953444754663556    0.050908729748900004    
  0.07286995429595743    0.11468969210083707    0.18995889230946997    0.3023011590684885    0.3927679155176097    
  0.34724280188942647    0.2219310304042194    0.17071673169621623    0.322525808330763    0.37299086714735225    
  0.44494679170127577    0.4280481338881747    0.3263337350596664    0.22131944104529422    0.14741165694688638    
  0.1015040283799743    0.07377391363186546    0.056718101678175176    0.04576984361803083    0.03866193932007962    
  0.03420106638965866    0.0316394265174813    0.03066901584779261    0.031241596608437203    0.03371400730829851    
  0.038975502871148295    0.048963721502190055    0.06775179018047779    0.10252594216964513    0.16371596164401298    
  0.25750649284878835    0.35759377666098396    0.3912361683047469    0.34724270551097863    0.322525808330763    
  0.41035104654459337    0.4307093924555283    0.42804820001694627    0.37405572243416496    0.2909660338649142    
  0.21423127176461737    0.1566520469498454    0.11653189321081442    0.0889068626583131    0.06945907674013335    
  0.05553484545313999    0.045769846787588005    0.03927394234498281    0.03537893584258547    0.03360487590585984    
  0.03371400342559299    0.035826175473692816    0.04051405181790889    0.049070481361269215    0.06426243817791102    
  0.09079560327895869    0.13515096289689982    0.20253690045621092    0.2862346952628055    0.3575938458184178    
  0.39276790376123977    0.41035104654459337    0.33025714283192403    0.33975397334213114    0.32633381951922924    
  0.2909660448445779    0.2456804281633701    0.20186784989528933    0.16406198963392515    0.13297172317034459    
  0.10748740598547028    0.08637778660053701    0.06945907929465366    0.05671811275881343    0.04784780632070032    
  0.042333767211692165    0.039534463674749894    0.03897551823072693    0.040514052591460736    0.04433231271463888    
  0.05109663467890702    0.06233135205382068    0.08055380139708533    0.10896094327247773    0.15010379244018202    
  0.20253696897832724    0.2575065204772099    0.30230120840100727    0.33025714283192403    0.20943593948263295    
  0.22011729085211054    0.2213194259946346    0.21423126555931546    0.20186784444889144    0.18620972095738542    
  0.16817222743119714    0.14865952213300543    0.12808803914569855    0.10748737909417176    0.08890684489299479    
  0.07377389920525668    0.06262404370735236    0.05525111078328208    0.05090873803760005    0.04896370595713136    
  0.049070479882388246    0.05109661971079085    0.05523079269837245    0.062022881442275066    0.07245851860458534    
  0.0878317776681281    0.10896091073171812    0.1351509430942208    0.16371598451930722    0.18995889948730627    
  0.20943593948263295    0.12628641234383023    0.13716807928468136    0.1474117267091579    0.15665204725135573    
  0.16406196926212516    0.1681722905955398    0.1673599683347261    0.16076945013719224    0.14865956567026342    
  0.13297171075110348    0.1165319073663334    0.10150404195331172    0.08917673126893698    0.07981871590981666    
  0.0728699285166696    0.06775180431303988    0.06426242497453558    0.062331353521077985    0.06202287578302183    
  0.06347809018382534    0.06683726563930534    0.07245854957730018    0.08055382282813571    0.09079560800640785    
  0.10252597449675942    0.11468971337597983    0.12628641234383023    0.0798187130014812    0.08917674798017963    
  0.10150404046344523    0.11653188486279505    0.1329716820521677    0.1486595540061757    0.1607694512704312    
  0.16735995343326768    0.16817226721362064    0.16406194242103544    0.15665204620749723    0.14741169488327985    
  0.13716805649939492    0.1262863826996735    0.11468970822578005    0.10252595303112266    0.0907956022908897    
  0.080553850730387    0.07245853529428313    0.06683727634558001    0.06347804877763707    0.06202288391740485    
  0.06233137095634828    0.06426244055945693    0.06775176146170278    0.07286994758639068    0.0798187130014812    
  0.05525111075958405    0.06262403011283975    0.0737739082568931    0.08890685727133689    0.10748736651531514    
  0.12808808488748233    0.14865954060233816    0.16817225452973475    0.1862096506353734    0.20186782569381645    
  0.21423125649098385    0.22131940338314474    0.22011729740374564    0.2094359923835742    0.1899588890209229    
  0.16371596630016513    0.13515093464989747    0.10896090410207712    0.0878317728340805    0.07245852005961594    
  0.06202285250518156    0.055230821566277115    0.05109662350139647    0.04907046597144319    0.048963716409002336    
  0.05090872604208788    0.05525111075958405    0.04233376285196097    0.04784779414032909    0.05671809948780774    
  0.06945909413215173    0.08637778452716727    0.10748738670951197    0.1329717344078818    0.16406200095168982    
  0.20186787551608604    0.2456804929689094    0.2909660405986942    0.3263337596467214    0.339753984667629    
  0.3302570500488627    0.30230115110198186    0.25750648304162405    0.20253701068470653    0.15010380443813218    
  0.10896089035108146    0.08055382612695587    0.06233134696955957    0.0510966478582014    0.04433231147468705    
  0.040514041502994244    0.03897550795373108    0.03953445686735017    0.04233376285196097    0.035378944667673405    
  0.03927391906316496    0.04576985764606254    0.05553483207502177    0.06945906748244245    0.08890684316239204    
  0.11653186924227625    0.15665205847617172    0.21423123261347224    0.290966044080999    0.3740557569417866    
  0.4280483196160341    0.430709374129831    0.41035103434358206    0.39276787897273696    0.3575938045231674    
  0.2862347344954106    0.20253697905196333    0.13515097653731215    0.09079561349719587    0.06426242947850717    
  0.04907048521057385    0.04051404669095035    0.0358261630064042    0.03371399183902275    0.03360487696220912    
  0.035378944667673405    0.03163944614620421    0.03420109767828664    0.03866189953751526    0.045769837914346724    
  0.05671809322889797    0.0737739000841306    0.10150402379644598    0.14741169784810373    0.22131938297169473    
  0.3263336963673081    0.4280482695053115    0.4449468711661843    0.3729909036373293    0.322525767370969    
  0.34724275896615464    0.39123612355962056    0.3575938399231029    0.2575064897896988    0.16371601081720544    
  0.10252595357547546    0.06775176987127296    0.04896371619386277    0.03897551560577068    0.0337140230336615    
  0.031241579625531923    0.030669031627511695    0.03163944614620421    0.029823578732354698    0.03128282888402165    
  0.034201091821150095    0.03927392912246107    0.047847791745248835    0.06262405249240624    0.0891767319288123    
  0.13716807139988232    0.220117259582201    0.33975392463547943    0.4307092603231388    0.3729909189452237    
  0.2319877606408344    0.17071671591287071    0.22193097178968532    0.34724281443215327    0.39276785724377533    
  0.3023011889621097    0.18995889930645182    0.11468970900457216    0.07286990308684443    0.05090874173103999    
  0.03953447183610195    0.03360486357509785    0.030669024685798806    0.029573753786544765    0.029823578732354698    
  0.029272359839356252    0.02982358520581666    0.03163943313502809    0.03537890317540741    0.04233378316153383    
  0.05525111413015531    0.07981872684289891    0.12628639344152287    0.20943600742488996    0.33025715115382864    
  0.41035100474630154    0.32252577031397905    0.17071669928169717    0.1157306662209072    0.17071674961271463    
  0.3225258010813161    0.4103509893455633    0.3302571461967838    0.20943599925702885    0.126286359902463    
  0.07981871376080826    0.05525114532964863    0.042333790573713725    0.0353789220800406    0.03163942910705154    
  0.02982358139415361    0.029272359839356252    0.02982357288966    0.029573751994988403    0.03066903803901258    
  0.03360486871706862    0.039534467351043295    0.050908740076587036    0.07286991502448002    0.11468970361909188    
  0.1899588900094204    0.3023011212067759    0.39276783230490303    0.3472428063772695    0.22193101142957705    
  0.17071670358568988    0.23198777504510792    0.3729909605124262    0.4307093019390309    0.339753897758267    
  0.22011728969793254    0.1371680687222191    0.08917672007837137    0.0626240405456927    0.04784779539813445    
  0.03927393188495514    0.03420108538842774    0.03128284728516623    0.02982357288966    0.03163943591711686    
  0.030669046978622726    0.03124159770251669    0.03371402240474748    0.03897549498428785    0.0489637165141435    
  0.06775177550087962    0.10252596883899547    0.16371597110991762    0.2575064574742787    0.35759378330686437    
  0.39123613593016926    0.34724281937836654    0.3225257874711814    0.3729909308601885    0.44494676959062257    
  0.428048193230929    0.3263337596786132    0.2213194013038637    0.14741167438075267    0.10150401339428364    
  0.07377389380215385    0.05671810287451018    0.04576984693689281    0.03866191486704107    0.034201086527888766    
  0.03163943591711686    0.03537892911192567    0.03360487102583014    0.033714011425401105    0.035826171497512355    
  0.0405140501129327    0.049070468774885564    0.06426240803812805    0.09079561471154966    0.13515092133364645    
  0.20253695035567368    0.2862346651928703    0.3575939325785    0.3927679239993086    0.4103509795814558    
  0.43070937384385244    0.42804813072993575    0.3740557591266204    0.29096600543843404    0.21423129516618472    
  0.15665207371147288    0.11653185849270056    0.0889068592065732    0.06945905536938822    0.0555348106407989    
  0.045769842692866686    0.03927392036104065    0.03537892911192567    0.042333786364680465    0.039534459528086346    
  0.03897551779805466    0.04051404760262223    0.04433230288400702    0.051096618402398326    0.06233134270265677    
  0.08055381383040072    0.10896093525968932    0.15010376109784265    0.20253695149644532    0.25750647664722637    
  0.30230124400276487    0.3302571621449398    0.33975392749957284    0.3263337708626003    0.2909660532907507    
  0.24568050483870077    0.20186786825268763    0.1640620051793071    0.13297174207971216    0.10748740336776785    
  0.08637779252950445    0.06945910135228503    0.05671809306543342    0.04784777988557944    0.042333786364680465    
  0.0552511081061213    0.05090871935511093    0.04896371582243259    0.0490704684696562    0.05109657860388924    
  0.05523083346211945    0.06202286489596004    0.07245853078725728    0.08783176615975381    0.10896093939091278    
  0.13515092805923878    0.16371601975517683    0.18995886535811554    0.2094360200171975    0.22011727684205507    
  0.22131941629468602    0.21423124991770368    0.20186785391715223    0.18620968342716274    0.16817229367461384    