#     DFTpy    
  CRYSTAL 
    
  PRIMVEC    
  5.838344827586207    0.0    0.0    
  0.0    5.838344827586207    0.0    
  0.0    0.0    3.216551724137931    
  PRIMCOORD    
  4    1    
  Si    0.0    0.0    0.0    
  Si    2.9191724137931034    2.9191724137931034    1.6082758620689654    
  Si    0.0    2.9191724137931034    0.8041379310344827    
  Si    2.9191724137931034    0.0    2.4124137931034477    
  BEGIN_BLOCK_DATAGRID_3D    
  3d_datagrid_density    
  BEGIN_DATAGRID_3D#0    
  25    25    15    
  0.0    0.0    0.0    
  5.838344827586207    0.0    0.0    
  0.0    5.838344827586207    0.0    
  0.0    0.0    3.216551724137931    
  0.06623741991359146    0.12029762433849982    0.2931309097906765    0.3923095488109504    0.3025387321432841    
  0.19586128477773498    0.14382094439425425    0.13841176988633774    0.17110156053822922    0.23573736196182635    
  0.3101279891830829    0.36036025865180854    0.374980322156562    0.36036028528881936    0.3101280444517345    
  0.23573733600424474    0.17110152748190588    0.1384117713475684    0.1438209417888483    0.1958613248797802    
  0.3025386836507586    0.39230945037913084    0.29313097075455424    0.12029764184195774    0.06623741991359146    
  0.12029764473401576    0.1809200306782009    0.3337981615521223    0.38446927830863403    0.2838997298791251    
  0.18386253752174503    0.13605581210750659    0.13122659140837958    0.16143697634093906    0.22142028526509305    
  0.2925086916850846    0.3439553002127064    0.3604146780087362    0.34395515607159244    0.2925087002702776    
  0.2214203531634759    0.16143693241676935    0.1312265609865067    0.13605583648401795    0.1838625048079193    
  0.2838997491693669    0.3844692059589091    0.33379814117327883    0.1809200050778846    0.12029764473401576    
  0.2931308612820929    0.3337981253877484    0.3875077849224982    0.3412084770551723    0.2346166709860776    
  0.1537712138195491    0.11620183086011189    0.11248036238336098    0.13643223555064637    0.18412998296062708    
  0.24337122637913253    0.291345133342199    0.30895268093392914    0.2913451854400046    0.2433712056058293    
  0.1841300205523949    0.13643218992081302    0.11248034825650884    0.11620183625145629    0.15377122006016852    
  0.23461668924557985    0.34120846220424234    0.38750789343875414    0.33379817725610383    0.2931308612820929    
  0.39230943019301695    0.38446918479479836    0.341208539679555    0.25731834171597395    0.17338146260066356    
  0.11797562613324654    0.09215865734586587    0.08954367520132642    0.1060483240252237    0.13852720799212884    
  0.1794797978746036    0.21459522697217073    0.22841430351701897    0.21459518846894132    0.17947985580640147    
  0.1385272309872137    0.10604836296347615    0.08954367770155662    0.09215861969899004    0.11797560805252436    
  0.17338147019304342    0.2573182619719837    0.3412085074059625    0.3844692586241853    0.39230943019301695    
  0.3025386208841417    0.28389983236221644    0.2346167317947349    0.17338151353428138    0.12115430193030441    
  0.0873596016735505    0.07116627642273636    0.06938155590913547    0.07949117428134975    0.0990627730872932    
  0.12342719181122926    0.14427738224256373    0.15255740907090007    0.1442772925508199    0.12342719141652403    
  0.09906279310038223    0.07949117147600954    0.06938156246996618    0.07116629283126709    0.08735962941353803    
  0.12115428793982529    0.17338150468433353    0.2346166965616976    0.2838998195275583    0.3025386208841417    
  0.19586124383644257    0.183862500901272    0.1537712700172243    0.11797556891687737    0.0873596388038382    
  0.06693681240018602    0.05672627692637592    0.05525132823606156    0.06098568727121993    0.07224396956044646    
  0.08599750586703246    0.09743522670517907    0.10190589927776897    0.0974351968436907    0.08599752352558312    
  0.0722439981566357    0.06098569556047582    0.055251312188737196    0.056726254787520414    0.06693680634908361    
  0.0873596329758522    0.11797560655184303    0.15377126468085717    0.18386249998421436    0.19586124383644257    
  0.14382096224296714    0.13605581819926293    0.1162018190176978    0.09215862816034662    0.07116627964014531    
  0.05672625734689051    0.04916736025542324    0.047571683620107476    0.050907861131679326    0.05789364203955332    
  0.06632052752042611    0.07318186950524229    0.0758342075988344    0.07318184260296835    0.06632053145222506    
  0.057893639193744025    0.05090786612285117    0.04757166054962208    0.049167359551986714    0.0567262735088217    
  0.07116628144922377    0.09215861192740697    0.1162018614839663    0.13605580560737918    0.14382096224296714    
  0.1384117026569451    0.13122661793642815    0.11248034625271236    0.0895437107552667    0.06938156521393203    
  0.0552513117201704    0.0475716705321712    0.04546706529052124    0.04779723963999058    0.05325736113004228    
  0.05993251418650675    0.06537825531785232    0.06748469436979893    0.06537821668986486    0.05993251547363124    
  0.05325737849433073    0.04779724930727817    0.04546706353363728    0.047571669505439916    0.055251307619462085    
  0.0693815609133165    0.0895436898982921    0.11248031709278046    0.13122657545075872    0.1384117026569451    
  0.1711015207659404    0.16143691981741023    0.13643222097512975    0.10604831114230698    0.07949116560483953    
  0.06098569300344027    0.05090786682422217    0.04779725975723568    0.04993070147973805    0.05573110705041006    
  0.06308915663459393    0.06924315035046574    0.07166088221897456    0.06924313755619377    0.06308913870598454    
  0.05573115616532709    0.04993069139185714    0.04779723562295867    0.05090785500528033    0.060985692905475855    
  0.07949118021596016    0.10604833054678214    0.136432246476954    0.16143694020960547    0.1711015207659404    
  0.23573735186265776    0.22142024936445948    0.1841300581383487    0.13852725014200168    0.09906279199183338    
  0.07224399516915464    0.05789362967668773    0.05325738602910167    0.05573113387885466    0.0632122354707787    
  0.07298980973840262    0.08139121099019712    0.0847521807730284    0.08139117049221889    0.07298982201404926    
  0.06321228847725677    0.055731139077284136    0.05325736694266746    0.05789359992406715    0.07224399242782276    
  0.09906278947047299    0.13852722677861878    0.18413004885846151    0.2214203432500216    0.23573735186265776    
  0.31012793263023897    0.2925087724392846    0.24337124243936575    0.17947981694428022    0.12342719041497358    
  0.08599751322525682    0.06632052126306974    0.059932538350202916    0.06308916447220986    0.07298977637139648    
  0.0861720725421788    0.09771110918357778    0.1023702397151625    0.09771102314238625    0.08617210834141531    
  0.072989769024706    0.06308916561154426    0.059932530283481535    0.06632051108810012    0.08599752820975996    
  0.12342719168421018    0.1794797689702352    0.24337121435415734    0.29250874299448604    0.31012793263023897    
  0.36036029571270123    0.34395519945101694    0.2913451036645954    0.21459515914186253    0.1442773141697183    
  0.09743519191267563    0.0731818559788924    0.06537822578450116    0.06924310987773806    0.08139115252846763    
  0.09771109122746137    0.11208533307672346    0.11786614261776487    0.11208526434152297    0.09771106532041854    
  0.0813911518302074    0.0692431798648886    0.06537821938385444    0.0731818619520337    0.09743518307605188    
  0.14427733954867142    0.21459513892707166    0.29134510142564496    0.3439551872991131    0.36036029571270123    
  0.37498038028876934    0.3604146853151066    0.3089527396437875    0.22841436277758642    0.15255739742562965    
  0.10190592559010785    0.07583421768607444    0.06748472957466266    0.07166085266749132    0.08475219771765943    
  0.10237029203603852    0.1178661709635823    0.12405861025608507    0.1178661673539808    0.10237027428696581    
  0.08475219987532975    0.07166084794198169    0.06748468225830405    0.07583419359583045    0.10190592269208029    
  0.15255744437205868    0.22841425511167437    0.3089527936613364    0.36041473065214824    0.37498038028876934    
  0.36036022722503114    0.34395528679564774    0.29134512307522004    0.21459524545152578    0.14427733065220325    
  0.09743519012738908    0.07318186778830486    0.06537824461097816    0.06924315335864034    0.08139116615454375    
  0.09771102595820796    0.11208532373142367    0.11786614435048454    0.11208528740048446    0.09771106492620123    
  0.08139115432680143    0.06924312962992729    0.06537822287112237    0.07318186160629017    0.0974352075778699    
  0.14427734769931655    0.2145951990529669    0.2913450817683573    0.3439551665095458    0.36036022722503114    
  0.31012802366348224    0.29250871672429574    0.24337116641256487    0.17947976908585808    0.12342716773985439    
  0.08599750601573065    0.06632051291504362    0.05993255033314858    0.06308913714707491    0.07298979661486907    
  0.08617210918704778    0.09771110704128826    0.10237022956921335    0.0977111068284146    0.08617210137018227    
  0.07298982690523306    0.06308917128425916    0.05993254272113563    0.0663204929133104    0.08599751295551676    
  0.1234271843655256    0.179479758767767    0.2433712188483262    0.29250872912041137    0.31012802366348224    
  0.235737377604976    0.22142028222157695    0.18413002851509977    0.13852724435922514    0.0990627966825686    
  0.0722439798066975    0.05789362614752236    0.05325737331757033    0.055731137039049077    0.06321221833849308    
  0.0729898018997569    0.08139116331947346    0.0847521778738244    0.08139118420496304    0.07298979156580039    
  0.06321230160026846    0.05573113113787738    0.05325737495740246    0.05789360615105689    0.07224400374543578    
  0.09906282093799657    0.13852725008137373    0.18413000766249177    0.22142029352972592    0.235737377604976    
  0.17110149933200264    0.16143687652317468    0.13643229173253352    0.10604833375588409    0.07949117304438398    
  0.0609857040156865    0.05090786451194084    0.04779724985982652    0.04993070421870482    0.05573113757451233    
  0.06308914884373419    0.06924317514578818    0.07166085303472755    0.06924315320499222    0.06308913697661472    
  0.0557311412797201    0.04993068667839319    0.04779724163523988    0.050907879184588674    0.06098570119707691    
  0.07949115306385744    0.1060483553065222    0.13643226518143112    0.16143695497826416    0.17110149933200264    
  0.13841172204717633    0.13122657230712165    0.11248037975941058    0.08954362694979272    0.06938156534570739    
  0.05525129994956277    0.0475716581586354    0.04546706542757861    0.047797231929482986    0.053257355957705164    
  0.059932516591242005    0.0653782559929744    0.06748470744392583    0.0653782348455552    0.05993252160155877    
  0.05325739505220822    0.04779722861523866    0.045467047385526295    0.04757165069551157    0.055251305885793356    
  0.06938155397520195    0.08954367980517866    0.11248034484987812    0.13122661573038633    0.13841172204717633    
  0.14382097065879249    0.13605577704725572    0.11620184210367783    0.09215865294911578    0.0711662846404308    
  0.0567262718452514    0.049167369184878906    0.04757166431325863    0.05090785150542238    0.05789363007275607    
  0.06632052939283109    0.07318184815732288    0.07583419514872566    0.0731818704532402    0.06632051299370902    
  0.05789362113461059    0.05090786627926276    0.047571671391111243    0.04916736535598328    0.0567262665403416    
  0.07116629611573048    0.0921586050518514    0.11620185883702351    0.13605580649638443    0.14382097065879249    
  0.19586128032692265    0.1838625539627504    0.15377124540649906    0.11797562151496943    0.08735961593519424    
  0.06693682937098382    0.05672626208231921    0.05525134079921981    0.06098569287252484    0.07224397604152982    
  0.08599750978634771    0.09743521458144629    0.10190591367863998    0.09743518250454566    0.08599751478436336    
  0.07224401168494207    0.06098567867978102    0.05525131116955453    0.056726256502116684    0.06693681371085641    
  0.08735961318547307    0.11797563428658002    0.15377125298523844    0.18386250657260106    0.19586128032692265    
  0.3025386449380537    0.2838997730463509    0.23461663550078868    0.1733814495674858    0.1211542885052658    
  0.08735959922319796    0.07116626354901162    0.069381578751756    0.07949117698998207    0.09906275889140652    
  0.1234271713706626    0.1442774009105557    0.1525574146482788    0.14427730729983357    0.12342718538784961    
  0.09906281030370256    0.07949117879307677    0.06938156877714526    0.07116626102286563    0.08735962995965008    
  0.12115434164388379    0.1733814319173579    0.2346167347106877    0.2838998352979911    0.3025386449380537    
  0.39230944850368943    0.3844691823558593    0.3412085651787494    0.257318363367448    0.17338148563389139    
  0.11797563115395497    0.09215863447914042    0.0895436946108905    0.10604832274536916    0.13852717848370444    
  0.17947980336239983    0.21459525726803141    0.22841433871896066    0.21459519981927924    0.1794797706068118    
  0.13852719162051064    0.10604835573017969    0.0895436763585974    0.0921585992273161    0.11797565406120882    
  0.1733814689391627    0.25731833034463364    0.3412084960898946    0.3844692779968213    0.39230944850368943    
  0.29313080956490173    0.3337981950404839    0.38750793274965945    0.3412085636211544    0.2346166678601254    
  0.15377121713615605    0.11620183003230382    0.11248034572197498    0.1364322451489283    0.18412993806396552    
  0.2433711229393288    0.29134513467102763    0.30895273305893056    0.29134507905653173    0.24337112811939834    
  0.18413002211857277    0.13643226786637438    0.11248032734592496    0.11620184184945036    0.1537712537430611    
  0.23461669975100488    0.3412085450455361    0.3875077962924091    0.3337982070288166    0.29313080956490173    
  0.12029768323563406    0.18091997137701957    0.33379813241350204    0.3844692111295685    0.2838997656698906    
  0.18386248725494456    0.1360558022172673    0.13122659787851046    0.1614368912256391    0.2214202336947441    
  0.29250874895567003    0.3439552112649933    0.36041461161575167    0.3439552202851623    0.29250872534472977    
  0.22142031302439213    0.16143684389206875    0.13122656131091373    0.13605582550496712    0.18386248652833925    
  0.28389973583664196    0.38446919832749815    0.3337981364429273    0.18092003022719244    0.12029768323563406    
  0.06623741991359146    0.12029762433849982    0.2931309097906765    0.3923095488109504    0.3025387321432841    
  0.19586128477773498    0.14382094439425425    0.13841176988633774    0.17110156053822922    0.23573736196182635    
  0.3101279891830829    0.36036025865180854    0.374980322156562    0.36036028528881936    0.3101280444517345    
  0.23573733600424474    0.17110152748190588    0.1384117713475684    0.1438209417888483    0.1958613248797802    
  0.3025386836507586    0.39230945037913084    0.29313097075455424    0.12029764184195774    0.06623741991359146    
  0.11404901692953297    0.17449444738939246    0.33032614656926584    0.384399618157592    0.2815980288554146    
  0.17693751324593562    0.123139251280529    0.10901212708050528    0.12314627037996213    0.1593186911229823    
  0.20739483477201362    0.2490979863716439    0.2652976173859575    0.24909805790692402    0.20739487272700427    
  0.15931867284511964    0.12314628113024449    0.10901211237120216    0.12313919005019816    0.17693751473118796    
  0.28159801751204655    0.3843995471032858    0.3303262882529557    0.17449445347032913    0.11404901692953297    
  0.1744798268210309    0.23430483723574297    0.3603174809827372    0.37283651145396807    0.26426729331541354    
  0.16654378956206167    0.11698109553440288    0.10399767797701509    0.11712254350843658    0.15053805003033052    
  0.19501402934695575    0.2338351769925196    0.24902956682572835    0.23383501192752945    0.19501400034026706    
  0.15053808354240922    0.1171225375454525    0.10399764793620024    0.11698110288057041    0.1665438014803425    
  0.26426729670071    0.3728365097448764    0.3603174811915758    0.2343047471650784    0.1744798268210309    
  0.33071494830418274    0.3606415231177792    0.3876464012778635    0.3249991365130635    0.21882053827432812    
  0.14041305082276787    0.10126195923548115    0.09094396807067283    0.10149073645715284    0.12801739975421045    
  0.1631997049202533    0.19412000064331503    0.20638710866439525    0.19412005164372123    0.16319970057044159    
  0.12801742009141878    0.10149073508181011    0.09094396864454342    0.10126194712474555    0.14041304638248703    
  0.21882051167669428    0.32499917397700434    0.38764651145602425    0.3606415310225047    0.33071494830418274    
  0.38862367919871726    0.3766257872508028    0.3277023774370004    0.24409949234979117    0.16318584523729396    
  0.10928622712929292    0.08214877522290234    0.07484798323581593    0.08227474745195028    0.10065273330268919    
  0.12467479465309517    0.14565760885978096    0.15402621900517663    0.14565755982939227    0.12467482601445234    
  0.10065276826709793    0.08227476990920962    0.07484797261162239    0.08214875033634045    0.10928624606982436    
  0.1631858360713638    0.2440994472944363    0.3277023365235968    0.37662574783206143    0.38862367919871726    
  0.29307376501938065    0.2746584160343056    0.22657713525887238    0.16730510426516562    0.11644680567647454    
  0.08282997451730081    0.06540920030136455    0.06058256194530554    0.06527678880505937    0.07684993136692128    
  0.09169692435039188    0.10440814042226892    0.1094370286576165    0.10440804898358666    0.09169690954602808    
  0.07684995754854197    0.0652767827277324    0.06058257269160222    0.06540920968267923    0.08282999320024136    
  0.11644680094428977    0.1673050385712517    0.22657708846921568    0.27465835286163404    0.29307376501938065    
  0.19781907200766574    0.18561764396009447    0.15495965374452775    0.11847228540597181    0.08708316239558926    
  0.06568399177178319    0.05418572881077801    0.050776970379486294    0.05359398738901225    0.06081362994024824    
  0.06990291891322015    0.0774955808087108    0.080478844229522    0.0774955694959608    0.06990290391714281    
  0.0608136589322884    0.053593992556169465    0.05077695813986403    0.05418572748604345    0.06568398129950126    
  0.08708316093341112    0.11847231013300516    0.15495960257495303    0.18561766309566763    0.19781907200766574    
  0.1580330775104447    0.1490904879091358    0.1262866153114632    0.09884838433467616    0.07496171096071175    
  0.05833623934971507    0.04914235407856372    0.04613509901342471    0.047927829962026595    0.05305555209061945    
  0.05946449205868807    0.06475374053346103    0.06683688415652549    0.06475373477664519    0.05946447704812682    
  0.05305554760996953    0.04792783696650785    0.046135088735600335    0.049142349847108704    0.05833626701939747    
  0.07496172243201034    0.09884837154017963    0.12628665015610954    0.1490905227158618    0.1580330775104447    
  0.1688597102902288    0.15918749895587198    0.13430980587406777    0.10430617317533947    0.07824734677640324    
  0.06008079298103272    0.049933640526723624    0.04636841137981294    0.047769144206399855    0.05257889758395202    
  0.05877768477236214    0.06393431861039382    0.06595371018736236    0.06393426840167006    0.058777686321423966    
  0.052578915359815494    0.04776914907806687    0.04636839652648175    0.049933644015423266    0.06008078955439799    
  0.07824732336198965    0.10430616807092791    0.13430975132464573    0.15918751409504156    0.1688597102902288    
  0.2278289044457854    0.2137645168426661    0.17752334724806607    0.1336971716594881    0.0959298156351698    
  0.07012878119503638    0.055975109131156275    0.05088127677115391    0.05235008907406876    0.05829923729948233    
  0.06628974156056401    0.073094710134408    0.0757648944936218    0.07309469041450282    0.06628972083007006    
  0.058299256843369895    0.052350086377138796    0.05088127141424441    0.05597510757994041    0.07012879188256597    
  0.0959298062493071    0.13369724095753752    0.17752338903808002    0.21376454061287606    0.2278289044457854    
  0.3211935024991469    0.3028998035027298    0.25181407799268674    0.1851671200761164    0.12646687709518187    
  0.08715570529418336    0.06615340014734092    0.05862711504228219    0.06054525324170956    0.06889329910555461    
  0.08032510335620825    0.09030100847153774    0.09426573561918297    0.09030097916577166    0.08032513805628658    
  0.06889332617231352    0.06054526812361797    0.05862711240992512    0.06615338004948193    0.0871556884869751    
  0.12646684913000092    0.18516711358809948    0.2518141046418012    0.3028998018449694    0.3211935024991469    
  0.38642467208135167    0.3765497112218036    0.33054474236146913    0.24684472442211486    0.16381598829577879    
  0.10750987958307798    0.07800837767141335    0.06758072966819424    0.07014138841506115    0.08153929635619805    
  0.09738183689360687    0.11149197196230963    0.11717010816825175    0.11149193292531495    0.09738182106178245    
  0.08153929777910346    0.07014138819708336    0.06758072755167083    0.07800837519797052    0.1075098872302938    
  0.16381601397110676    0.2468447075585579    0.3305447719673708    0.37654974132355007    0.38642467208135167    
  0.37557084478235614    0.38701422178683353    0.37543439274193313    0.2956100216470421    0.19544481534767247    
  0.12451591419197212    0.087693690182866    0.07484876527182564    0.0779737406088608    0.09203050175709238    
  0.1117803994412565    0.12954295747125966    0.13669287497941007    0.12954290504887656    0.11178037302400924    
  0.0920305694171492    0.07797378580992674    0.07484872165773361    0.08769368065701497    0.12451590262591364    
  0.19544483266376572    0.29561000741939664    0.37543446763043264    0.3870143272651325    0.37557084478235614    
  0.353377874257232    0.3755745511133513    0.3852438351090376    0.31328943548768035    0.20788875438904145    
  0.13120244625301145    0.09146907519531397    0.0776680498254027    0.08103388878364934    0.09618192717358813    
  0.11753156354943628    0.13673300040307762    0.14443927405327425    0.13673300627579243    0.11753156867389675    
  0.09618191777006731    0.08103385777238067    0.07766801512229254    0.09146907269419897    0.13120242966304357    
  0.20788880698799694    0.31328939536273587    0.3852438689570802    0.37557454822426184    0.353377874257232    
  0.37557074735045654    0.38701434387759115    0.37543439930899547    0.2956101488535117    0.19544482295758356    
  0.12451592952841883    0.087693719508038    0.07484874819022486    0.07797377389837928    0.09203054092075745    
  0.1117803129150095    0.12954296481832075    0.13669284309411933    0.1295429348693174    0.11178035760849331    
  0.09203056481381562    0.0779737389293853    0.07484873994220524    0.08769370301255093    0.12451592315546983    
  0.1954448609144906    0.2956101335748331    0.37543444978768015    0.3870142617731251    0.37557074735045654    
  0.3864247349766215    0.3765497128851818    0.33054468321005503    0.24684468816074795    0.16381598076147294    
  0.10750987106078426    0.07800838475583885    0.0675807327343193    0.07014137722956842    0.08153931651939778    
  0.09738182944395153    0.11149196486118253    0.1171701045306961    0.1114919332258091    0.09738184665071209    
  0.08153932857997977    0.07014135359437458    0.06758073862520989    0.07800835807570655    0.10750988826225559    
  0.16381596889236877    0.24684473077380098    0.33054475485388535    0.37654968508570325    0.3864247349766215    
  0.32119353792402255    0.30289976639014315    0.25181408472277467    0.18516712339292582    0.12646687778231014    
  0.0871556755547495    0.06615339233585228    0.05862708712324568    0.060545251828341674    0.0688932749383278    
  0.08032511777403112    0.09030097910086061    0.09426569866844554    0.09030097678081224    0.08032510601740805    
  0.06889331566983152    0.06054525962134035    0.058627092527073356    0.06615339050944764    0.08715570390074782    
  0.12646687781179344    0.18516706688411955    0.25181406246857735    0.30289980195507116    0.32119353792402255    
  0.2278288758537273    0.21376449922662438    0.17752347166634072    0.1336972364762468    0.09592980068521602    
  0.07012878231579633    0.05597511538519143    0.0508812788503767    0.05235010137828958    0.05829923289948212    
  0.0662897455845988    0.07309469329936458    0.07576488092044471    0.07309468470122164    0.0662897578758732    
  0.058299266575712674    0.05235008548596997    0.050881269285702954    0.05597512615000723    0.07012878754114012    
  0.09592978311412047    0.1336972346297542    0.17752342495328846    0.21376447770817644    0.2278288758537273    
  0.16885969823642874    0.1591874950591542    0.13430980855683303    0.10430609306029551    0.07824734445057721    
  0.06008077368879189    0.049933638604738546    0.04636840895263199    0.04776914214951605    0.05257889138330523    
  0.058777673493418635    0.06393429965497749    0.06595370969163046    0.0639342895577808    0.0587776759949888    
  0.052578910711828394    0.04776913305712579    0.04636838490197157    0.04993363947601708    0.06008077635054898    
  0.07824733498742509    0.10430613540051398    0.1343097574063148    0.1591875005882712    0.16885969823642874    
  0.15803304873841836    0.14909047976066808    0.12628664484857557    0.09884838584825914    0.07496171010561561    
  0.05833626329404905    0.049142363533324754    0.046135099736172865    0.04792781415970305    0.05305554093123267    
  0.05946449375237906    0.06475373061415544    0.0668368693859394    0.06475374556632674    0.05946448442480974    
  0.05305554097861889    0.0479278390770784    0.04613510449953185    0.049142352022724795    0.05833626281361997    
  0.07496173113507566    0.09884834121496389    0.12628665086544627    0.1490904854002967    0.15803304873841836    
  0.19781903646278073    0.18561765923528217    0.1549596188705753    0.11847234533516392    0.08708314464853331    
  0.06568400529665833    0.05418572834183127    0.050776974633237125    0.05359398740449027    0.060813627936650495    
  0.06990290712049237    0.07749559453831127    0.08047886164933414    0.07749556746449078    0.06990288603745617    
  0.06081366792608024    0.05359398007015167    0.050776953765064095    0.05418574445519954    0.06568398357960979    
  0.0870831497954345    0.11847233865144413    0.15495964634224427    0.18561765857206827    0.19781903646278073    
  0.29307370670495064    0.2746583350761048    0.22657709266080547    0.167305040665805    0.11644680085133988    
  0.08282996638901975    0.06540918329176439    0.0605825779480393    0.0652767935535431    0.07684991312458136    
  0.09169692499478913    0.10440810678733282    0.10943700601569768    0.10440806266788272    0.09169692065897458    
  0.07684994648748003    0.0652767747561993    0.060582574217162684    0.06540918664877308    0.08282998467158334    
  0.11644681433932333    0.16730501436449902    0.2265770880710337    0.27465838371907225    0.29307370670495064    
  0.38862374488946005    0.3766257895782543    0.3277024159364876    0.2440995048650404    0.16318582505647944    
  0.10928621527593563    0.08214875646205946    0.07484800159287286    0.08227476085418287    0.10065273209969318    
  0.12467482651637321    0.14565761119472406    0.15402623701719473    0.14565758803312073    0.12467480584538848    
  0.10065275093826413    0.08227476332661224    0.07484798292279672    0.08214873228526809    0.10928623065522337    
  0.16318584811277356    0.2440994371087496    0.32770231035619896    0.3766257843778084    0.38862374488946005    
  0.3307149112039842    0.36064153657895015    0.3876465294933242    0.32499933888390653    0.2188205454894893    
  0.14041304338382166    0.10126193274206353    0.0909439533136417    0.10149078895400761    0.12801741067805633    
  0.16319967631849563    0.19412007612805654    0.20638715302837504    0.1941200008974249    0.16319964539692844    
  0.1280174322425093    0.10149079583681633    0.09094395333809223    0.10126194369612189    0.1404131023158403    
  0.21882049885897187    0.3249992465390792    0.3876463416602157    0.3606415791731134    0.3307149112039842    
  0.17447985124839444    0.23430477615707826    0.3603175190034613    0.3728364674512574    0.26426735050854816    
  0.16654374584413564    0.11698107850353008    0.10399769626736856    0.11712247187458684    0.15053796773584904    
  0.195014054654317    0.23383517147837246    0.24902951424668407    0.23383508058902183    0.1950140642033997    
  0.15053809176428493    0.11712249088001564    0.10399763118555679    0.11698107744455928    0.16654375668081994    
  0.2642673356729144    0.3728364057624498    0.360317423598859    0.2343047242661192    0.17447985124839444    
  0.11404901692953297    0.17449444738939246    0.33032614656926584    0.384399618157592    0.2815980288554146    
  0.17693751324593562    0.123139251280529    0.10901212708050528    0.12314627037996213    0.1593186911229823    
  0.20739483477201362    0.2490979863716439    0.2652976173859575    0.24909805790692402    0.20739487272700427    
  0.15931867284511964    0.12314628113024449    0.10901211237120216    0.12313919005019816    0.17693751473118796    
  0.28159801751204655    0.3843995471032858    0.3303262882529557    0.17449445347032913    0.11404901692953297    
  0.2718531855317824    0.3179953129981018    0.38651999312930674    0.3476281600094875    0.23594390100683912    