#     DFTpy    
  CRYSTAL 
    
  PRIMVEC    
  6.703241379310345    0.0    0.0    
  0.0    6.703241379310345    0.0    
  0.0    0.0    6.703241379310345    
  PRIMCOORD    
  8    1    
  Si    0.0    0.0    0.0    
  Si    1.6758103448275863    1.6758103448275863    1.6758103448275863    
  Si    0.0    3.3516206896551726    3.3516206896551726    
  Si    1.6758103448275863    5.027431034482759    5.027431034482759    
  Si    3.3516206896551726    0.0    3.3516206896551726    
  Si    5.027431034482759    1.6758103448275863    5.027431034482759    
  Si    3.3516206896551726    3.3516206896551726    0.0    
  Si    5.027431034482759    5.027431034482759    1.6758103448275863    
  BEGIN_BLOCK_DATAGRID_3D    
  3d_datagrid_density    
  BEGIN_DATAGRID_3D#0    
  29    29    29    
  0.0    0.0    0.0    
  6.703241379310345    0.0    0.0    
  0.0    6.703241379310345    0.0    
  0.0    0.0    6.703241379310345    
  0.07656616157399025    0.1353197865178776    0.31893763954380483    0.4173353370549791    0.3042947174161909    
  0.16922665370448753    0.09025824564648338    0.05182210922058023    0.03381983801640369    0.02517022343405949    
  0.02071866276799489    0.018296347249469175    0.016896553753103213    0.016138379591500617    0.015887494933331463    
  0.01613837652309938    0.016896556890603227    0.018296342035752897    0.020718664941111308    0.02517021736163265    
  0.03381982923160564    0.051822149724391295    0.09025825448719409    0.16922663075688626    0.30429466991663845    
  0.4173352262889504    0.3189376021353623    0.13531979875678843    0.07656616157399025    0.13531979806024624    
  0.20058625273331337    0.36328937514191345    0.4114246646791797    0.2879958699942902    0.16105378560917974    
  0.08759589513118415    0.051430199995387955    0.034186368492513906    0.025718162741476657    0.02124037848047519    
  0.018720358391121687    0.01722433806041662    0.016408245831288727    0.016138375732530328    0.016408244718305067    
  0.01722434970944012    0.018720352923594592    0.021240387051627185    0.02571814806244157    0.034186367684320096    
  0.05143021013306037    0.08759592015832111    0.16105372799690718    0.2879958942788896    0.41142479513945024    
  0.36328940463679854    0.20058627597310366    0.13531979806024624    0.31893766680895574    0.3632893626065172    
  0.42261593468967534    0.3694493541813037    0.24255839742474075    0.1397948142054711    0.08078236260175847    
  0.050552258905137565    0.03532271745756305    0.027323082176197267    0.02276633023030026    0.019978358117443435    
  0.01821817991139583    0.017224340341734243    0.0168965576792347    0.01722433889804792    0.018218190774229082    
  0.019978363046965677    0.022766319052171115    0.02732307643578683    0.0353227041787859    0.050552295652277215    
  0.08078234327097446    0.13979480171312236    0.24255835791930613    0.36944948836777436    0.4226159206226424    
  0.363289385323973    0.31893766680895574    0.41733527829944717    0.41142477680479367    0.36944943307331213    
  0.2793373062223907    0.1828667925061993    0.11348755830386247    0.07242684580457738    0.049826651855751025    
  0.037344474115330116    0.029996535474091385    0.02530065467405271    0.022118674662641762    0.019978363634626784    
  0.018720359605625785    0.0182963504288471    0.01872035018604251    0.01997836555867647    0.022118680008537006    
  0.02530067261544372    0.029996516733219163    0.037344466721887154    0.049826637430914686    0.0724268523940481    
  0.11348753104326553    0.18286678884139634    0.27933731631533537    0.36944937057023025    0.4114246433196513    
  0.41733527829944717    0.30429463697847015    0.28799587510843394    0.24255836925876362    0.18286676718306238    
  0.12870639091440914    0.08967877679841245    0.06488889456260163    0.04982668819119175    0.0403118621346251    
  0.033739342012794014    0.02890513298334859    0.025300660535130578    0.022766318542410312    0.021240373320587237    
  0.02071864395942278    0.021240372310195245    0.02276632429836691    0.025300660020872476    0.028905146818898764    
  0.033739344706543745    0.040311847918024175    0.04982671114888354    0.06488888823880992    0.08967878911337211    
  0.12870632585635114    0.1828668084557613    0.2425583186128743    0.28799589378020257    0.30429463697847015    
  0.16922666342807227    0.16105373887485228    0.1397948323717501    0.1134875370967563    0.08967878858742513    
  0.07161320153583749    0.059154622991206114    0.05055221651221106    0.04394465581016245    0.03841024022003563    
  0.03373933806805542    0.029996520288689665    0.027323096458220338    0.025718149477792947    0.025170219036662275    
  0.025718146594811007    0.027323093230229682    0.02999649509760981    0.03373935480306233    0.038410223147471945    
  0.04394464643518431    0.050552227138219094    0.05915464390486218    0.07161318192885543    0.08967880250602345    
  0.11348755781068993    0.13979483811495969    0.16105376879747943    0.16922666342807227    0.09025824481843998    
  0.08759587816575595    0.08078231177820175    0.07242685131286557    0.06488889276511002    0.059154623827423376    
  0.05497327989725486    0.051430239237353355    0.047767550695257954    0.04394464891092871    0.04031186196395924    
  0.03734448533038649    0.0353227002898904    0.03418638596539362    0.033819810586054974    0.034186385827090104    
  0.03532270032122236    0.037344472686682985    0.04031184367639496    0.04394464614978654    0.04776754281863113    
  0.051430266714246935    0.05497326738348149    0.05915463008024956    0.06488886616814127    0.07242688277065384    
  0.08078230879516103    0.08759588387467453    0.09025824481843998    0.05182216341590648    0.051430183282798594    
  0.05055230779223105    0.049826655002249386    0.04982671428276755    0.05055224150514187    0.05143025485488706    
  0.051822080968597965    0.05143026510614492    0.05055224246189415    0.04982671809220279    0.04982664225160709    
  0.05055230607250337    0.05143019698461736    0.0518221509201549    0.05143018261297458    0.05055230634104295    
  0.04982665169296542    0.04982673751809154    0.05055220469750995    0.05143026966080259    0.05182204180557645    
  0.051430291663347255    0.05055222337661416    0.049826724888410105    0.049826636442061506    0.05055229017680469    
  0.051430187885297685    0.05182216341590648    0.03381981793614137    0.03418638876690449    0.03532268041799332    
  0.03734447356039051    0.04031182741690487    0.04394465013158921    0.04776756360214277    0.051430241046427606    
  0.05497325875544207    0.059154642995139804    0.06488887285582742    0.07242686770740592    0.08078232489833831    
  0.08759589770422868    0.09025820188852866    0.08759588165319743    0.08078234656909956    0.07242688441238097    
  0.06488889454847813    0.05915464566098544    0.05497322908161932    0.05143027054404747    0.047767554594692015    
  0.043944654534713704    0.04031182710953777    0.03734448982211743    0.03532267338577815    0.03418639868509133    
  0.03381981793614137    0.02517023346678865    0.02571813520532845    0.02732308499528094    0.029996515854667984    
  0.033739349627856095    0.03841023210724783    0.04394464929015962    0.050552207122438124    0.059154663329046196    
  0.07161319179566915    0.08967878038493318    0.11348753800872753    0.13979485547906553    0.16105371372951705    
  0.16922665028545403    0.16105374752195611    0.13979484831096028    0.1134875007205875    0.08967882115809317    
  0.07161316351419601    0.05915463746157406    0.05055220286475962    0.04394466984538566    0.038410230787389345    
  0.03373935779914534    0.02999649787095779    0.02732308746086076    0.025718143223827587    0.02517023346678865    
  0.020718640722527843    0.021240383571443023    0.02276631890375317    0.025300670901190554    0.028905115780531704    
  0.033739348751904825    0.04031183733340251    0.049826702232147836    0.06488889043927852    0.08967881329246334    
  0.12870634769740216    0.18286680932099358    0.24255835349869243    0.28799588120849523    0.3042946320766244    
  0.287995925876594    0.2425583335530593    0.18286680711102435    0.12870635946394798    0.0896788004497601    
  0.06488886109599529    0.04982672453514298    0.04031183820666043    0.03373937251460329    0.028905119005457836    
  0.02530067257424433    0.022766297644434497    0.021240388831687218    0.020718640722527843    0.01829635804515392    
  0.018720353515363896    0.01997837565991908    0.022118687066787643    0.025300679484259684    0.029996505250243118    
  0.0373444901513142    0.04982663281829392    0.07242688849327109    0.11348753626121201    0.18286684020289412    
  0.27933724884970484    0.36944948111593556    0.411424575737585    0.4173353356328672    0.41142470394543645    
  0.369449463082465    0.2793371927516188    0.18286684806698228    0.11348750925294612    0.07242687947157836    
  0.049826625709465576    0.03734449208081193    0.02999651182938562    0.025300666287723664    0.022118669400423153    
  0.01997837856671482    0.01872034670499449    0.01829635804515392    0.01689655383202623    0.017224333821814562    
  0.018218171167636077    0.019978379445675584    0.022766318548100108    0.02732309145074834    0.035322700518910496    
  0.05055229838264844    0.08078233352825778    0.1397948062428609    0.24255837408474634    0.3694493921291508    
  0.42261585752215647    0.36328940924635156    0.3189375781908332    0.3632894839351498    0.42261589395982874    
  0.369449433859853    0.24255829693581357    0.13979485745014644    0.08078229372499351    0.05055230259480296    
  0.03532268982749427    0.027323108150406217    0.022766300296685936    0.019978377593766593    0.018218164439168787    
  0.01722436021577021    0.01689655383202623    0.016138398186525398    0.01640823245016448    0.017224343897554263    
  0.018720347169831054    0.021240371833681167    0.02571813927896551    0.034186396258653884    0.051430181956149436    
  0.08759589671683145    0.16105371490381748    0.2879959045953044    0.41142462514288    0.3632894976402574    
  0.20058619323362983    0.13531981506536758    0.20058624265779285    0.3632894533095849    0.41142457810042854    
  0.28799594590959254    0.16105370610514327    0.08759590819602696    0.05143015927148515    0.03418642263682339    
  0.025718138641917437    0.021240381134248    0.01872033821336799    0.017224332769897186    0.016408238215060333    
  0.016138398186525398    0.015887478914441658    0.016138385291934985    0.016896554161641143    0.01829636572957778    
  0.020718656656946798    0.025170223538053087    0.03381981333467218    0.05182213700982479    0.09025819945152885    
  0.16922667102727865    0.3042946461312281    0.4173353751967419    0.31893759280687    0.13531979091555807    
  0.07656614147537849    0.13531983202703923    0.31893750439457214    0.4173353837784707    0.30429462803909724    
  0.1692267250439764    0.09025820199608824    0.051822144958836684    0.03381982248669394    0.025170242845526998    
  0.020718653950459746    0.018296356178401918    0.016896543201668432    0.016138396676678955    0.015887478914441658    
  0.01613839005098381    0.01640822988879738    0.017224335296754156    0.018720351995147173    0.021240380166227663    
  0.025718141441740932    0.034186394165100574    0.05143016877067231    0.08759590551509    0.16105373444821774    
  0.28799591305901323    0.41142471336442926    0.363289479108195    0.20058622507170487    0.13531982654011704    
  0.20058623481832835    0.36328945923241507    0.4114246404599958    0.2879959437347067    0.16105374568321892    
  0.08759590430137802    0.051430167853183203    0.0341864197269287    0.025718134625625947    0.021240402746536175    
  0.01872034624802446    0.017224344292979324    0.01640824577932163    0.01613839005098381    0.01689654334168126    
  0.017224337849885474    0.018218170904077687    0.019978364554613173    0.022766325043590253    0.027323083909096827    
  0.035322693873490484    0.050552292953464834    0.08078234186351581    0.13979481691395163    0.24255834616328203    
  0.3694494975337439    0.42261595754000186    0.36328944235390015    0.31893756290672765    0.36328948619715806    
  0.42261592854406765    0.3694494528252045    0.24255831858712812    0.1397948508186025    0.08078228488852628    
  0.05055228776826173    0.03532268933544351    0.027323108970264808    0.022766293129679902    0.019978365308928773    
  0.018218163829216136    0.017224353246787595    0.01689654334168126    0.018296346641920765    0.018720341492858835    
  0.019978374478990486    0.022118701024564785    0.02530067291039513    0.02999650062229129    0.03734446729394452    
  0.04982665075155547    0.07242687836146845    0.11348753687401071    0.1828667979994802    0.279337236606217    
  0.36944948792022075    0.41142460716866525    0.4173353480804884    0.4114246964066805    0.36944942724114554    
  0.27933717040257133    0.18286684257905073    0.11348753527392917    0.07242688822928058    0.04982662262356313    
  0.03734449355430073    0.029996511265193253    0.02530067131611007    0.02211866844233974    0.019978375816616913    
  0.01872035864461517    0.018296346641920765    0.02071864488980112    0.02124038527874095    0.022766316460354433    
  0.02530067230137499    0.02890513730922654    0.033739338388430615    0.040311865289153356    0.04982670865834459    
  0.064888896450993    0.08967877576310383    0.12870637149098357    0.1828668343054735    0.24255832543022435    
  0.2879957856916335    0.30429460572002043    0.28799595456929966    0.242558367071271    0.18286678020775599    
  0.12870637212852057    0.08967881675052157    0.06488887193833102    0.0498267010051652    0.04031183370541683    
  0.033739381067164356    0.028905111496904494    0.025300669747793127    0.022766301931469807    0.02124038419643631    
  0.02071864488980112    0.02517022805376322    0.025718141577854587    0.027323080630014984    0.029996514275338015    
  0.03373935501048829    0.03841022736602037    0.04394463352300462    0.05055222696399544    0.05915463740032588    
  0.07161319970870673    0.08967878340548915    0.1134875365752379    0.13979485539795658    0.1610537269482275    
  0.1692266460569903    0.16105375296480073    0.13979483882327698    0.11348750508136313    0.08967880139770043    
  0.07161316981791606    0.059154648562777475    0.050552203927305056    0.04394465831953596    0.03841023942298282    
  0.033739336249122266    0.029996517343739138    0.027323089070172377    0.025718156410004075    0.02517022805376322    
  0.03381983158143946    0.034186378283132354    0.03532269108218599    0.03734446277577958    0.04031185028766759    
  0.04394463080835458    0.0477675741757359    0.05143022760254996    0.05497326285039013    0.05915461362793045    
  0.06488889234211229    0.07242683757694011    0.08078232516361501    0.08759587620806795    0.09025821124851444    
  0.08759589731393577    0.08078234275732446    0.07242684084982468    0.06488886929470052    0.05915463980854469    
  0.05497323903553788    0.051430251907219206    0.047767561000129195    0.04394466169581804    0.040311837810513756    
  0.037344487724868085    0.03532269215494404    0.034186388863355205    0.03381983158143946    0.051822156191598516    
  0.051430187676343046    0.05055229163629194    0.04982665838906227    0.04982673030785121    0.05055224137178691    
  0.05143023977154234    0.05182207534128221    0.051430259866038386    0.050552244992965754    0.049826711073656285    
  0.04982665775914875    0.05055228281948859    0.051430198089274154    0.05182214362766881    0.05143019149143243    
  0.050552296276448284    0.04982665328040611    0.049826723644323605    0.05055224457363469    0.05143025951936678    
  0.051822064598003405    0.05143028739583156    0.05055222922319088    0.04982672342604909    0.049826629059087864    
  0.050552301478804365    0.05143019930062006    0.051822156191598516    0.09025822395581874    0.08759585786421857    
  0.08078232479853065    0.0724268393788655    0.06488890074157559    0.05915461866074643    0.05497329014204125    
  0.051430231327575404    0.04776757401241156    0.04394463804369655    0.04031184401383375    0.03734447355408    
  0.03532268813551164    0.034186381490008834    0.03381981836742926    0.034186381040237    0.03532269727649743    
  0.037344471535779765    0.0403118379635596    0.043944650464442396    0.0477675443326857    0.05143025295743425    
  0.05497326838130969    0.059154651564142145    0.0648888841877987    0.07242686083007041    0.08078234087771041    
  0.08759588984791677    0.09025822395581874    0.16922664059579368    0.16105375054896828    0.13979478392018135    
  0.11348757787078234    0.0896787890124314    0.07161319582913109    0.05915462271291287    0.05055223055148432    
  0.043944655084676855    0.03841024512820027    0.033739331597806795    0.029996529781632125    0.027323074653819966    
  0.025718145123301464    0.025170211675637145    0.025718165555646988    0.027323078753764385    0.029996512087764483    
  0.03373934498871252    0.038410230410579296    0.0439446367270724    0.05055222584758277    0.05915464641831811    
  0.07161321207752841    0.08967877541411208    0.11348752924013325    0.13979482568371734    0.16105376665043875    
  0.16922664059579368    0.30429473392711914    0.2879958758233933    0.2425583513949419    0.18286677030209517    
  0.12870638956124675    0.08967875955934163    0.06488889910393847    0.04982667692145231    0.040311867402097315    
  0.033739332677947195    0.028905130492521303    0.025300654088432087    0.02276631783127087    0.021240368726360672    
  0.020718667029405936    0.021240375042527983    0.022766315132292474    0.025300644366527545    0.028905141069816717    
  0.033739345703271674    0.04031184412134243    0.04982671589342429    0.06488890283303533    0.08967879511690503    
  0.12870634812712659    0.1828667892957073    0.24255835497878284    0.28799585567374075    0.30429473392711914    
  0.4173352849479744    0.41142474763929066    0.36944936872140116    0.2793373409692295    0.18286675498324026    
  0.11348754772664313    0.07242685419318293    0.04982664954387617    0.037344468799711775    0.029996542886973045    
  0.025300649805186544    0.02211870415493027    0.019978349512560042    0.018720363309844692    0.01829634060218143    
  0.01872035358891687    0.019978367886622165    0.022118671113074757    0.025300661494911957    0.02999651637593376    
  0.03734447024899919    0.04982664914766299    0.07242685908860758    0.11348757052977822    0.18286678067881224    
  0.27933731263646905    0.36944943346593634    0.4114246581363764    0.4173352849479744    0.3189376748269513    
  0.3632893785412931    0.4226159624443227    0.36944935250247846    0.24255844202308435    0.1397948057291674    
  0.08078236569599141    0.050552249865367924    0.0353227162927849    0.0273230777804187    0.022766331056487656    
  0.019978363415814656    0.018218181828736853    0.017224340930087487    0.016896564864402767    0.017224343211073648    
  0.018218191704565234    0.01997836332264716    0.022766320298743998    0.027323078228003946    0.03532270430385382    
  0.050552286039640015    0.08078233797965388    0.13979481287309176    0.24255836933700156    0.3694494157865861    
  0.4226159549695133    0.36328937920822996    0.3189376748269513    0.13531979669564226    0.2005862627269615    
  0.3632893313294706    0.411424723964527    0.2879958774428079    0.16105380318352344    0.08759588664653419    
  0.05143019929029724    0.03418636631807313    0.025718162956612285    0.02124037948610793    0.018720355446548556    
  0.017224328222217537    0.016408259562776195    0.016138365649473612    0.016408250120023483    0.01722434823087046    
  0.018720357308626204    0.021240382736572055    0.025718155948759494    0.03418636915381704    0.051430202386575155    
  0.08759590219437416    0.16105376093538748    0.2879958883055597    0.41142479934723825    0.36328941694591754    
  0.20058624808834374    0.13531979669564226    0.07656616157399025    0.1353197865178776    0.31893763954380483    
  0.4173353370549791    0.3042947174161909    0.16922665370448753    0.09025824564648338    0.05182210922058023    
  0.03381983801640369    0.02517022343405949    0.02071866276799489    0.018296347249469175    0.016896553753103213    
  0.016138379591500617    0.015887494933331463    0.01613837652309938    0.016896556890603227    0.018296342035752897    
  0.020718664941111308    0.02517021736163265    0.03381982923160564    0.051822149724391295    0.09025825448719409    
  0.16922663075688626    0.30429466991663845    0.4173352262889504    0.3189376021353623    0.13531979875678843    
  0.07656616157399025    0.13531980373611885    0.20058627193362777    0.3632893603067395    0.4114247473767326    
  0.2879958350831424    0.161053793600082    0.08759584984246785    0.05143019268308331    0.03418637167722422    
  0.025718173679726633    0.021240372645611554    0.01872037200284321    0.017224323368559016    0.01640825331231962    
  0.016138368293615264    0.016408247493748026    0.01722433250912634    0.018720359135505737    0.021240376716080537    
  0.02571814680798524    0.03418638054639086    0.05143019138876628    0.08759590618455403    0.16105374856841237    
  0.28799582558974984    0.411424669788181    0.3632893938718768    0.20058628307784715    0.13531980373611885    
  0.20058627027153064    0.26596661623065015    0.39980424537068243    0.40780120540841314    0.27964454950941187    
  0.15987707913484658    0.09020892194100462    0.05497328054216216    0.03754154604350828    0.02850223050015718    
  0.023361723056644197    0.02022197070886736    0.018206752874418797    0.01698460920007989    0.016408254090183646    
  0.016425854284850924    0.01699675251418496    0.018214114140504733    0.020381770182869248    0.024350716793654196    
  0.03201823360971902    0.047767612742584654    0.08080355986480123    0.14796519664655544    0.265791924543652    
  0.3943347156787008    0.3909200658490731    0.2626782157303977    0.20058627027153064    0.3632894227644222    
  0.3998042678214276    0.4334117928282112    0.36615562997949697    0.24384063149761703    0.1469705024909251    
  0.08983583726569593    0.059154558941079974    0.042661158591461336    0.033120887002275085    0.027028937118117817    
  0.02289406995010443    0.02004401889737577    0.018206753235856153    0.017224333526240813    0.016996753503124195    
  0.017418815944464445    0.01850649560589861    0.020484012462148163    0.02403047799583585    0.030701118353595798    
  0.043944587274938    0.0708188782506459    0.1239748440070834    0.21792043538019662    0.3407036267254609    
  0.41448582769592524    0.3909200940330662    0.3632894227644222    0.41142469433219525    0.407801269699085    
  0.3661556300515031    0.28249256339297507    0.19412550829207606    0.12917089659140277    0.08882675925558535    
  0.06488892140250624    0.05010832207699033    0.03999727103698068    0.032532983767988057    0.02693679334120665    
  0.022894062582700627    0.02022197898038307    0.018720359311994294    0.018214114243069953    0.018506506526945996    
  0.01951903438379814    0.021373193639714672    0.024521031567760962    0.030059204038301136    0.04031190144432198    
  0.059867349511380494    0.09646610015354073    0.15946209499576366    0.24959007817920642    0.34070350375475117    
  0.3943345722506536    0.41142469433219525    0.2879958430504258    0.27964455024400187    0.24384063035773226    
  0.19412551144547077    0.1475683391517337    0.11263198413075258    0.08882682243290926    0.07242678796673735    
  0.05986740395539064    0.049156505068287636    0.039968614680613516    0.03253296487586659    0.02702893256627081    
  0.023361705077853685    0.021240375118597127    0.02038176427522918    0.020484026430203174    0.02137318273808726    
  0.023050986323983634    0.02573263849109313    0.03005926216278539    0.037344414554688475    0.05010837689141609    
  0.07230214161019428    0.10830047715186104    0.15946210092624105    0.2179203971941607    0.265791868756924    
  0.2879958430504258    0.16105375430642438    0.1598771007497443    0.14697046326358568    0.12917090268063203    
  0.11263199254532594    0.09974748138502523    0.08983576676018548    0.08078239064585777    0.07081881032822751    
  0.0598688544380193    0.04915648676887625    0.03999726781251208    0.03312088389012484    0.02850223938298361    
  0.02571815228206421    0.024350717316565594    0.02403049791146621    0.02452101887978287    0.02573265104811191    
  0.027699419798610927    0.030701063922772935    0.03532275638715396    0.042661105321845166    0.05443918413452732    
  0.07230213419428233    0.09646612248748582    0.12397487318133525    0.14796522036132215    0.16105375430642438    
  0.08759589987174014    0.09020885643634706    0.0898358114538469    0.08882675367552838    0.08882681641407875    
  0.08983577016861162    0.09020895299929364    0.08759579038601382    0.08080357785149457    0.0708187979982698    
  0.05986741480779827    0.050108289501141025    0.0426611825653567    0.03754153363642924    0.03418637797052678    
  0.032018245434803014    0.030701124496969615    0.030059195203204384    0.030059267813430036    0.030701050266207227    
  0.03201830004808957    0.03418631067315972    0.0375415949760999    0.0426610974000807    0.05010836715330303    
  0.059867362521345995    0.07081884208232214    0.08080351320806871    0.08759589987174014    0.051430206436823445    
  0.05497330299818749    0.05915457184358089    0.06488896666113354    0.07242678223837952    0.08078241021515974    
  0.08759580421110577    0.0902582795114021    0.08759581744690167    0.08078240330125531    0.0724267877268431    
  0.06488893945673671    0.059154567003417716    0.05497332246234963    0.051430174294457724    0.047767623874540456    
  0.04394457912917604    0.04031191119108647    0.037344426185741804    0.035322747040113275    0.03418631916047154    
  0.0338198573086371    0.034186337431968264    0.03532275278165662    0.0373444173544062    0.040311913421684005    
  0.043944569472195216    0.04776763532499711    0.051430206436823445    0.034186378285113714    0.03754152418211805    
  0.042661156113021924    0.050108292414943176    0.059867404694552526    0.07081879382451586    0.08080359315200142    
  0.08759578354192304    0.09020893884599748    0.08983577271486012    0.0888268313492145    0.08882674165339023    
  0.08983584471363586    0.09020884748711916    0.08759587300508775    0.08080349528560103    0.0708188961275583    
  0.059867351154559524    0.050108380161455045    0.04266109984861422    0.037541591089434716    0.034186312725354204    
  0.03201831510725182    0.030701062084136407    0.030059256405232316    0.030059205998048875    0.030701106498970423    
  0.03201824127727667    0.034186378285113714    0.025718140322326805    0.028502236259453518    0.03312086347532938    
  0.039997286493751935    0.04915649171355017    0.05986886772830449    0.07081878599933585    0.0807823938040217    
  0.08983578272616283    0.09974748162606203    0.11263195544364729    0.12917091341654985    0.1469704672119723    
  0.15987707371160995    0.16105371193354695    0.1479652325358867    0.1239748270249806    0.09646611171591149    
  0.07230213259319493    0.05443918386602095    0.04266107988603484    0.035322742390640025    0.030701067567452917    
  0.027699444433777327    0.025732630673391703    0.024521039156694305    0.024030466094362588    0.024350734579526707    
  0.025718140322326805    0.0212403878227243    0.02336169392623348    0.027028945117526758    0.032532954845598816    
  0.039968635790272405    0.0491564705111173    0.059867398984072    0.07242677703180732    0.08882685708138034    
  0.11263197634007266    0.1475683611290489    0.19412547142033998    0.24384067151024566    0.2796444455390007    
  0.287995912547389    0.2657918649303527    0.21792046678153648    0.15946209023319258    0.10830055876976319    
  0.0723021075992685    0.05010837584561417    0.03734441089790975    0.030059272786897625    0.025732652487766378    
  0.02305097741641762    0.021373186353265978    0.020484019218918625    0.02038175205782091    0.0212403878227243    
  0.018720350081317182    0.02022199384026563    0.022894046696747414    0.026936826512449382    0.03253297613374284    
  0.03999727348244876    0.05010829058602991    0.06488895126381666    0.08882676388778164    0.12917093376518812    
  0.19412547875507571    0.28249256372634823    0.3661556387455626    0.40780123598102236    0.41142466588544624    
  0.3943346961530103    0.3407035451734244    0.2495900559524957    0.15946206462904397    0.09646612510787986    
  0.05986733249045535    0.040311910616447635    0.030059201251113415    0.02452105846847907    0.021373165760072126    
  0.019519043967863615    0.018506484577551628    0.018214138960206207    0.018720350081317182    0.01722434804287316    
  0.018206717875215873    0.020044027918005306    0.022894058032930376    0.02702894044887021    0.0331208748409699    
  0.04266117043923934    0.05915456994773886    0.08983585684482863    0.1469703998255267    0.24384068274729523    
  0.3661555761540154    0.43341188425015864    0.39980416659328416    0.3632894368003025    0.3909200761226834    
  0.4144858643867341    0.34070350959908813    0.2179204432575251    0.12397481062052768    0.0708188619583481    
  0.04394455500096823    0.030701139441534204    0.024030478987322336    0.020484010576568124    0.018506489497066684    
  0.01741881311934292    0.016996748106747315    0.01722434804287316    0.016408251296669625    0.01698462353695275    