#     DFTpy    
  CRYSTAL 
    
  PRIMVEC    
  3.9424137931034475    0.0    0.0    
  0.0    3.9424137931034475    0.0    
  0.0    0.0    3.9424137931034475    
  PRIMCOORD    
  2    1    
  Si    0.0    0.0    0.0    
  Si    1.9712068965517238    1.9712068965517238    1.9712068965517238    
  BEGIN_BLOCK_DATAGRID_3D    
  3d_datagrid_density    
  BEGIN_DATAGRID_3D#0    
  17    17    17    
  0.0    0.0    0.0    
  3.9424137931034475    0.0    0.0    
  0.0    3.9424137931034475    0.0    
  0.0    0.0    3.9424137931034475    
  0.06497196376902573    0.11992295258226336    0.29382640675349003    0.3823241704046261    0.27801042049819846    
  0.15990691526834597    0.09290801815546182    0.06306412225172627    0.054799132421955096    0.0630641355810184    
  0.09290797729704797    0.15990704603153544    0.2780102751204163    0.38232437162830424    0.29382629468376253    
  0.11992298212815837    0.06497196376902573    0.11992299404595035    0.18151391515302479    0.3338287423681806    
  0.37399033964457723    0.2613427364117388    0.15115026442726046    0.08933093844026734    0.061599072855972825    
  0.05386210095040946    0.06159904243676032    0.08933101075058311    0.15115013537844432    0.2613429144823468    
  0.3739901532636339    0.3338288790006403    0.18151388601403545    0.11992299404595035    0.2938262940351804    
  0.3338287662267378    0.3831379794108706    0.32940369460337243    0.21653801763619857    0.12885969419582202    
  0.08029170746183634    0.05800767997285631    0.05169024933957943    0.05800771823742317    0.08029163857562846    
  0.128859888119072    0.2165378194533573    0.3294038238573715    0.3831378243245513    0.3338288826139864    
  0.2938262940351804    0.3823242716436225    0.37399024416009174    0.3294036370057079    0.2452365112152967    
  0.1608001460658875    0.10243173582676159    0.06964549236967385    0.05404911922682394    0.04955195840740268    
  0.05404906613446123    0.0696455452516297    0.10243161041977926    0.1608002881723078    0.2452363186690651    
  0.3294038421172853    0.3739901046270944    0.3823242716436225    0.27801022850015755    0.2613429274157607    
  0.21653797728506216    0.16080016911758704    0.11276036424007134    0.0799456940093015    0.06084425617412007    
  0.05142605571701669    0.04865596927031318    0.0514260686211248    0.06084421147253226    0.07994580510291406    
  0.11276023496025293    0.16080026106287118    0.2165378253069211    0.2613429805537931    0.27801022850015755    
  0.15990706748944325    0.1511501870721978    0.1288597815841412    0.10243172092619217    0.0799456923381386    
  0.0643973796653918    0.05528851368169534    0.05085024166569467    0.04955193433613868    0.05085021309162732    
  0.0552885813182752    0.06439725925538617    0.07994582828259073    0.10243160607157151    0.128859916699499    
  0.1511501235209878    0.15990706748944325    0.0929079323869998    0.08933098536496453    0.08029168238191356    
  0.06964548653629489    0.06084427957423513    0.055288499626229795    0.05265546112992921    0.051822353120727985    
  0.05169028351077232    0.05182239272558307    0.05265543723410797    0.05528856444670517    0.060844184013850465    
  0.06964555138347374    0.08029163112650163    0.08933103485232734    0.0929079323869998    0.06306417104584142    
  0.06159907475141792    0.05800767868104024    0.054049129616946294    0.05142601842557183    0.05085027507584303    
  0.05182235553780116    0.053210786906753016    0.053862111742602435    0.05321076562150674    0.05182239860323906    
  0.05085017468104035    0.051426090882061196    0.05404903893226222    0.058007752406023814    0.061599018771628516    
  0.06306417104584142    0.054799086011373704    0.05386213346881221    0.051690289502122    0.04955191101311604    
  0.048656042314006054    0.049551885784403296    0.05169030212989998    0.053862081918379226    0.0547991526419939    
  0.05386211516126403    0.0516902703467431    0.04955196514582063    0.04865596509917874    0.049551980915842266    
  0.05169022459989871    0.05386217059204057    0.054799086011373704    0.06306413915645374    0.06159907636295428    
  0.058007640668972536    0.05404916035243262    0.05142600264646029    0.05085030718978171    0.051822323669060096    
  0.053210816420384645    0.053862062981116295    0.05321078519195882    0.051822400423603435    0.05085023564863034    
  0.05142607083751372    0.05404904765789104    0.0580077431536166    0.061599037138047014    0.06306413915645374    
  0.09290798613078766    0.08933092813332777    0.08029174977381523    0.06964543918804898    0.06084432452687769    
  0.05528844752410168    0.05265552177982571    0.051822317386232566    0.05169029667469092    0.05182234745270942    
  0.05265545236125466    0.05528854156595699    0.06084421644115302    0.06964550841794187    0.08029168022449248    
  0.08933096182452817    0.09290798613078766    0.15990698220706248    0.1511502880457622    0.12885970568235755    
  0.10243180473963757    0.07994566382645402    0.06439740423495825    0.055288465595891526    0.050850306537599005    
  0.04955190572219661    0.050850248623923705    0.055288543563173656    0.06439731213039637    0.07994576406959149    
  0.10243165978695457    0.1288598599416652    0.15115021631133935    0.15990698220706248    0.2780103610551836    
  0.2613427627671606    0.2165381058370096    0.16080009478086885    0.1127604300931303    0.07994561486907906    
  0.060844323264743365    0.05142598040923757    0.04865602325003642    0.051426030522810334    0.06084426850864527    
  0.0799457461546077    0.11276029400707398    0.16080019107727894    0.21653792779985925    0.2613428514825665    
  0.2780103610551836    0.3823242026215282    0.37399030345392487    0.32940359047737267    0.24523654294762234    
  0.16080004979976875    0.10243178411096758    0.06964541706089575    0.05404914273673894    0.049551891968707865    
  0.05404911725431993    0.06964548191876985    0.10243167450759275    0.16080019787525293    0.24523637856102729    
  0.3294037362682148    0.3739902763067292    0.3823242026215282    0.29382631197580295    0.33382868530676396    
  0.38313806247168586    0.32940356285725997    0.2165381047488632    0.12885967063160503    0.0802917546253391    
  0.05800764276937973    0.05169028845936308    0.058007674292405394    0.08029168710468902    0.1288598115722742    
  0.21653789911854207    0.32940374521603544    0.3831379899809055    0.33382876213496165    0.29382631197580295    
  0.11992294633766008    0.18151400986447228    0.3338286928920255    0.3739903464561078    0.26134274536807334    
  0.15115033347014387    0.0893308992360578    0.061599106657595076    0.05386209886252003    0.061599068614918144    
  0.0893309809505012    0.1511501711838742    0.26134289424803264    0.3739901835499324    0.3338288487724379    
  0.1815139176603115    0.11992294633766008    0.06497196376902573    0.11992295258226336    0.29382640675349003    
  0.3823241704046261    0.27801042049819846    0.15990691526834597    0.09290801815546182    0.06306412225172627    
  0.054799132421955096    0.0630641355810184    0.09290797729704797    0.15990704603153544    0.2780102751204163    
  0.38232437162830424    0.29382629468376253    0.11992298212815837    0.06497196376902573    0.11992294738360812    
  0.18151396402333955    0.33382868428249896    0.37399041121287413    0.26134271207665416    0.15115028331849978    
  0.08933088818043153    0.06159911829100186    0.053862107092527374    0.06159905872213205    0.08933100068629468    
  0.15115014652221156    0.26134293952187965    0.373990157344311    0.333828849570163    0.18151389491419448    
  0.11992294738360812    0.18151393095494966    0.24137089094393452    0.361576118304555    0.36163677997867094    
  0.24559628250747384    0.14324524444304088    0.08623253575261221    0.06044576703068411    0.053210760626671114    
  0.06044579379766951    0.08623245219490638    0.1432453774978057    0.2455960846117785    0.3616368962152597    
  0.36157603370279995    0.2413709777840818    0.18151393095494966    0.3338288110989464    0.3615761117091164    
  0.3814845241088077    0.31255361021834815    0.20414095133176513    0.12332049881981572    0.07848514744893481    
  0.05771895856421844    0.05182237986140801    0.057718929610989476    0.07848524500774272    0.1233204304385834    
  0.20414108946988335    0.31255331964244554    0.38148469443286614    0.36157605291857275    0.3338288110989464    
  0.373990177029753    0.3616368863352161    0.312553457407709    0.23141764728796907    0.15340281608759457    
  0.09982908738422856    0.06954038256735084    0.05503609004229728    0.05085024313969417    0.05503611872268987    
  0.06954027312934438    0.09982919441306078    0.15340268212209326    0.23141778788635645    0.31255337201832134    
  0.36163695348335395    0.373990177029753    0.261342843132703    0.2455961339958222    0.20414097905271714    
  0.15340283295982585    0.1097372084015246    0.07984572749668116    0.062462978939718014    0.053923993392403856    
  0.05142604000868438    0.05392396434409095    0.06246308715685808    0.07984563991815985    0.10973735704633472    
  0.15340265269474704    0.20414110765872112    0.24559604255478126    0.261342843132703    0.1511501420999507    
  0.14324537428436204    0.12332050198521402    0.09982910688122072    0.07984573969620574    0.06622725390170915    
  0.058559141314827326    0.05503606488428809    0.054049124702582774    0.05503612391235996    0.05855905553950574    
  0.06622733957239522    0.07984560791554544    0.09982920639971601    0.12332043367844044    0.14324539200126254    
  0.1511501420999507    0.08933098221792443    0.08623247958585029    0.07848516465842119    0.06954036374413053    
  0.062463011351767475    0.058559089713653804    0.057433502595318736    0.05771896846017379    0.058007689587210094    
  0.05771894015291166    0.057433563300875005    0.058559021925760006    0.0624630956762302    0.06954024371401629    
  0.07848528720884614    0.08623242215519122    0.08933098221792443    0.06159905391391229    0.06044581703960902    
  0.05771894426285876    0.05503608061201752    0.05392401577800175    0.05503606444549784    0.057719018479891686    
  0.06044574710079734    0.06159910720836627    0.06044578320094977    0.05771891990164207    0.05503613487557805    
  0.05392390406560178    0.05503614382664696    0.05771889620237121    0.06044583870632321    0.06159905391391229    
  0.05386212313669356    0.053210782696643734    0.05182235722928018    0.050850287773232666    0.05142599184273243    
  0.05404916270084179    0.05800763589028561    0.06159914385349624    0.06306409360744951    0.06159908054038599    
  0.05800774388654213    0.05404907740341521    0.0514260995494164    0.05085018694558763    0.05182242904824512    
  0.05321075806082536    0.05386212313669356    0.06159906105088206    0.06044576822970491    0.05771896488352978    
  0.05503605281414361    0.05392404326513124    0.05503604929298244    0.05771903092845873    0.06044572964751288    
  0.06159911353454933    0.06044575938930295    0.0577189828799838    0.055036124695217105    0.0539239422146747    
  0.05503611725267049    0.05771892718368871    0.060445824525820493    0.06159906105088206    0.089330936978083    
  0.08623250638347249    0.07848513159713219    0.06954040379263668    0.0624629414202694    0.05855912621799735    
  0.057433456288275814    0.05771901775143296    0.05800765174121529    0.05771897578339339    0.0574335461543093    
  0.05855906763005513    0.062463050286032565    0.06954029240201012    0.07848523261796153    0.08623245913296365    
  0.089330936978083    0.15115021169248133    0.14324528862660205    0.1233205774419818    0.09982905813909006    
  0.07984581412913623    0.0662271988229063    0.05855918849381159    0.05503603667013034    0.05404917748139573    
  0.055036049293976694    0.05855911987971868    0.06622730911212309    0.0798456844230624    0.0998291446828615    
  0.12332051942152807    0.14324532470278    0.15115021169248133    0.2613428012170222    0.24559624361181165    
  0.20414093374166056    0.15340292466098807    0.10973714000235073    0.07984580635030797    0.06246293032300762    
  0.053924059211526355    0.051425988956951864    0.05392400740475987    0.06246304675553475    0.07984570361663486    
  0.10973727837841951    0.15340274341580404    0.20414102258911895    0.24559622304161072    0.2613428012170222    
  0.3739903158065303    0.36163672229137883    0.3125535847104151    0.2314175110774837    0.15340291434234218    
  0.09982900481940876    0.0695404212549493    0.05503603390112615    0.050850274656632    0.055036063768851604    
  0.06954032776902122    0.09982912094373686    0.1534027487023098    0.23141767055871104    0.312553480779655    
  0.36163683369267124    0.3739903158065303    0.33382868491657947    0.3615761939113323    0.38148447559377974    
  0.3125536262596671    0.2041408492656311    0.12332056125808898    0.07848510885770446    0.05771899321471793    
  0.05182233218527974    0.057718968505472035    0.07848520556509377    0.12332047430505597    0.20414099791432216    
  0.312553421119069    0.38148466662807007    0.3615761125821194    0.33382868491657947    0.18151393650661965    
  0.2413709100645919    0.36157620886389474    0.36163666546918094    0.24559632246395144    0.14324523038125025    
  0.08623258327365037    0.060445744701367134    0.05321080840994203    0.06044579242230816    0.08623248154831241    
  0.14324534971147407    0.24559613144058368    0.36163688134588196    0.3615761151745876    0.2413709297723726    
  0.18151393650661965    0.11992294738360812    0.18151396402333955    0.33382868428249896    0.37399041121287413    
  0.26134271207665416    0.15115028331849978    0.08933088818043153    0.06159911829100186    0.053862107092527374    
  0.06159905872213205    0.08933100068629468    0.15115014652221156    0.26134293952187965    0.373990157344311    
  0.333828849570163    0.18151389491419448    0.11992294738360812    0.2938263127498319    0.3338287295241694    
  0.3831379687689334    0.32940361570445836    0.216538050457176    0.12885971872714783    0.08029169364228929    
  0.05800768929950036    0.05169026687560291    0.05800769361486095    0.08029166976813458    0.12885983722933417    
  0.2165378721688208    0.3294037958356828    0.383137833999675    0.33382878328693344    0.2938263127498319    
  0.3338288283133369    0.3615760831570372    0.3814845041367581    0.3125535092780523    0.20414088585424212    
  0.12332055104840464    0.07848518192518565    0.057718950348691817    0.051822364915100796    0.057718908219246016    
  0.07848523079596104    0.1233204240604204    0.2041410773631531    0.31255336096898023    0.3814847169663755    
  0.3615760389508378    0.3338288283133369    0.38313788414229527    0.38148453211322125    0.34689409455600434    
  0.26269927954773187    0.1724807368133257    0.10952201835472368    0.07417784588384949    0.057433533226447266    
  0.052655442548622935    0.057433558756242335    0.07417779358810359    0.10952219495683484    0.17248055645015575    
  0.26269938904853035    0.34689394146109404    0.3814847003508669    0.38313788414229527    0.32940371170580196    
  0.31255348925293386    0.26269923905869813    0.19509523064451373    0.13468334867360102    0.09355163285686481    
  0.06996650177010033    0.05855908826800005    0.05528855382179525    0.058559043891573716    0.0699665607667023    
  0.09355150669551322    0.13468342296284283    0.19509508056865982    0.2626994101534822    0.31255336601854883    
  0.32940371170580196    0.21653786784395884    0.2041410386490321    0.17248070197860957    0.13468334352347947    
  0.10244115544186957    0.08059973072036217    0.0682530071732457    0.062463029790829565    0.060844224495742505    
  0.062463057608686944    0.06825293811158613    0.08059985914723314    0.1024410276720254    0.13468345009953073    
  0.17248055378527916    0.2041411302119287    0.21653786784395884    0.12885983575210774    0.12332046573448144    
  0.10952210398164551    0.0935516081322626    0.0805997514513351    0.07293418309691334    0.06996647624329615    
  0.06954032549436152    0.06964548644415405    0.06954028596263748    0.06996655231002971    0.07293407604290165    
  0.08059984927884693    0.09355150987091679    0.10952222464996404    0.12332042014454898    0.12885983575210774    
  0.08029162218765427    0.07848521494440387    0.07417783480923848    0.06996649341590382    0.06825303135684979    
  0.06996644165495099    0.07417786176807212    0.07848513526117355    0.08029169495082548    0.07848519662332898    
  0.07417778744091799    0.06996655480520965    0.06825291921038444    0.06996655757257488    0.07417777901358096    
  0.07848524758254032    0.08029162218765427    0.05800771641228563    0.05771894707487824    0.05743353255615236    
  0.058559111404753485    0.062462990736437185    0.0695403664185913    0.07848515800233988    0.08623252536765943    
  0.08933094741371725    0.08623246615009751    0.07848519524279145    0.06954024076754046    0.06246308481757343    
  0.058559016533994604    0.057433601935924616    0.05771889496297904    0.05800771641228563    0.05169022491377743    
  0.051822375937485815    0.05265546829903591    0.055288499151963634    0.06084431415285368    0.06964540637582141    
  0.08029173185835427    0.08933089594051562    0.09290802771613502    0.08933092617480325    0.08029170362999628    
  0.0696455007370921    0.06084421720440656    0.05528857810885789    0.05265541539906894    0.05182241890464222    
  0.05169022491377743    0.05800769010460109    0.05771894352384025    0.05743348936640462    0.058559128222619015    
  0.062462978368971175    0.06954038767735873    0.0784851215823457    0.08623255137214912    0.08933087766160425    
  0.08623248491553413    0.07848520232184224    0.06954030009893683    0.06246305402091104    0.05855902231893167    
  0.05743359198631118    0.05771891756047057    0.05800769010460109    0.08029167865854676    0.07848515346474584    
  0.07417788878881475    0.06996644520216434    0.06825306189901872    0.06996639973191195    0.07417790317014665    
  0.07848508677023401    0.08029173347292262    0.0784851747035715    0.07417784367314688    0.0699665077444854    
  0.06825293642351891    0.06996652677021747    0.07417781934853174    0.07848519083498859    0.08029167865854676    
  0.1288597816601225    0.12332057170186064    0.10952203283037014    0.09355168634529899    0.08059970269928561    
  0.07293422753282497    0.06996642599365453    0.06954038897499583    0.06964542775654231    0.06954035123887005    
  0.06996651628466427    0.07293412484364091    0.08059978795764147    0.09355155804743008    0.10952215978576853    
  0.12332049267851443    0.1288597816601225    0.2165379736466233    0.2041409320724791    0.172480817089521    
  0.13468327694863752    0.1024412291754684    0.08059965844161986    0.06825307342268118    0.06246297840880634    
  0.06084430173567407    0.06246301372349898    0.06825300053676048    0.08059977238969955    0.10244110094527413    
  0.1346833521852769    0.17248066978840743    0.2041409950557528    0.2165379736466233    0.3294036384969243    
  0.31255351444708573    0.26269916625351253    0.1950952933116279    0.13468322693135362    0.09355167544850682    
  0.06996642565706097    0.058559133414063956    0.05528847653598217    0.05855909803854851    0.06996649613016846    
  0.09355157852107761    0.13468339472317908    0.19509514605348102    0.2626993453455894    0.3125534796353866    
  0.3294036384969243    0.383137901965701    0.38148448542399127    0.346894187467368    0.26269916448905334    
  0.1724807858159584    0.10952198160361412    0.07417790434050187    0.057433493993994444    0.05265548545708179    
  0.057433524615771454    0.07417783602528145    0.10952212129672824    0.17248061226528708    0.26269936273401545    
  0.3468940523087258    0.38148453250907666    0.383137901965701    0.33382873609946    0.3615761642265691    
  0.38148452552752715    0.3125535840567565    0.20414091794798814    0.12332058748784787    0.07848514094706711    
  0.057718975225662016    0.05182236433854701    0.057718934689095364    0.07848521254205283    0.123320446556679    
  0.20414105081820985    0.31255337993087434    0.38148463023323437    0.3615760662838609    0.33382873609946    
  0.2938263127498319    0.3338287295241694    0.3831379687689334    0.32940361570445836    0.216538050457176    
  0.12885971872714783    0.08029169364228929    0.05800768929950036    0.05169026687560291    0.05800769361486095    
  0.08029166976813458    0.12885983722933417    0.2165378721688208    0.3294037958356828    0.383137833999675    
  0.33382878328693344    0.2938263127498319    0.382324284978191    0.3739902784332101    0.3294036467583277    
  0.24523655864690838    0.16080011330315894    0.10243174977210204    0.06964543115555029    0.05404915416021491    
  0.04955192858763677    0.05404909871160675    0.06964552827084663    0.10243165132692462    0.1608002797627314    
  0.24523638430202005    0.3294037621187414    0.37399024166266426    0.382324284978191    0.3739902331412742    
  0.3616368869820101    0.3125534698090209    0.23141763198243068    0.15340287184658583    0.09982906347649555    
  0.06954037596636352    0.05503608196881951    0.05085023797289117    0.055036099792037566    0.06954028250690852    
  0.09982917717134047    0.1534026938937173    0.23141774877116342    0.3125533917633053    0.36163694236156857    
  0.3739902331412742    0.32940376457675535    0.3125534479222884    0.2626992889268463    0.19509533016206185    
  0.13468332326979254    0.09355160002351198    0.06996647428498093    0.058559103072612376    0.05528853534765958    
  0.05855907135541592    0.06996655640310238    0.09355154481194293    0.13468344021980178    0.19509510000601277    
  0.26269944970077397    0.3125534015600764    0.32940376457675535    0.24523636950175495    0.23141772476822292    
  0.19509521322943207    0.15080856322522823    0.11293649321085442    0.087370292335596    0.07293421656535734    
  0.0662272690594277    0.0643973461536931    0.06622730438214587    0.07293410380264957    0.08737039538044697    
  0.11293634854392336    0.15080868355464466    0.1950951425069051    0.23141777297751345    0.24523636950175495    
  0.16080021854667803    0.15340275859026273    0.13468338669943422    0.11293649930237579    0.09537307883804054    
  0.0848628934270974    0.08059972544924161    0.0798457339546146    0.0799457264783103    0.07984567515603067    
  0.08059983455567853    0.08486282199113611    0.09537319885548384    0.11293634414304324    0.13468346818487337    
  0.15340270090761615    0.16080021854667803    0.10243163572780331    0.09982915915836502    0.09355159220997854    
  0.08737030477324631    0.08486291160339379    0.08737028683735147    0.09355167127253267    0.09982906724921692    
  0.10243170771306202    0.09982913181979516    0.09355155937478998    0.08737038520843685    0.08486279359876599    
  0.08737039747851479    0.09355153338458816    0.09982919520927132    0.10243163572780331    0.06964550675076353    
  0.06954031137434735    0.06996649169472914    0.07293418617143146    0.08059974785029533    0.09355162675416737    
  0.10952205401081572    0.12332055087659538    0.12885977849660007    0.1233205034030765    0.10952213964864195    
  0.09355154511733257    0.08059984280986542    0.07293407238490793    0.06996658556820895    0.06954026106408256    
  0.06964550675076353    0.05404907538941301    0.05503612679957616    0.058559086189727265    0.0662272514937912    
  0.07984579034705243    0.09982906170657943    0.123320600601563    0.1432452411743486    0.15115028067196712    
  0.14324529821272106    0.12332051347566626    0.09982916218983848    0.07984563767358312    0.06622733143270045    
  0.0585590436256606    0.055036145731757184    0.05404907538941301    0.04955194119994163    0.05085025511407269    
  0.05528851711923016    0.06439738897024885    0.07994565154957724    0.10243179371896867    0.12885969006077191    
  0.15115032517343108    0.15990692549758548    0.1511502447515439    0.12885980705010325    0.10243167475809745    
  0.07994579768638255    0.06439728587503371    0.055288583423196425    0.0508502197964266    0.04955194119994163    
  0.05404909109603924    0.055036086268754524    0.05855910298107506    0.06622723929890663    0.07984581081876976    
  0.0998290146773341    0.12332061607900725    0.1432452064464395    0.15115028081654508    0.1432452401384519    
  0.12332056847520208    0.09982914532726478    0.0798456687166779    0.0662273073479896    0.05855906367321396    
  0.0550361324976745    0.05404909109603924    0.06964547091034175    0.06954034131267006    0.0699664508839511    
  0.07293424320138431    0.08059965792394078    0.09355167516303838    0.10952201051224211    0.12332062818696324    
  0.128859706017796    0.12332058281190236    0.10952211929645134    0.09355160500436326    0.08059979156468977    
  0.07293411433364608    0.06996654027509323    0.06954030936675236    0.06964547091034175    0.10243170035658973    
  0.09982909907688356    0.093551656943036    0.08737024249173797    0.0848630225316761    0.08737019415502201    
  0.09355172849601881    0.09982903022419566    0.1024318102812032    0.09982906300907933    0.09355166086669252    
  0.08737033204255337    0.0848628486997347    0.08737033196825907    0.09355160044129904    0.09982912925967645    
  0.10243170035658973    0.16080016833635313    0.153402856051271    0.13468328455676878    0.11293656265181458    
  0.0953730006344168    0.0848629743253955    0.08059966861614255    0.07984580788357226    0.07994566160597978    
  0.07984575571873304    0.08059977805900846    0.08486287764212913    0.0953731184118405    0.11293643619109105    
  0.13468339143634295    0.15340279961973213    0.16080016833635313    0.24523646411063083    0.23141758178229183    
  0.1950952886428597    0.1508084525207128    0.11293655647995932    0.08737020018822754    0.0729342588487395    
  0.06622721264707505    0.06439738544378737    0.06622725137481343    0.07293416725231558    0.08737033311631942    
  0.1129364309685434    0.1508085702569616    0.19509522411960245    0.23141765662239674    0.24523646411063083    
  0.3294036487161319    0.31255352422465166    0.2626992244765204    0.19509530124218027    0.134683277976765    
  0.09355166225670786    0.06996642753978896    0.05855913738265964    0.055288494525149445    0.05855910957218654    
  0.06996651317092636    0.0935515638018432    0.1346833981036268    0.19509515648489856    0.2626993488031224    
  0.31255345310078075    0.3294036487161319    0.3739901974119831    0.3616368664253358    0.3125535613004779    
  0.23141754166776193    0.15340287888297388    0.09982904038590952    0.0695403953424173    0.05503605906061308    
  0.050850276513764454    0.05503609598263291    0.06954031358352446    0.09982915346482725    0.15340271072786707    
  0.2314177400319361    0.3125533872264196    0.36163691065193243    0.3739901974119831    0.382324284978191    
  0.3739902784332101    0.3294036467583277    0.24523655864690838    0.16080011330315894    0.10243174977210204    
  0.06964543115555029    0.05404915416021491    0.04955192858763677    0.05404909871160675    0.06964552827084663    
  0.10243165132692462    0.1608002797627314    0.24523638430202005    0.3294037621187414    0.37399024166266426    
  0.382324284978191    0.2780102741323425    0.26134281977694307    0.21653798340844393    0.16080012819554884    
  0.11276036666928856    0.07994566220113845    0.06084427664458551    0.05142603138999062    0.04865600300626811    
  0.05142605142029792    0.060844242836853094    0.07994577227787679    0.1127602623398734    0.16080028665793197    
  0.2165379024465063    0.26134289251702064    0.2780102741323425    0.2613428750204827    0.24559612467252973    
  0.20414098213053666    0.15340282052157936    0.10973719731980731    0.07984574616182555    0.062463032119642915    
  0.053923971822860246    0.05142603476268616    0.05392394066309637    0.062463081694647996    0.0798456402822915    
  0.10973733284606967    0.1534026701475508    0.20414111311418087    0.24559609146352565    0.2613428750204827    
  0.21653786973035274    0.2041409875297356    0.17248067048202279    0.13468338029159277    0.10244115913723922    
  0.08059970368810396    0.06825301189538775    0.062463023959673895    0.06084424256721012    0.062463051439611665    
  0.0682529495085055    0.08059984048854303    0.10244101167220872    0.1346834804176962    0.17248056241290585    
  0.20414112626859426    0.21653786973035274    0.16080022537422345    0.15340275617479    0.1346833451983132    
  0.11293646600759619    0.09537309254906318    0.0848629063594611    0.08059978953333334    0.07984572419594561    
  0.07994575645236823    0.07984567022671311    0.08059982703717865    0.08486280283960633    0.09537319309814567    
  0.11293634346105329    0.13468347819159984    0.15340268190300294    0.16080022537422345    0.11276024581014366    
  0.10973730340325873    0.10244112678812971    0.09537310432229824    0.09255382614611467    0.09537305281103828    
  0.10244114035950289    0.10973725683009308    0.11276029690958357    0.10973726357960036    0.10244107391878957    
  0.09537318920921839    0.09255370250036335    0.09537318570616295    0.10244101649842399    0.10973736075868837    
  0.11276024581014366    0.07994577896833795    0.07984568130962709    0.08059977445937302    0.08486288782516747    
  0.09537305549162507    0.11293648636304729    0.1346833272775665    0.1534028066182497    0.16080016642337852    
  0.15340274770744333    0.13468343915618108    0.11293636056457694    0.09537320370724331    0.08486279074762153    