#     DFTpy    
  CRYSTAL 
    
  PRIMVEC    
  7.489655172413793    0.0    0.0    
  0.0    7.489655172413793    0.0    
  0.0    0.0    7.489655172413793    
  PRIMCOORD    
  8    1    
  Si    0.0    0.0    0.0    
  Si    1.8724137931034484    1.8724137931034484    1.8724137931034484    
  Si    0.0    3.7448275862068967    3.7448275862068967    
  Si    1.8724137931034484    5.617241379310346    5.617241379310346    
  Si    3.7448275862068967    0.0    3.7448275862068967    
  Si    5.617241379310346    1.8724137931034484    5.617241379310346    
  Si    3.7448275862068967    3.7448275862068967    0.0    
  Si    5.617241379310346    5.617241379310346    1.8724137931034484    
  BEGIN_BLOCK_DATAGRID_3D    
  3d_datagrid_density    
  BEGIN_DATAGRID_3D#0    
  33    33    33    
  0.0    0.0    0.0    
  7.489655172413793    0.0    0.0    
  0.0    7.489655172413793    0.0    
  0.0    0.0    7.489655172413793    
  0.07939516368107793    0.1371425027302242    0.31950837120658976    0.42883265226421025    0.32068139354614905    
  0.17775860904088744    0.09138867369265286    0.04901308005893877    0.029224248080986212    0.019802924724677477    
  0.01494045593840418    0.012162130329804432    0.010383813492162237    0.009162207759968857    0.008327543040106451    
  0.007842388849179387    0.0076838526366225885    0.007842407065641323    0.008327518062491464    0.009162257540496356    
  0.010383738955333698    0.012162213768760399    0.014940354664180285    0.01980304253280251    0.02922408452447554    
  0.04901328720190871    0.09138841323869823    0.1777588908606518    0.32068112227799805    0.4288329723492807    
  0.31950814139041106    0.13714257268441535    0.07939516368107793    0.13714247831441578    0.2011880787423526    
  0.36452790735118795    0.423093028536639    0.3018234383182681    0.16717643333416032    0.08714134601901852    
  0.04760136395638982    0.028915893481434328    0.019883342505759155    0.01514327902397561    0.012387967465363395    
  0.010594998679191184    0.009353736475566242    0.008504253906308426    0.008006052172461517    0.007842395160780653    
  0.008006032103931325    0.008504280278063823    0.009353694505241046    0.010595045578532641    0.012387901560068814    
  0.015143372223850258    0.019883225547498867    0.02891605764177852    0.0476012047248847    0.08714157549986201    
  0.16717614495871266    0.30182378571499213    0.42309283072098613    0.3645280897591291    0.20118800104810103    
  0.13714247831441578    0.31950833393873707    0.3645278980777552    0.4284308406773429    0.38008929775533923    
  0.24964685050273727    0.13995583322900884    0.07627758271480525    0.044003228921942826    0.028183995892153712    
  0.020183946031840434    0.015779279867885174    0.013087483594650468    0.011249770579777753    0.00994263604876516    
  0.00903987996384503    0.008504248621090862    0.008327552977515558    0.008504270011163363    0.009039856031566616    
  0.009942687253907227    0.011249708782834504    0.0130875767354868    0.015779170462408926    0.020184058658462567    
  0.028183847228300012    0.044003418269191415    0.07627735758252796    0.1399561100631643    0.2496465490569078    
  0.3800894791009629    0.4284305651113668    0.36452800400648333    0.31950833393873707    0.4288326621071945    
  0.4230930464251186    0.3800892448262344    0.28508773846082575    0.18151088546616773    0.10664948259059193    
  0.06287210583152118    0.03958147664851565    0.027463503700823705    0.020864192351423016    0.01692053323618885    
  0.014291083787568475    0.012363635527479488    0.010937828170056901    0.009942629655631313    0.00935374139116178    
  0.009162208411285979    0.009353733840754419    0.009942658669141135    0.010937780336473602    0.012363696944038658    
  0.014291010349848077    0.01692063963549621    0.02086404874931565    0.027463645893692455    0.039581326865498895    
  0.06287230051388452    0.10664927379274282    0.181511112062241    0.285087478964037    0.3800894767593455    
  0.42309296052087175    0.4288326621071945    0.32068135442803053    0.30182350205613856    0.24964677959429868    
  0.18151092023070123    0.12021302444220378    0.07699796334151085    0.05060727864693589    0.035620366326311236    
  0.027165374993185692    0.022048585931159843    0.018591782844919198    0.015996608097978968    0.013941427178323702    
  0.012363626327733383    0.011249770448624364    0.010594980853646482    0.01038381757405211    0.010594990707482883    
  0.011249747091085146    0.012363687122225813    0.013941346711441307    0.015996703650614428    0.018591685322519483    
  0.022048712330749093    0.027165236058905185    0.03562052974051183    0.05060708958632746    0.0769981675205261    
  0.12021284020198149    0.1815110956158702    0.2496465908830565    0.30182355561434154    0.32068135442803053    
  0.1777586733342063    0.16717639345807075    0.13995588533949976    0.10664949977763326    0.07699798243312989    
  0.0553438330326447    0.04135581882108291    0.03282029497134729    0.027463471378638107    0.023709313219137485    
  0.02072493017088413    0.018164640493708268    0.015996605639284896    0.014291116168080346    0.013087459917371628    
  0.012388004620790436    0.012162105293015733    0.012387983124311016    0.013087496309428012    0.014291056371494477    
  0.01599667410540593    0.018164553632548503    0.020725046217694408    0.02370916817461075    0.027463616682982975    
  0.032820152968260324    0.041355980026845006    0.055343659813054204    0.07699814221188928    0.10664933915070465    
  0.1399560084685514    0.16717631002443245    0.1777586733342063    0.09138859338179571    0.08714137714212257    
  0.07627756318395612    0.06287210988076951    0.05060725118866114    0.04135581066387011    0.03516387871496785    
  0.03111761727578498    0.0281840535637093    0.025638602030803304    0.023145657219082596    0.020724907458411962    
  0.018591814161394854    0.016920496376676242    0.015779314740156813    0.01514324473018991    0.014940492760935698    
  0.015143260795696103    0.015779276836292346    0.016920561225024663    0.018591740270651868    0.020725011952953475    
  0.02314553353246713    0.025638737355628122    0.028183906036671515    0.0311177802261198    0.03516370734474632    
  0.04135594700126979    0.050607109359430684    0.06287222960328884    0.07627746010227393    0.08714143446069303    
  0.09138859338179571    0.04901312562126356    0.04760133478154154    0.04400325478225707    0.03958146738622637    
  0.035620375525986604    0.03282028827589782    0.031117639358090664    0.030003562504069003    0.028915821991197427    
  0.027471439955160867    0.02563856103565531    0.02370932689731079    0.022048541271583604    0.02086424521637015    
  0.02018386345244748    0.019883413031438823    0.01980285831986175    0.01988339091810017    0.020183906057272685    
  0.020864172319729573    0.02204862824099561    0.02370922615423561    0.025638693370346834    0.027471285576960394    
  0.028915953699422604    0.030003434867877467    0.031117778599312987    0.03282016325615051    0.035620490376909564    
  0.039581386931864915    0.044003333328624265    0.047601296189862204    0.04901312562126356    0.029224206526785458    
  0.028915922232031276    0.028183974409695424    0.027463535125845307    0.027165377207739188    0.027463484689852796    
  0.02818404927036224    0.028915823614726263    0.029224345790268814    0.028915792844339518    0.028184089974528412    
  0.027463421586382545    0.02716545820622055    0.027463411851892928    0.028184091366307642    0.028915793764196465    
  0.029224343536174313    0.028915817979331068    0.02818404164837365    0.027463501781599394    0.027165356249493035    
  0.027463525627079394    0.02818396113066647    0.02891593873029529    0.029224201480138916    0.02891595743632805    
  0.028183916150849562    0.027463603222545103    0.02716526625278039    0.027463603036632794    0.02818391855283346    
  0.028915952889371217    0.029224206526785458    0.019802955075816555    0.019883316436857035    0.02018395239111405    
  0.0208641695020698    0.0220486047827207    0.02370929254428625    0.02563860084045693    0.027471419319921916    
  0.028915797399857772    0.03000364035911573    0.031117548534779514    0.03282039401130496    0.03562025053563303    
  0.039581624764927284    0.0440030885665445    0.04760153581569093    0.04901292257508067    0.047601510994331304    
  0.044003150758251015    0.039581543870730464    0.03562035195853374    0.032820279104595035    0.031117685797858844    
  0.030003482574898686    0.028915930944588338    0.027471297581048913    0.02563873472771636    0.0237091724707972    
  0.022048690155461008    0.020864094463573797    0.02018401194014673    0.01988329724576889    0.019802955075816555    
  0.014940428270629011    0.01514330079255517    0.01577924553992158    0.01692055341703248    0.018591775674334045    
  0.020724940294506968    0.023145651337834215    0.025638573818991872    0.028184091951115726    0.03111757009784464    
  0.03516397706467586    0.041355677483403276    0.05060742448091053    0.0628718675971286    0.07627782563271937    
  0.08714108822042153    0.09138891731031386    0.08714111009755093    0.07627773428220956    0.06287199615478528    
  0.05060729649718211    0.04135580894552867    0.035163828877995316    0.03111770626395134    0.028183961101556392    
  0.025638711823731217    0.023145517920802793    0.020725034372937604    0.018591699677484155    0.016920614186801766    
  0.015779216639758984    0.015143325213284889    0.014940428270629011    0.012162162330813608    0.012387957935165573    
  0.0130875010166871    0.014291078555626224    0.015996623904308963    0.018164638135988617    0.020724917239926144    
  0.02370932795204524    0.02746340394552418    0.03282040466008483    0.041355669851693866    0.05534403362416133    
  0.07699773805769854    0.10664980055386457    0.13995548130821794    0.1671768430139133    0.1777581768330914    
  0.16717677605980638    0.13995557632378597    0.10664968210288274    0.07699788258849408    0.05534385556400216    
  0.041355824142952455    0.03282023916942291    0.027463551893613332    0.02370920840001527    0.020725030282141586    
  0.0181645493988139    0.01599670190863226    0.014291015560842285    0.013087541953506442    0.012387930321783088    
  0.012162162330813608    0.010383778913887047    0.010595004671078774    0.011249753886073202    0.012363654705491323    
  0.013941409233554844    0.015996612541034915    0.018591815496449657    0.022048543310420648    0.027165448195876195    
  0.0356202580458665    0.05060743426774988    0.07699771411946642    0.12021337921615649    0.18151044191045512    
  0.24964732969830156    0.3018229118800899    0.3206820685617929    0.3018229507953962    0.24964720370106777    
  0.18151065198384103    0.12021319763634582    0.07699791981982546    0.05060727044019365    0.03562039810771424    
  0.027165318244953426    0.022048661783272378    0.01859170641293258    0.01599670021192332    0.013941341848863937    
  0.012363699238694513    0.011249713094948708    0.010595029516330352    0.010383778913887047    0.009162228864773417    
  0.009353716910667895    0.009942636809821073    0.010937821053300023    0.012363631504387108    0.014291111975314748    
  0.016920502163093314    0.02086423483411788    0.027463403675722583    0.0395816481320066    0.06287187182492913    
  0.10664980937117458    0.18151043809921105    0.2850883548562183    0.38008853438456686    0.4230939045279347    
  0.4288318519607237    0.4230937496419353    0.3800886717982007    0.2850881710228989    0.1815106588367268    
  0.10664961958772397    0.06287205493352077    0.03958147978757658    0.027463551639464467    0.02086412943106428    
  0.016920604693986093    0.014291015263051344    0.012363700335127091    0.010937767351975668    0.009942678790448179    
  0.009353702560718494    0.009162228864773417    0.008327534408362371    0.008504267064906397    0.00903986505700142    
  0.009942638590173669    0.011249782354183146    0.013087468501075537    0.01577931589148835    0.02018386492552399    
  0.028184091798982545    0.04400309893792953    0.07627785119423286    0.13995546587501614    0.24964738444190174    
  0.38008846471030816    0.42843163625483    0.36452713017227334    0.31950906861942163    0.36452719146631246    
  0.42843152243899985    0.38008879594816464    0.24964712680013001    0.13995568545791182    0.07627760237365892    
  0.044003242791393324    0.028183969107655363    0.020183988258158685    0.015779218146815814    0.013087537245960661    
  0.011249709696984708    0.009942680902951372    0.009039846074138571    0.008504281095567326    0.008327534408362371    
  0.007842402637214176    0.008006045021381096    0.008504251892364045    0.00935374682360547    0.010594974912843952    
  0.01238800237645853    0.015143233135081152    0.019883414197760668    0.02891578423412166    0.04760156650851039    
  0.08714101365787318    0.1671768876551105    0.30182286828533184    0.423093886094979    0.36452704197369495    
  0.2011887859112434    0.13714189640850039    0.20118870595161867    0.3645272362557197    0.4230936358614175    
  0.3018231375800494    0.16717660747082044    0.08714126899006873    0.047601355369681644    0.028915934827951708    
  0.019883303954650627    0.015143330283458148    0.012387924961567395    0.010595038918093736    0.009353691162303909    
  0.008504294335151891    0.00800602566843018    0.007842402637214176    0.007683842133303866    0.007842398473489498    
  0.008327538100698901    0.00916220814022805    0.010383821680564294    0.012162101752851888    0.014940510730510366    
  0.019802848460094554    0.029224362815236864    0.049012905034559115    0.09138895569688035    0.17775813185211853    
  0.32068211371555516    0.42883174338032837    0.3195091204443143    0.13714191556657251    0.07939565120001486    
  0.13714192582060789    0.31950900230120954    0.42883215101411787    0.3206817983114487    0.1777584020052281    
  0.09138871169090125    0.04901308141494015    0.029224221391981227    0.019802957411745984    0.014940407499606215    
  0.012162179395666129    0.010383752249515281    0.00916225720318825    0.008327513284176752    0.007842418633658097    
  0.007683842133303866    0.00784241483344787    0.008006034865692442    0.00850426689734901    0.009353733215246131    
  0.010594979993533768    0.012387996691748279    0.015143246004852411    0.019883404188223475    0.02891578974417796    
  0.0476015398812934    0.08714105981691837    0.1671768467382469    0.30182287171575084    0.4230938319916562    
  0.3645271738241485    0.20118871165186852    0.13714192379796492    0.20118868041513327    0.3645272512974803    
  0.423093606253981    0.3018231418920844    0.16717659381695793    0.08714129588649695    0.047601356823303145    
  0.028915952178453927    0.019883293395794303    0.015143334732916052    0.01238791003124336    0.010595053554065566    
  0.009353684166713986    0.008504302446535602    0.008006016517863276    0.00784241483344787    0.00832751415757367    
  0.008504290093650613    0.00903984235314553    0.009942651304735688    0.011249754683888493    0.013087487727595711    
  0.015779296463486876    0.020183889942643755    0.028184062202038687    0.044003122117914996    0.07627779950854836    
  0.13995552059207067    0.24964732176004123    0.38008858185337135    0.4284315084896254    0.36452722389710807    
  0.31950899606947003    0.36452724177657025    0.42843135167582713    0.3800888595259284    0.24964705434645826    
  0.13995575275770078    0.07627757931575027    0.04400326266113837    0.028183931189442082    0.0201840116235453    
  0.01577919792502783    0.013087561427873064    0.011249692915310899    0.009942708785176238    0.009039825516915725    
  0.008504304690892975    0.00832751415757367    0.00916225562550512    0.009353703126865938    0.009942664076878908    
  0.010937800172842453    0.012363661133140032    0.014291079465787131    0.016920528281268513    0.020864201321405575    
  0.027463437656231642    0.039581599258830584    0.06287191822816747    0.10664975432289929    0.1815104893658235    
  0.2850882677912797    0.3800885510192965    0.4230937375119625    0.42883195426917436    0.42309363201953265    
  0.38008881472534456    0.2850880338669268    0.18151075552230686    0.10664952699616606    0.06287213358259354    
  0.03958142108197717    0.02746358318997892    0.020864093932060672    0.016920639582230043    0.01429099146604227    
  0.012363725433186049    0.010937738642830035    0.009942706280875098    0.009353670902363477    0.00916225562550512    
  0.01038374808093532    0.010595041725249473    0.011249711883954247    0.01236369037172248    0.013941370203786555    
  0.01599664803104513    0.018591776100651995    0.022048589552253358    0.0271654027204937    0.03562031071419289    
  0.05060737219374483    0.07699780413484429    0.12021327431560995    0.18151054172790015    0.24964722552168728    
  0.30182303924937165    0.3206818933717369    0.3018230723468423    0.24964707495426064    0.18151075879887396    
  0.12021311564489172    0.07699797862081073    0.05060720913146704    0.03562046384517258    0.027165279715113146    
  0.022048701516218946    0.018591663159718885    0.01599673812126691    0.013941302231117891    0.012363744074323588    
  0.011249682343982213    0.010595056058521452    0.01038374808093532    0.012162199395969022    0.012387916619420663    
  0.013087552094667847    0.014291034068443707    0.015996668965767374    0.018164587526298626    0.02072497719413117    
  0.02370928279040927    0.027463464829182868    0.03282034656008443    0.041355735239626594    0.055343951728933326    
  0.07699783070764242    0.10664972124407784    0.1399555861435055    0.16717671624674826    0.17775830683570926    
  0.16717666790834823    0.13995570432067084    0.10664958651971931    0.0769979719780472    0.055343782134561856    
  0.04135588613034462    0.032820174327426385    0.027463617827762476    0.023709153701168672    0.02072508690691443    
  0.018164482099819305    0.01599675131350543    0.014290968055926587    0.013087593268111838    0.01238789271602836    
  0.012162199395969022    0.01494037563898365    0.015143355242424227    0.015779202083917976    0.016920608884545017    
  0.01859171331443691    0.020724994025394024    0.02314558987253059    0.025638637748305385    0.028184031505160884    
  0.031117630038956928    0.035163904881840846    0.041355744592285734    0.05060735136991435    0.06287197473394898    
  0.07627771624943179    0.0871411941770907    0.09138880533609824    0.08714121892418959    0.07627764253401442    
  0.06287208859811383    0.050607221733032275    0.041355882041878525    0.035163762015849025    0.03111777199280776    
  0.028183887109318403    0.025638772169072597    0.02314545795395304    0.020725097798163523    0.01859162851871242    
  0.016920673858898738    0.01577915518131338    0.015143380869933378    0.01494037563898365    0.0198030173880626    
  0.01988325086694927    0.020184012974660232    0.02086409244470278    0.022048665197752348    0.02370923133733551    
  0.025638662772185402    0.027471353674702298    0.028915865347630902    0.03000356174458225    0.031117609318578158    
  0.03282031221051486    0.03562032235269758    0.03958155191796532    0.04400315292422904    0.047601467006010756    
  0.04901301672058882    0.04760141299928588    0.04400321249004491    0.03958146889216209    0.035620437681786736    
  0.03282019378429693    0.031117768365199014    0.030003403602161707    0.028916015358223465    0.02747122128687059    
  0.025638798157934004    0.023709102657021384    0.02204875369280551    0.020864025805070067    0.02018407245687894    
  0.019883219698437708    0.0198030173880626    0.029224121353293886    0.0289160102222163    0.02818389942424897    
  0.027463604541746255    0.027165296376760833    0.027463560596965454    0.02818397683395512    0.028915888405228928    
  0.02922426843642835    0.02891586850882546    0.028184023815964    0.027463492583998217    0.027165392414617556    
  0.027463479155216856    0.028184020384330915    0.02891586677476088    0.029224267011632356    0.02891588773277544    
  0.028183974515978833    0.02746356710733477    0.027165290390274707    0.027463594145205446    0.02818388646717766    
  0.028916008277769658    0.029224123602129008    0.028916040857233677    0.02818382862260749    0.02746368489881854    
  0.027165193768681144    0.02746369012317502    0.028183833956009978    0.02891603584753929    0.029224121353293886    
  0.04901323713820865    0.04760125064943268    0.04400335762833311    0.03958138403694398    0.03562046580035515    
  0.03282022060583212    0.031117708517951925    0.03000349995634623    0.028915885808485302    0.027471364057070916    
  0.025638641121327303    0.023709271091596863    0.02204860515211581    0.02086418551640721    0.020183929866123357    
  0.01988335641793511    0.01980291563262743    0.019883328828158627    0.020183967741158836    0.02086412011843115    
  0.022048685412655547    0.023709169080237368    0.02563876486919315    0.027471214370207064    0.02891603834047887    
  0.030003356483961234    0.031117858597321833    0.03282007693192725    0.035620578589013914    0.039581286019606685    
  0.04400344217303156    0.04760119549333186    0.04901323713820865    0.09138846358038225    0.08714149626515219    
  0.07627743810408076    0.06287223299257232    0.050607145401653016    0.04135590766613585    0.035163803991801114    
  0.03111770354184749    0.02818398366126662    0.025638661114278566    0.0231455898614314    0.020724964563820468    
  0.018591764792246224    0.016920541136741386    0.015779265732374922    0.01514328877911781    0.014940438493042435    
  0.015143295288193722    0.015779231384456943    0.01692060965111152    0.01859167927624913    0.020725072079407183    
  0.02314546614827412    0.025638799625793254    0.028183832438224362    0.031117859953444724    0.03516363095549153    
  0.041356046432288865    0.050607019134766104    0.0628723381296074    0.07627732909851762    0.08714156374875628    
  0.09138846358038225    0.17775882362595835    0.1671762340160083    0.13995600785900744    0.10664935633457007    
  0.07699806988731525    0.055343748251070767    0.041355883105840964    0.03282021820183948    0.027463530572540803    
  0.02370925307218029    0.020724988602529283    0.01816459808273337    0.015996651465269924    0.014291065212736442    
  0.01308749859479649    0.012387965327697066    0.01216214479688645    0.012387942258311477    0.013087533151445513    
  0.014291010010254221    0.015996722004104624    0.01816449651481899    0.020725096215711745    0.023709105015349643    
  0.02746368714008352    0.03282008868761821    0.041356052066082775    0.0553435906955766    0.07699824157203455    
  0.10664919468756054    0.13995614809404897    0.16717614133918518    0.17775882362595835    0.3206811722663903    
  0.3018236670037036    0.24964663139225712    0.1815110515354015    0.12021290555509609    0.07699806595910616    
  0.05060719370649373    0.03562043209222519    0.027165319838517235    0.022048635693107797    0.018591753303865245    
  0.015996647916034015    0.013941387992706427    0.012363663942000698    0.011249751164409374    0.010595009841032047    
  0.010383779977148924    0.010595019997966252    0.011249716570196073    0.012363722158779551    0.013941320429262922    
  0.01599674684728703    0.018591632541791043    0.022048762239036727    0.02716518267909324    0.03562059758563223    
  0.05060699499095022    0.07699824954885016    0.12021273069240225    0.18151122980638587    0.2496464658343067    
  0.3018238037334672    0.3206811722663903    0.42883285025019907    0.4230928849948177    0.38008946952454514    
  0.2850876315525936    0.1815109691484584    0.10664941366270475    0.0628721630257485    0.03958144204539614    
  0.02746353776261555    0.020864145828791616    0.016920564174765406    0.014291059611568778    0.012363667558639048    
  0.010937808215253067    0.009942650310486629    0.009353719956021626    0.009162234317097064    0.009353706022834592    
  0.009942680941717177    0.010937752491346531    0.012363728210610665    0.01429098297627166    0.016920672739291726    
  0.020864023385115355    0.02746369494278183    0.039581283566181534    0.06287235484065927    0.10664919643428696    
  0.18151124691802215    0.2850873901275432    0.3800896083098406    0.42309277310269466    0.42883285025019907    
  0.31950821313738115    0.36452802177765153    0.4284307461849365    0.38008936842240776    0.2496467053317184    
  0.13995592260452985    0.07627752731452286    0.044003274204206425    0.028183971379105433    0.0201839584704424    
  0.01577925673384776    0.013087503952884959    0.011249750315404178    0.00994264986618138    0.009039861148321875    
  0.008504269064702743    0.008327527281561055    0.008504284991626301    0.009039837422354303    0.009942702801648115    
  0.011249685468955743    0.013087589851535433    0.01577915430748799    0.020184087373441746    0.028183819922426846    
  0.04400346194771978    0.07627729401982825    0.13995617901293964    0.2496464187939296    0.3800895688530187    
  0.42843048641265263    0.36452813629268127    0.31950821313738115    0.13714251962995505    0.20118800601069756    
  0.36452796903109486    0.42309301553119316    0.30182350024205534    0.16717637294471838    0.08714135779957509    
  0.04760134716913534    0.028915916618198662    0.01988333679600258    0.015143287441113889    0.012387960745447006    
  0.010594996635498384    0.009353735905645458    0.008504255114768208    0.00800603946659321    0.007842403522483884    
  0.00800603230466394    0.008504291749685674    0.009353685923828896    0.010595060639308845    0.012387885659759536    
  0.015143381845648512    0.01988320199126918    0.028916060777404853    0.04760116820912332    0.08714160056199692    
  0.16717610357296658    0.3018237844190717    0.42309271997652104    0.3645281886021426    0.20118797048654938    
  0.13714251962995505    0.07939516368107793    0.1371425027302242    0.31950837120658976    0.42883265226421025    
  0.32068139354614905    0.17775860904088744    0.09138867369265286    0.04901308005893877    0.029224248080986212    
  0.019802924724677477    0.01494045593840418    0.012162130329804432    0.010383813492162237    0.009162207759968857    
  0.008327543040106451    0.007842388849179387    0.0076838526366225885    0.007842407065641323    0.008327518062491464    
  0.009162257540496356    0.010383738955333698    0.012162213768760399    0.014940354664180285    0.01980304253280251    
  0.02922408452447554    0.04901328720190871    0.09138841323869823    0.1777588908606518    0.32068112227799805    
  0.4288329723492807    0.31950814139041106    0.13714257268441535    0.07939516368107793    0.13714250304210673    
  0.20118809286909953    0.3645279502582244    0.42309304780349244    0.30182344539507977    0.16717641583824616    
  0.08714135242277134    0.0476013629793703    0.028915905020987592    0.019883339378908974    0.015143277100838376    
  0.012387972205755451    0.010594997241456827    0.009353735306336647    0.008504240233369128    0.008006052083224075    
  0.007842392875940846    0.008006032182153578    0.00850428363227603    0.009353689374290042    0.010595058478347158    
  0.012387903318121871    0.015143372343610762    0.019883229474200962    0.028916051456689167    0.04760119724462182    
  0.08714157686017603    0.16717615929375956    0.3018237781257394    0.4230928673924549    0.3645280928928972    
  0.20118801969950292    0.13714250304210673    0.20118804512763785    0.2640135918903361    0.39772913752248995    
  0.41333798535354    0.2854865331778219    0.15937684625504236    0.08509924289568674    0.04793063659824874    
  0.03000350899944676    0.021101918606635364    0.01624639479480796    0.013292053848952497    0.011290798348357669    
  0.009863370213726234    0.00886321095239382    0.008254081123559357    0.008006054189316634    0.008095738067091863    
  0.0085110554905318    0.009259675283784564    0.010380705610373771    0.01202745272240575    0.014578710297407578    
  0.019008608568093662    0.027471202107322342    0.044906930570554976    0.08164160797658603    0.1557470893983333    
  0.2820548039590749    0.4109612202698973    0.39698422561284724    0.26398140323953895    0.20118804512763785    
  0.36452795950046574    0.39772912189378007    0.4310070888579406    0.3644337293526132    0.2382521721857065    
  0.1365844007621598    0.07729817220929454    0.04662187437870909    0.031117660472973114    0.022918768951910806    
  0.018090913010570163    0.01489965602508503    0.012583363537422895    0.01086296151460084    0.00963608663391643    
  0.008863203784564462    0.008504256489990493    0.008511075144196918    0.008863631949086646    0.00954599281163851    
  0.01058350995741377    0.012098841467907918    0.01440955607390906    0.018333282380023606    0.025638784910363577    
  0.04022338057565692    0.07008445821701496    0.1289843447638792    0.2311153510904015    0.35919548033947807    
  0.428496992032463    0.39698430159679005    0.36452795950046574    0.4230930361548063    0.4133380585453011    
  0.36443366025391605    0.27252376438409487    0.17703532735807703    0.10822219356532545    0.06734440975017329    
  0.044984987577367117    0.03282030205364729    0.025676405461175545    0.020917158460600625    0.017373699101644074    
  0.01457765864662162    0.012418451227890709    0.01086296407882422    0.009863368194076294    0.009353740467609516    
  0.009259641350608498    0.009546004765562525    0.010178146981079867    0.011152196303935009    0.012546838071668499    