#     DFTpy    
  CRYSTAL 
    
  PRIMVEC    
  6.253862068965517    0.0    0.0    
  0.0    6.253862068965517    0.0    
  0.0    0.0    6.253862068965517    
  PRIMCOORD    
  8    1    
  Si    0.0    0.0    0.0    
  Si    1.5634655172413792    1.5634655172413792    1.5634655172413792    
  Si    0.0    3.1269310344827583    3.1269310344827583    
  Si    1.5634655172413792    4.690396551724137    4.690396551724137    
  Si    3.1269310344827583    0.0    3.1269310344827583    
  Si    4.690396551724137    1.5634655172413792    4.690396551724137    
  Si    3.1269310344827583    3.1269310344827583    0.0    
  Si    4.690396551724137    4.690396551724137    1.5634655172413792    
  BEGIN_BLOCK_DATAGRID_3D    
  3d_datagrid_density    
  BEGIN_DATAGRID_3D#0    
  27    27    27    
  0.0    0.0    0.0    
  6.253862068965517    0.0    0.0    
  0.0    6.253862068965517    0.0    
  0.0    0.0    6.253862068965517    
  0.07152798186632374    0.12799409977278484    0.3073593071560983    0.4084501768116589    0.30399489126015916    
  0.17453881501815216    0.09732159939351873    0.05872926059149583    0.04017834622523447    0.031241344713961415    
  0.026774753460628395    0.024544593193461063    0.02349497539583507    0.023197402106298223    0.023494972704382482    
  0.024544586349164378    0.02677476218759138    0.03124133326890678    0.04017836779782232    0.0587292476453655    
  0.09732159919460846    0.17453877145368574    0.30399491929645933    0.4084501206454919    0.30735930942263157    
  0.12799411607048938    0.07152798186632374    0.12799412165845206    0.1915485905887415    0.3524945699716009    
  0.405468232671041    0.2903856905280159    0.16823773761875704    0.09582090552953569    0.05903101588861588    
  0.040965137391146336    0.03201951671225699    0.02740742148133973    0.025017935442396    0.023839912296090646    
  0.02349497672123856    0.023839921662515147    0.025017924182486256    0.02740743212981153    0.03201951453037369    
  0.040965156586791986    0.0590309879708637    0.09582090636361545    0.1682377285495511    0.2903857358405588    
  0.4054682904861096    0.35249451253244146    0.19154856138066956    0.12799412165845206    0.30735927876581925    
  0.35249451195825077    0.4161408354630538    0.3713120003188055    0.25175029644672126    0.151639992099381    
  0.09196216800851405    0.060074744509414114    0.04340546965879729    0.03444033091311894    0.029399098140656853    
  0.02653880936726782    0.0250179152860571    0.024544591605316687    0.025017923548064452    0.02653879755593651    
  0.02939908654815962    0.03444032763476123    0.04340545337795434    0.06007474561746431    0.0919621448592206    
  0.1516400469685433    0.2517502810521567    0.37131201939084424    0.4161408094261075    0.3524945306099888    
  0.30735927876581925    0.40845012184303847    0.40546823108784474    0.3713120340149383    0.29006177832368935    
  0.1989012539739498    0.13022253143514187    0.08721063867547361    0.06211310979720235    0.04752803848274125    
  0.038605663914237115    0.03294900958420586    0.02939910357838011    0.027407436258297918    0.02677476105707367    
  0.02740741484003408    0.029399093444471072    0.03294899650222963    0.03860567413213235    0.047528028082504004    
  0.06211308903834165    0.08721065991204667    0.13022252874570475    0.19890128226711584    0.2900617969765123    
  0.3713120444799217    0.40546822600170557    0.40845012184303847    0.303994897291565    0.2903856933403615    
  0.251750248974008    0.1989012510344391    0.14831942853909885    0.10953526471273821    0.08286094947054758    
  0.06520369518976415    0.05325252590141638    0.04471998814397117    0.03860565471720048    0.034440340935072956    
  0.03201950287401183    0.031241361169090247    0.032019528171302054    0.03444033210966998    0.03860565934250801    
  0.04471997928880381    0.05325252371716857    0.0652036843398899    0.08286098655010907    0.10953525878459724    
  0.14831938855296667    0.19890129272124657    0.25175028072512    0.2903856946485547    0.303994897291565    
  0.17453880156207524    0.16823771436692625    0.1516400105809113    0.13022253087155963    0.10953527742730561    
  0.09251101685255168    0.07929971479270823    0.06895648950474653    0.06043517529622748    0.053252516339603984    
  0.047528031723193385    0.043405466741567825    0.04096512673575074    0.04017836530979968    0.04096513859040937    
  0.04340546889633194    0.04752803431770576    0.053252507266577966    0.0604351740153141    0.06895649880753203    
  0.07929970204814867    0.09251101489639554    0.10953524124304076    0.1302225219601426    0.15164002085608966    
  0.1682377232405247    0.17453880156207524    0.09732158425821665    0.09582090325064206    0.09196213892530199    
  0.08721062844007421    0.08286098871008765    0.079299698128859    0.07610532980733882    0.07272011408997787    
  0.06895649668479673    0.06520370051760939    0.062113106834246236    0.06007475075306039    0.05903100551634548    
  0.05872926749596404    0.05903100204215678    0.060074739661139825    0.062113092739643425    0.06520370998353676    
  0.06895649469783519    0.0727201080001402    0.07610531725884509    0.07929970071401954    0.08286098606554705    
  0.08721062454524747    0.09196212751414483    0.09582090195595278    0.09732158425821665    0.05872926770542808    
  0.05903102960321392    0.06007472667979472    0.06211310084404473    0.06520369073505244    0.06895649761764361    
  0.07272009628327207    0.07610533499403789    0.07929970082069208    0.08286096265295695    0.0872106392372315    
  0.09196216342347895    0.09582089497226982    0.09732157999965772    0.09582089934565105    0.09196213400380826    
  0.08721062495339485    0.08286096171871768    0.07929971859135172    0.07610534256961576    0.0727200935492902    
  0.0689564854150923    0.06520369861630806    0.062113096876459294    0.060074729895264155    0.05903100370495349    
  0.05872926770542808    0.04017836765271563    0.040965142603492447    0.04340545804065054    0.04752803561120643    
  0.05325253973060664    0.06043516587120083    0.0689564835814633    0.07929971168675631    0.09251103100101034    
  0.10953524851340657    0.13022253179260285    0.15164001494216015    0.16823771871368856    0.17453876789604497    
  0.16823772999298622    0.15164001547995926    0.13022253007286197    0.10953526343764088    0.09251101480086628    
  0.07929969237640098    0.068956501446504    0.060435178399604286    0.05325254040680794    0.047528028826267846    
  0.04340546221506265    0.040965146122693016    0.04017836765271563    0.03124137492580603    0.032019503182681625    
  0.03444033280652211    0.038605665694486445    0.044720005223207605    0.053252522974191724    0.06520369735133744    
  0.08286096070854793    0.10953524508996926    0.14831940268017957    0.1989012461727653    0.25175029736741994    
  0.29038567840825413    0.3039948806684045    0.29038570539735115    0.251750314178166    0.1989012490335042    
  0.14831936736100418    0.10953524488258733    0.08286095972358384    0.06520369999835339    0.053252536624083316    
  0.04471997973037184    0.038605667250189074    0.03444031749754964    0.032019515961191736    0.03124137492580603    
  0.02677475605994653    0.027407421861413483    0.029399072765186888    0.032948995918151286    0.03860565424342392    
  0.04752802470659209    0.06211311389256007    0.08721062187234073    0.13022254793472918    0.19890123883770994    
  0.2900617936309726    0.37131199463095516    0.40546833864967935    0.4084501292914425    0.4054682879858077    
  0.3713120076683418    0.2900618147891908    0.19890122415874886    0.13022252314033958    0.0872106266046833    
  0.06211310184788    0.04752803560456579    0.03860567545676206    0.0329490045911566    0.0293991074268541    
  0.027407433332768422    0.02677475605994653    0.024544601141074276    0.025017908508865632    0.026538803435479257    
  0.029399101848902615    0.034440336735610005    0.04340546942103576    0.06007473512626218    0.09196214780783364    
  0.1516400362530444    0.2517502839644495    0.3713120017290429    0.4161408839363984    0.35249452820504423    
  0.307359266775348    0.3524945129206003    0.41614088230116814    0.37131198730735365    0.2517502924835363    
  0.15164002557585254    0.091962141299269    0.06007475468620414    0.04340547042006173    0.03444033143780727    
  0.029399097519670996    0.026538792232305725    0.025017936060244723    0.024544601141074276    0.02349497954367761    
  0.023839908164217032    0.025017906434843234    0.027407432754588002    0.03201950866023087    0.04096513516124765    
  0.05903101045220127    0.09582089721312426    0.16823775792204948    0.29038567185237846    0.40546825747207105    
  0.35249453221507765    0.19154860777863844    0.1279940814522516    0.19154860191812242    0.3524945433997317    
  0.40546828301745574    0.2903857042129004    0.16823775908629934    0.09582090412958859    0.059030989777196834    
  0.04096514178099114    0.03201950174976965    0.027407432300770338    0.025017915441476232    0.023839924594481702    
  0.02349497954367761    0.023197411171918075    0.023494966499375925    0.024544574288508165    0.026774759783518495    
  0.031241364065737007    0.0401783701727408    0.05872925715661208    0.0973215731589619    0.17453873802162848    
  0.303994930371456    0.40845015678454155    0.30735926682470466    0.12799409611746357    0.071527983269386    
  0.1279941351907526    0.30735928978613536    0.4084501494884602    0.30399484636220264    0.17453883875879847    
  0.09732157293270038    0.05872926472614842    0.040178357354004955    0.031241353543913462    0.02677476199518126    
  0.024544596403213936    0.023494978735244264    0.023197411171918075    0.023494992859921855    0.023839905050964273    
  0.025017912053355434    0.027407440267367546    0.03201950826048791    0.040965147228239324    0.05903100602275977    
  0.09582089579108613    0.16823774182466592    0.2903857559644446    0.40546829748967994    0.3524945360311252    
  0.19154859508755337    0.12799406783452996    0.19154860809443655    0.3524945690166976    0.4054682523587854    
  0.29038571200684493    0.1682377620525553    0.09582088945678108    0.05903100571259414    0.0409651373506051    
  0.03201950976743358    0.02740744036691596    0.0250179037937401    0.023839922969039112    0.023494992859921855    
  0.024544596504955198    0.025017907788415922    0.026538802145973216    0.029399089807058958    0.03444032259365918    
  0.04340546078061099    0.06007474436287704    0.09196216043152909    0.1516400412992064    0.2517502827880341    
  0.3713119771954866    0.41614085576596277    0.3524945497885628    0.30735924523858105    0.3524945343639567    
  0.41614086888813545    0.3713120233150456    0.25175027272431394    0.15164003866815165    0.09196214552877717    
  0.06007473829028918    0.04340547410949218    0.03444033848069547    0.02939908785582702    0.026538807963489824    
  0.025017915292662344    0.024544596504955198    0.026774763650916203    0.0274074327495376    0.029399093497682844    
  0.03294899809999593    0.03860565606529824    0.047528038030102616    0.06211311491600705    0.08721063649734208    
  0.13022252278065544    0.1989012528155316    0.29006177613123924    0.3713119886998802    0.405468296490006    
  0.4084501671522372    0.40546823337938104    0.37131197686008194    0.29006173042012956    0.19890123356592904    
  0.13022252459335112    0.08721062606335267    0.06211310059050713    0.047528036249542605    0.038605672147246806    
  0.032949013462975886    0.029399111152433693    0.027407436731464088    0.026774763650916203    0.031241361537811787    
  0.032019502100807694    0.03444031838990514    0.03860565758638719    0.04472000090465932    0.05325251638732472    
  0.06520371122949048    0.08286095649221359    0.10953525602709457    0.14831940675672325    0.1989012494301648    
  0.2517503153738466    0.290385738756679    0.3039948837964349    0.29038575604095973    0.25175030815483923    
  0.19890128742236865    0.1483193644961681    0.10953526747138684    0.08286096664706893    0.06520371396905703    
  0.05325251256123225    0.044719988918018934    0.038605665242052174    0.03444033986453169    0.03201950568802334    
  0.031241361537811787    0.04017836874047021    0.0409651430835468    0.043405462201534115    0.04752804343061164    
  0.053252523171504605    0.060435174333589275    0.06895650355939874    0.07929971079145308    0.0925110431001393    
  0.10953523595859664    0.13022251210057215    0.15164002687093958    0.1682377173806819    0.17453878083226196    
  0.16823773481445564    0.15164005563190244    0.1302225082330541    0.10953524868300094    0.09251101445782292    
  0.07929971391847519    0.0689564840232348    0.06043516650511053    0.05325251058422082    0.047528041169593506    
  0.04340545203191651    0.040965143165812255    0.04017836874047021    0.05872927880141567    0.05903099030388029    
  0.06007472668863163    0.06211309526952163    0.0652037009095    0.06895649406859818    0.07272010304661915    
  0.07610535162509707    0.07929970051064122    0.08286094825688432    0.08721064236992891    0.09196213398923973    
  0.09582090169319925    0.0973215706228704    0.095820925086826    0.09196214614046834    0.08721062676327886    
  0.08286096043462461    0.07929969272146317    0.07610533833772895    0.07272011584377863    0.0689564962619002    
  0.0652037034464557    0.062113090298817716    0.060074745024154205    0.05903100245331271    0.05872927880141567    
  0.09732157550328524    0.09582090120088234    0.09196211787671842    0.08721062921898598    0.08286096586294028    
  0.0792997033792506    0.0761053355703082    0.0727201176023947    0.06895650691348072    0.06520368292877525    
  0.06211307938439584    0.06007475769976276    0.05903100551639828    0.05872926141077226    0.05903100541768229    
  0.06007472686485993    0.06211309791265589    0.06520372523068971    0.06895649634545457    0.07272012100416106    
  0.07610530875924337    0.07929967532597829    0.08286096933712703    0.08721064644093796    0.09196211303792391    
  0.09582089450372079    0.09732157550328524    0.17453878833608774    0.1682377415937589    0.15164003129309944    
  0.1302225225855107    0.1095352565990523    0.09251102094648798    0.07929969284618645    0.06895649816562964    
  0.060435185978266824    0.05325251223643494    0.0475280348820923    0.04340548285434449    0.040965135578728974    
  0.04017837178962063    0.040965150163500046    0.043405474637279166    0.04752802369539526    0.05325251145278988    
  0.060435162614427815    0.06895648307323045    0.07929971017724703    0.0925110264465163    0.10953525346611895    
  0.1302225205333925    0.15164002297456736    0.1682377560177605    0.17453878833608774    0.30399486575937423    
  0.29038570098494837    0.25175027409207973    0.19890124068816142    0.14831939331708988    0.10953523968744684    
  0.08286094495219203    0.06520369990134334    0.05325252160434974    0.0447199880875184    0.03860567072836849    
  0.03444033705227352    0.03201951659811689    0.031241356576377294    0.032019522024744174    0.034440332944519814    
  0.03860566209043055    0.04471998532964234    0.05325251792777526    0.06520370373560501    0.08286096891884157    
  0.10953527292688886    0.14831936488125108    0.19890128995989684    0.251750274884879    0.29038570654101814    
  0.30399486575937423    0.40845013556640175    0.40546825013875293    0.37131197902918406    0.2900617780162134    
  0.19890127572087804    0.13022253292533373    0.08721065033783197    0.062113104169627384    0.04752804142307741    
  0.038605657428262496    0.032948993388748425    0.029399089277133836    0.027407438599740014    0.026774755004862903    
  0.027407429399616576    0.02939909302670388    0.03294900233780734    0.03860565465842554    0.047528025484781605    
  0.062113082637189114    0.08721064476881771    0.13022251203266333    0.19890125276714782    0.2900618003908218    
  0.3713120089904694    0.40546824347564236    0.40845013556640175    0.30735928557448156    0.3524945259959925    
  0.4161408597664685    0.3713120047378283    0.25175027166233244    0.15164002661935563    0.09196213320953509    
  0.06007475194748247    0.04340546351266962    0.03444031621342295    0.029399087273469078    0.02653879648290001    
  0.025017923958191593    0.024544596268480583    0.025017923808382452    0.02653880996508156    0.029399074016547483    
  0.034440327900919616    0.043405461345049176    0.0600747365101449    0.09196214157781579    0.1516400558512379    
  0.25175029792006504    0.3713121001773214    0.4161408117704585    0.3524945509065079    0.30735928557448156    
  0.1279941015062352    0.19154855198651524    0.35249452623760186    0.4054682788313881    0.2903856758333939    
  0.1682377342946655    0.09582090504954531    0.05903101248275036    0.04096513240266335    0.032019504514945354    
  0.027407431452168615    0.025017920560573653    0.02383992234735018    0.023494976515585332    0.023839913201977345    
  0.02501791975635538    0.02740743803357019    0.03201950954728536    0.04096514041924962    0.05903098757090715    
  0.09582089074888106    0.16823775578315087    0.29038569514114776    0.40546825238231127    0.3524945575801193    
  0.19154857520468305    0.1279941015062352    0.07152798186632374    0.12799409977278484    0.3073593071560983    
  0.4084501768116589    0.30399489126015916    0.17453881501815216    0.09732159939351873    0.05872926059149583    
  0.04017834622523447    0.031241344713961415    0.026774753460628395    0.024544593193461063    0.02349497539583507    
  0.023197402106298223    0.023494972704382482    0.024544586349164378    0.02677476218759138    0.03124133326890678    
  0.04017836779782232    0.0587292476453655    0.09732159919460846    0.17453877145368574    0.30399491929645933    
  0.4084501206454919    0.30735930942263157    0.12799411607048938    0.07152798186632374    0.12799410627892963    
  0.19154859335540958    0.3524945322876643    0.4054682820146507    0.2903856877045681    0.16823775316017545    
  0.09582092032258345    0.05903101045155506    0.04096512768112326    0.032019504868340695    0.0274074388595858    
  0.025017927283972664    0.02383991065338072    0.023494971000628476    0.023839916613728338    0.025017914738620278    
  0.02740742782463544    0.03201949676572031    0.04096514781062667    0.05903098890217188    0.09582092692072539    
  0.16823771901240428    0.29038574952903384    0.40546823164022255    0.3524945409013731    0.19154860165953108    
  0.12799410627892963    0.1915486331588651    0.25846247769151587    0.39640425440030025    0.4127880100710193    
  0.29152070147977505    0.1738440472597245    0.10316790957127914    0.0657839901905396    0.046406473144717214    
  0.03610968063893309    0.030290295946333628    0.026874745843421307    0.024859448664995266    0.02383992009444048    
  0.02362124218261782    0.02427263897482296    0.026097872700351424    0.030000344260943668    0.037890128286368896    
  0.054024599641813977    0.08711006249316808    0.15244397092941472    0.2643680953997502    0.3837721771810979    
  0.3756252471598534    0.25028007667671376    0.1915486331588651    0.352494542904625    0.3964042799602684    
  0.441275593734012    0.38518904500672735    0.2681798726445181    0.17056022656997513    0.1098066384682762    
  0.07496013342080442    0.054953811441787535    0.04288265411408396    0.03515699107667745    0.03011214868418277    
  0.0268747418976239    0.02501793773186336    0.024272635616638692    0.024609073303416332    0.026183811930014435    
  0.029669009317813206    0.0365853258526094    0.05023683179628611    0.07735231208360435    0.12932973092803304    
  0.21863651675805634    0.3330524207373939    0.399575333120123    0.37562528386560434    0.352494542904625    
  0.40546825651710694    0.41278799707728653    0.3851891453372856    0.31286546049256947    0.22888056911675925    
  0.16199335546629287    0.11660932472505138    0.0869569283763157    0.06702964555643101    0.052815606899890434    
  0.04247495371379031    0.035156991159904775    0.030290300003334412    0.0274074377963883    0.026097864118036426    
  0.0261838041863073    0.02762489166394574    0.03078227038568359    0.03670330303325029    0.047574068023212714    
  0.06777329790151493    0.10420387983330745    0.16473935199401124    0.2491162013559049    0.3330524497776864    
  0.383772115328941    0.40546825651710694    0.29038568855141195    0.29152067949681687    0.26817985621611873    
  0.22888059345138345    0.18708023041566044    0.15151982645236614    0.12353078614693118    0.10110940473361713    
  0.08220703456403408    0.06601481151977263    0.052815610590978834    0.04288267757979702    0.03610968040181538    
  0.0320195070314471    0.030000362402878518    0.02966901102505348    0.030782264947484178    0.033429793867030544    
  0.03816093753098798    0.04611162283182386    0.059590872481346924    0.08198083420686451    0.11677984441777874    
  0.16473938266424937    0.21863651082216373    0.26436813746417703    0.29038568855141195    0.16823775573146654    
  0.17384402063763874    0.1705602456185192    0.1619933511316732    0.15151982636060224    0.14068787702733052    
  0.12896901320416843    0.11509689546646003    0.0989627891250991    0.0822070219585011    0.06702964477305576    
  0.05495381172736043    0.04640646753017722    0.040965146507649736    0.03789012420365484    0.03658533427918808    
  0.03670331720590476    0.03816093208083117    0.04108910676330235    0.04587914613113645    0.05343927293403072    
  0.06508474296257023    0.08198080604792617    0.10420386197446756    0.12932970240105987    0.15244395705115976    
  0.16823775573146654    0.09582091972452567    0.10316791474789944    0.10980661805858774    0.11660932271135108    
  0.12353083438465502    0.12896900720445337    0.13035142163394606    0.12567331341132096    0.11509687822317086    
  0.10110942274225274    0.08695691966150973    0.07496014169913075    0.06578397366845423    0.05903102254020876    
  0.05402461107237527    0.050236841201703325    0.04757407648928021    0.046111643985299364    0.045879160636296185    
  0.046907282745238574    0.04932304301308017    0.05343926839981225    0.05959086896998854    0.0677732704414818    
  0.07735229538215165    0.08711006248936268    0.09582091972452567    0.05903101619147607    0.06578398887195237    
  0.0749601076558176    0.0869569246066164    0.10110941621763098    0.11509688900436221    0.12567332076550455    
  0.13035140175979906    0.1289690068148367    0.12353081113433319    0.11660932261069933    0.10980662540407721    
  0.10316790279762271    0.09582090252437314    0.08711007859546832    0.07735230866019832    0.06777327401886726    
  0.059590851586645496    0.05343927272900935    0.049323057195623174    0.0469072705579251    0.04587915093098374    
  0.04611163345936016    0.047574077728231204    0.050236832153320934    0.05402459613949968    0.05903101619147607    
  0.04096515308293434    0.046406468648243195    0.05495379669700613    0.0670296316500346    0.08220706519659532    
  0.09896278390849075    0.11509689059159485    0.12896901735674784    0.14068789627615128    0.15151980108797744    
  0.16199334496893966    0.17056024224589317    0.17384401762026586    0.16823771042836083    0.1524439585713441    
  0.12932973045652282    0.10420385996655462    0.08198082221789299    0.06508473926095204    0.05343925812449234    
  0.04587915967653837    0.04108911459723635    0.03816095157888723    0.03670331418179749    0.03658531789753539    
  0.037890129224950164    0.04096515308293434    0.03201952905831835    0.03610968140646136    0.04288266284652109    
  0.052815624148613884    0.06601482349572642    0.08220703138459909    0.10110941448411943    0.12353081228841262    
  0.1515197873893822    0.18708020913074386    0.22888055133835003    0.2681799151834832    0.29152072845264054    
  0.29038569893066696    0.26436815306629846    0.218636529384527    0.16473935368473183    0.11677981987599224    
  0.08198083540903038    0.05959085491853099    0.046111641647007304    0.03816094742486909    0.0334297806928841    
  0.030782261458827523    0.02966901147745629    0.030000348389118123    0.03201952905831835    0.02740743217232231    
  0.030290278922379437    0.035156983059744636    0.042474937605054476    0.05281561157622348    0.06702963452052282    
  0.086956938693707    0.11660930612439128    0.16199336278251297    0.2288805719765194    0.3128654914601883    
  0.38518908028876125    0.41278816593424883    0.4054682578282908    0.3837722040466516    0.333052409162103    
  0.24911622144736795    0.16473932089275933    0.10420388560621098    0.06777326008301462    0.047574082174053664    
  0.036703314137085156    0.030782264487143662    0.027624906840391223    0.026183809341709604    0.026097879129428746    
  0.02740743217232231    0.025017937534202946    0.02687472379942877    0.030112137341904568    0.03515698403675048    
  0.04288268087735709    0.05495381356387479    0.07496011535763132    0.10980661392153332    0.1705602662105727    
  0.2681798763280461    0.38518909805842827    0.44127561723998143    0.39640418137918926    0.3524945127598717    
  0.37562523699488276    0.39957539196285724    0.3330524227120028    0.21863650911337484    0.12932972716876914    
  0.07735231400014311    0.05023684646857621    0.03658532301790047    0.029669027522922557    0.0261838041238508    
  0.02460906601317133    0.02427263164006799    0.025017937534202946    0.02383992916825516    0.02485943737294581    
  0.026874721532777764    0.03029029855092922    0.03610969176663431    0.04640646178567242    0.06578398520138169    
  0.10316789855098386    0.17384405211671677    0.29152068733283654    0.4127880087007222    0.3964042315703501    
  0.25846247197954425    0.19154859436595387    0.2502800918071918    0.3756252044619706    0.38377220727428063    
  0.2643681192337717    0.15244399587959157    0.08711006335153822    0.05402460043430631    0.03789012198639579    
  0.030000338682424552    0.026097874692314244    0.02427263814709607    0.02362123216089053    0.02383992916825516    
  0.023494987214180186    0.023839909043544365    0.02501790541353988    0.02740743451512866    0.03201951033116304    
  0.04096514484387911    0.05903100442658956    0.09582090255044307    0.16823769355406706    0.29038570115628765    
  0.40546829993968614    0.35249449776037545    0.19154859329121063    0.12799408342047738    0.19154864921293382    
  0.3524945745750411    0.4054682843129397    0.29038566300243007    0.1682377571843548    0.09582090572993411    
  0.05903101078948263    0.040965140317205835    0.0320195062903163    0.027407433005405185    0.02501793004394778    
  0.02383992527723093    0.023494987214180186    0.023839929438441584    0.023621216574838986    0.024272621357325577    
  0.02609787606424344    0.03000034980924157    0.03789012449627096    0.054024606404792404    0.08711004141388079    
  0.15244396778235017    0.2643681502596404    0.3837721851331762    0.3756252775533672    0.2502800817268505    
  0.19154858224471463    0.25846243539264796    0.39640429973705815    0.41278808665709243    0.2915207093153775    
  0.17384408660405412    0.10316788398937339    0.06578397996711846    0.046406466046888355    0.03610967478336442    
  0.030290301218055656    0.026874716683742618    0.024859442676164946    0.023839929438441584    0.0250179296739311    
  0.0242726372198379    0.024609067391488406    0.026183803202797656    0.02966902775168042    0.036585319746721454    
  0.05023684101821516    0.0773523277725385    0.12932974001450762    0.2186365192539056    0.33305241265021557    
  0.3995753545337228    0.3756252681056429    0.3524945210816723    0.3964042362351602    0.4412756574968687    
  0.38518913607582445    0.2681798747177476    0.17056023992953842    0.10980663784411486    0.07496011789944758    
  0.05495382431163481    0.04288266063899361    0.03515698387281238    0.030112136125624536    0.02687474077534495    
  0.0250179296739311    0.027407422773469095    0.026097870884860246    0.026183810294024723    0.02762488795387408    
  0.03078225980482394    0.03670331486536617    0.047574098877691866    0.06777327681592304    0.10420387300736936    
  0.16473932900802207    0.24911619035971622    0.33305241400426977    0.3837722113501937    0.4054682534743129    
  0.4127880605040401    0.3851890787682464    0.31286545086605033    0.2288805403599866    0.16199334089129228    
  0.11660930714031817    0.08695693340133558    0.06702963394824941    0.05281562492554206    0.04247495735427224    
  0.035157000271837574    0.03029028682525939    0.027407422773469095    0.0320195067445722    0.03000035054431264    
  0.029669005933821865    0.03078225888046295    0.033429809996754475    0.038160937732581515    0.046111638913488066    
  0.059590847008737874    0.0819808129636479    0.11677986335637262    0.16473935449463623    0.21863651515688134    
  0.26436813641311224    0.2903856998601143    0.29152073286683267    0.26817989369983847    0.22888061619051617    
  0.1870801970458046    0.1515197982378506    0.1235308189924167    0.10110941276777997    0.08220703785077095    
  0.06601479014273255    0.05281562648494317    0.042882660183941504    0.03610969027725755    0.0320195067445722    
  0.04096516121562508    0.037890118069120064    0.03658531986643838    0.03670332298332926    0.03816094998000564    
  0.041089094490444636    0.04587915586662492    0.05343927006824061    0.06508475688516173    0.08198080948915591    
  0.10420387947570833    0.1293297039422567    0.15244396145442288    0.16823772449788602    0.17384404867675815    