#     DFTpy    
  CRYSTAL 
    
  PRIMVEC    
  3.750620689655172    0.0    0.0    
  0.0    3.750620689655172    0.0    
  0.0    0.0    3.750620689655172    
  PRIMCOORD    
  2    1    
  Si    0.0    0.0    0.0    
  Si    1.8753103448275863    1.8753103448275863    1.8753103448275863    
  BEGIN_BLOCK_DATAGRID_3D    
  3d_datagrid_density    
  BEGIN_DATAGRID_3D#0    
  17    17    17    
  0.0    0.0    0.0    
  3.750620689655172    0.0    0.0    
  0.0    3.750620689655172    0.0    
  0.0    0.0    3.750620689655172    
  0.06273112085924853    0.11063231342273694    0.26865672954681985    0.37972561749199213    0.3053987687163727    
  0.1891284845439724    0.11531723561947367    0.08019009372676764    0.07005351703072432    0.08019009338995486    
  0.11531723674103203    0.18912850829497901    0.3053987362609814    0.37972553356512323    0.2686567027596605    
  0.11063235703553366    0.06273112085924853    0.11063231745617912    0.16487952735444775    0.3097865943096544    
  0.3781821362596575    0.29049924116292775    0.18013246887028217    0.11139424881489433    0.07857506759232807    
  0.06907080586499724    0.07857506673166803    0.11139423193453081    0.18013250985856144    0.2904992063455206    
  0.378182197208158    0.30978662641604965    0.16487955287578238    0.11063231745617912    0.26865670496693034    
  0.30978664667070666    0.3753456033839996    0.35016914390285264    0.2487363077209872    0.15696071701903322    
  0.10149320746487782    0.07462050671009664    0.0667765864654533    0.07462051906888392    0.10149320256840326    
  0.15696072510815834    0.24873627503659218    0.35016910321098793    0.37534569892423575    0.30978658313991153    
  0.26865670496693034    0.37972559018980484    0.37818214411434375    0.3501691342121935    0.2774670294713639    
  0.19266782514879321    0.12839188965484288    0.08960757185795877    0.07025059845676769    0.06452835221655835    
  0.07025061004862758    0.08960756313565958    0.12839187069570496    0.19266781917044618    0.2774670500773775    
  0.35016907733458985    0.37818220607840514    0.37972559018980484    0.30539876009787287    0.2904992460846787    
  0.24873630614902315    0.19266786924045848    0.1405413981574032    0.1026539675372187    0.0792409086965227    
  0.06719320569401492    0.06360273013659183    0.06719321166872708    0.07924090530492661    0.1026540121285739    
  0.14054140394343603    0.19266782820650544    0.24873630825283938    0.290499247972377    0.30539876009787287    
  0.18912846320479995    0.18013244383187652    0.156960692960318    0.1283918789255524    0.10265398861635033    
  0.08386342466615591    0.07222255424546402    0.06628000004272304    0.06452831910130695    0.06627999176226472    
  0.07222255337856719    0.08386344835289844    0.10265398995103364    0.12839185824036722    0.15696072587565715    
  0.18013248082358208    0.18912846320479995    0.1153172175310237    0.11139424737639095    0.1014932202906111    
  0.08960754317167512    0.07924089733670117    0.07222257256179547    0.06856773474540181    0.06712415549735676    
  0.06677660988038937    0.06712417881165662    0.06856770873945905    0.07222255671005172    0.07924088784059206    
  0.08960756692503369    0.10149321721678566    0.1113942294272299    0.1153172175310237    0.08019006804164318    
  0.07857507652916725    0.07462051062352126    0.07025060674983948    0.06719320007132454    0.06628001311174195    
  0.067124180937723    0.06846398818728355    0.06907080978459859    0.06846400546893315    0.06712416872593871    
  0.06628001721635166    0.06719319726917142    0.07025058909169625    0.07462051636903079    0.07857506093210044    
  0.08019006804164318    0.0700535155730016    0.06907082043643223    0.06677662152498973    0.06452836202055645    
  0.06360270489395892    0.06452832825640344    0.06677660737023436    0.06907082777419833    0.07005351221370001    
  0.06907079605837782    0.06677662016402906    0.06452835310112594    0.06360271077750002    0.06452835406246446    
  0.06677661740183208    0.0690708143223808    0.0700535155730016    0.08019007134025281    0.07857505552326625    
  0.07462049892855593    0.07025062260297273    0.06719318310672422    0.06628001388826649    0.06712417109379376    
  0.06846400591630371    0.06907080792913331    0.06846399324622493    0.06712416822764188    0.06627999107781227    
  0.06719319356532694    0.07025059502894232    0.07462051345105573    0.07857506885030636    0.08019007134025281    
  0.11531721355210106    0.11139426227058949    0.10149320983873643    0.08960756785936168    0.07924090428646625    
  0.07222253673364731    0.06856774413941394    0.06712414042215847    0.06677658237399417    0.06712417750406853    
  0.06856771791110412    0.07222256857637456    0.07924091809705194    0.08960755247371242    0.10149321800979283    
  0.11139423858122911    0.11531721355210106    0.18912848089210826    0.1801324659320605    0.15696073354740667    
  0.1283918715258964    0.102653970081118    0.08386344656071666    0.07222254633294405    0.06628000037311858    
  0.0645283456782242    0.06628000360800676    0.07222255292953254    0.08386343325303391    0.10265397723693571    
  0.12839189342547364    0.15696072968197142    0.1801324691459745    0.18912848089210826    0.3053987921657986    
  0.290499249773261    0.2487362779649441    0.19266787453004247    0.14054139768230833    0.10265397921242972    
  0.07924091891472962    0.06719322262759243    0.06360271855180039    0.06719321605145762    0.0792409097680405    
  0.1026540101854618    0.14054139693394221    0.19266781804138625    0.24873629282436122    0.2904992097843907    
  0.3053987921657986    0.37972554921336266    0.3781821498108689    0.35016911957720437    0.27746704805195427    
  0.19266784465595613    0.12839186499855365    0.08960756156145332    0.07025060525747452    0.06452833790160482    
  0.07025059206399759    0.08960753918231183    0.12839188633885326    0.19266784373145693    0.2774669948773209    
  0.3501691149222351    0.3781822210640913    0.37972554921336266    0.2686567164715097    0.3097866720167513    
  0.375345640924552    0.3501691362490414    0.2487362402766112    0.1569607254834111    0.10149321049961385    
  0.07462050468870539    0.06677659887890204    0.07462051325920421    0.10149321381038111    0.15696071064396463    
  0.2487362557988958    0.350169135847999    0.3753456711614447    0.30978659029955286    0.2686567164715097    
  0.11063232316511337    0.16487953847327821    0.30978662189509787    0.37818224486506985    0.2904992070481207    
  0.1801324540365254    0.11139425379374514    0.07857505926254556    0.06907079745317615    0.07857508190901222    
  0.11139424804722872    0.18013248380654803    0.2904992199319891    0.3781822337064505    0.3097866587964614    
  0.16487953276866893    0.11063232316511337    0.06273112085924853    0.11063231342273694    0.26865672954681985    
  0.37972561749199213    0.3053987687163727    0.1891284845439724    0.11531723561947367    0.08019009372676764    
  0.07005351703072432    0.08019009338995486    0.11531723674103203    0.18912850829497901    0.3053987362609814    
  0.37972553356512323    0.2686567027596605    0.11063235703553366    0.06273112085924853    0.11063230700966419    
  0.164879543775373    0.3097866506397465    0.37818219435665973    0.2904992453949529    0.18013245922948914    
  0.11139425307659268    0.07857508294691963    0.06907080782207287    0.07857507001421639    0.11139425269785286    
  0.18013244764454805    0.2904991933545547    0.3781821796324779    0.30978660584631434    0.16487956594718758    
  0.11063230700966419    0.16487952109497836    0.21918610690462792    0.34108472449953126    0.3719765295164537    
  0.2762337808935535    0.17211108450905344    0.1081118497891007    0.07739380549608174    0.06846398529137535    
  0.0773937998888931    0.10811183290205982    0.1721111022453123    0.2762338014149158    0.3719765021673782    
  0.3410847407171861    0.21918612598503673    0.16487952109497836    0.3097865698235909    0.3410847365697143    
  0.3801681701991289    0.33704149451591553    0.23703343624911402    0.15136087516693644    0.09972962481339874    
  0.07452111841366832    0.06712414181163691    0.0745211252797872    0.09972961731672504    0.1513608868878575    
  0.2370334771609786    0.3370414306235038    0.38016816840242296    0.3410847564772269    0.3097865698235909    
  0.3781821637085179    0.37197651742574145    0.33704152085815464    0.2648048826829044    0.18540126262912496    
  0.12584033217802912    0.08978287557916588    0.07166416986614575    0.06628000932679261    0.07166417247137791    
  0.08978287312865695    0.12584029478042405    0.18540126710075638    0.26480489388029765    0.3370414250237317    
  0.371976497695928    0.3781821637085179    0.29049928222657956    0.2762338277111204    0.23703348446216974    
  0.1854012493054041    0.13773172852868742    0.10302326411027733    0.0815469180699835    0.0704922309197261    
  0.06719322091994379    0.07049223447774611    0.08154689990828934    0.10302328722350415    0.13773172878403006    
  0.18540126910623836    0.23703349436314974    0.27623384248999844    0.29049928222657956    0.18013241943709576    
  0.17211108356783564    0.15136086911399768    0.12584032483814767    0.10302326546939473    0.0865489484134783    
  0.07657878038544516    0.07166416453481315    0.07025056986033924    0.07166415481999858    0.07657877327632513    
  0.08654892719981905    0.10302325947482671    0.12584030569933552    0.15136089329498073    0.17211114303085642    
  0.18013241943709576    0.1113942411841535    0.10811184501965466    0.09972962512938055    0.08978289155805161    
  0.08154687878589335    0.07657880202671455    0.07471145371425571    0.07452111022932498    0.07462050821666517    
  0.07452112953944727    0.07471147078445718    0.076578803106251    0.08154688902440159    0.0897828717648388    
  0.0997296314502501    0.1081118295443487    0.1113942411841535    0.07857505850813153    0.07739381585652254    
  0.07452111824844683    0.07166418197788925    0.07049222223484833    0.0716641811123446    0.07452111426739959    
  0.07739380429144171    0.0785750789805485    0.07739380808628796    0.07452112030976091    0.07166419229487314    
  0.07049221048178644    0.07166419353429546    0.0745211316836382    0.07739380334433034    0.07857505850813153    
  0.0690708043067145    0.06846400149353347    0.0671241727035231    0.06627999200519483    0.06719318669898125    
  0.0702505902869282    0.07462051562478851    0.07857508296053747    0.0801900598062659    0.07857506443037597    
  0.07462052825049574    0.07025057788428346    0.06719320449157737    0.06627999524133088    0.06712416969296003    
  0.06846401096017639    0.0690708043067145    0.07857505128893774    0.0773937895555262    0.07452110785587865    
  0.07166419145722512    0.07049221915516944    0.07166419529856165    0.07452110968098226    0.07739381724344901    
  0.0785750508664232    0.07739381161262703    0.07452110842311192    0.0716641767480077    0.07049220624150843    
  0.07166417218360949    0.07452112543412022    0.07739380432833547    0.07857505128893774    0.11139423437405872    
  0.10811185610430883    0.0997296275899266    0.08978288346123295    0.08154691707024515    0.07657875605968184    
  0.07471147074140365    0.07452111023520436    0.07462047522631149    0.07452111589170501    0.07471146824837312    
  0.07657880818020507    0.08154687962897775    0.08978286013760153    0.09972963664993022    0.10811183584255939    
  0.11139423437405872    0.18013248403439663    0.17211107546043217    0.15136090719877052    0.12584030787711256    
  0.1030232589439953    0.08654894077143965    0.07657877635047244    0.07166417224779953    0.07025059606967436    
  0.07166419155223759    0.07657880517640338    0.086548921444771    0.10302325968999271    0.12584032775057793    
  0.15136088947442666    0.17211107367161807    0.18013248403439663    0.2904992621456926    0.27623382277727865    
  0.23703347345434286    0.1854013115139174    0.13773172474283832    0.10302326529069394    0.08154691094829773    
  0.07049225224920472    0.06719323210437944    0.07049223340139198    0.08154690670864051    0.10302324981803782    
  0.13773173255325366    0.1854012754227003    0.2370335009997391    0.2762338159389567    0.2904992621456926    
  0.3781821247352718    0.3719764515578828    0.33704143394742186    0.26480488411640263    0.18540126064344717    
  0.1258403134359587    0.08978288276226773    0.07166420944568888    0.06627997776381958    0.07166417335801396    
  0.08978286713456392    0.12584032499049677    0.18540127834777365    0.2648049094322701    0.33704145321834195    
  0.37197648959094226    0.3781821247352718    0.30978663582487337    0.34108478380902285    0.3801681935632886    
  0.3370415046816385    0.23703345158357958    0.15136088481308374    0.09972962881398187    0.07452110895811018    
  0.06712415299725873    0.07452111875938097    0.09972962525033173    0.15136090792340845    0.23703346100133194    
  0.3370414668326445    0.3801681462491684    0.34108473577882037    0.30978663582487337    0.1648795544739348    
  0.2191860985071258    0.3410847319229341    0.3719765467914776    0.2762337639379345    0.17211112389998343    
  0.10811186079157423    0.0773938025780678    0.06846399405173541    0.07739382070674393    0.1081118428960903    
  0.17211110296234017    0.27623378886774264    0.371976485861093    0.34108478340605075    0.21918609890403576    
  0.1648795544739348    0.11063230700966419    0.164879543775373    0.3097866506397465    0.37818219435665973    
  0.2904992453949529    0.18013245922948914    0.11139425307659268    0.07857508294691963    0.06907080782207287    
  0.07857507001421639    0.11139425269785286    0.18013244764454805    0.2904991933545547    0.3781821796324779    
  0.30978660584631434    0.16487956594718758    0.11063230700966419    0.26865672037317456    0.30978657810974086    
  0.37534568188273065    0.35016915903792595    0.24873626080134126    0.15696071350790836    0.10149322520567249    
  0.07462051477940605    0.06677659591414407    0.07462050359824314    0.10149322690000702    0.15696071489382216    
  0.24873628361280747    0.35016904524121945    0.3753456621223853    0.3097866288165498    0.26865672037317456    
  0.30978660836111693    0.34108471501437654    0.38016815591616704    0.33704141383685154    0.23703345831502975    
  0.1513608841274679    0.09972963994411181    0.07452111512384436    0.06712414469140077    0.07452109635593251    
  0.099729614301607    0.15136090764956744    0.2370334607362775    0.3370414681830744    0.3801682302161342    
  0.3410847436730443    0.30978660836111693    0.3753456395454879    0.3801682358886507    0.36375169061367196    
  0.2948080344216615    0.20596105091400785    0.13694354391305488    0.09538462038255874    0.0747114615181893    
  0.06856771780627051    0.07471147958538112    0.09538462229445617    0.136943543367302    0.20596100219098437    
  0.29480792765106567    0.36375171344737156    0.38016812498368613    0.3753456395454879    0.3501690856593216    
  0.33704143523307817    0.2948079998589541    0.2303697482940586    0.16662864297703497    0.11971579080574787    
  0.0911244561693423    0.07657879919983873    0.07222253428180063    0.07657879430403629    0.09112445559640335    
  0.11971578103334526    0.1666286466165272    0.23036970757117178    0.2948079703809548    0.33704145976409455    
  0.3501690856593216    0.248736266885584    0.23703348937171115    0.2059610258485674    0.16662866166495163    
  0.13098933539541455    0.10517516554732743    0.0894321821442393    0.08154689496304103    0.07924089985802185    
  0.08154690557057415    0.08943219218544035    0.10517519618017919    0.13098934572102805    0.16662861926889092    
  0.2059610433571804    0.2370334655374003    0.248736266885584    0.15696066607038545    0.15136087191043598    
  0.13694351072500247    0.11971580108919457    0.10517515899270594    0.09566481228574883    0.09112447073322506    
  0.08978288303333232    0.08960752088920948    0.08978288867621152    0.09112444994674754    0.09566482098196923    
  0.10517516565234182    0.11971576462451364    0.13694356760139725    0.15136089168109818    0.15696066607038545    
  0.1014932116603532    0.09972964123803021    0.09538461348748763    0.09112445301942217    0.08943216507469345    
  0.09112447352244021    0.09538461226629033    0.09972964808303396    0.10149320941276865    0.0997296386388852    
  0.09538459149943104    0.09112446648752812    0.08943215186250676    0.09112445507629462    0.09538461683343318    
  0.0997296291476003    0.1014932116603532    0.07462048861991007    0.074521115152907    0.07471147932871941    
  0.07657879255231184    0.08154688358723201    0.08978288916969092    0.09972964791930654    0.10811182119039632    
  0.11139424147621384    0.10811183996794127    0.09972965418453825    0.0897828912357376    0.08154689046480634    
  0.07657877178345252    0.07471148614309235    0.07452110846530563    0.07462048861991007    0.06677659406103802    
  0.06712415497805027    0.06856774357690378    0.07222255647802343    0.07924091592054133    0.08960752180695238    
  0.10149322686061016    0.11139424726119357    0.11531722723345636    0.11139422368134301    0.10149324118808208    
  0.08960754921820703    0.07924089260769132    0.07222254417260832    0.06856774236350804    0.06712416289761153    
  0.06677659406103802    0.07462049755590532    0.07452109024655257    0.07471145645146404    0.07657880697527401    
  0.08154688970001989    0.08978289229375118    0.09972966050147329    0.1081118406078643    0.1113942418761853    
  0.10811181811414852    0.09972963410492387    0.08978284745021102    0.08154688669019824    0.0765787885336784    
  0.0747114857919372    0.07452111522603919    0.07462049755590532    0.10149320992635787    0.09972964146035135    
  0.09538463020952831    0.0911244659767073    0.08943217393527332    0.09112443148955597    0.09538462112156401    
  0.09972961182534998    0.10149318749088704    0.09972965611163058    0.0953846257598097    0.09112449106184017    
  0.08943219717937166    0.09112445957617325    0.09538462530256446    0.09972961715338151    0.10149320992635787    
  0.1569606868379498    0.1513608823507762    0.1369435461679257    0.11971579016840055    0.10517515773686983    
  0.09566479355961059    0.09112447277733284    0.08978287170745247    0.08960754935426814    0.08978287351023871    
  0.09112446815839345    0.09566480232373    0.1051751659123954    0.11971578741478424    0.13694353358614328    
  0.1513608967221261    0.1569606868379498    0.24873627840297688    0.23703347817322395    0.20596105395270942    
  0.1666286814181269    0.13098934629626727    0.10517515130243996    0.08943219818460024    0.08154690896654342    
  0.07924090631307715    0.08154691131029947    0.08943218002323923    0.10517517898409129    0.13098933709984711    
  0.1666286403211541    0.20596103643265487    0.23703343479729694    0.24873627840297688    0.3501690629277014    
  0.3370414626089729    0.2948079557016337    0.23036975937508875    0.16662864959337206    0.11971577747240787    
  0.09112448721942559    0.07657879410381808    0.07222252884677374    0.07657878277621037    0.09112444366690288    
  0.11971579766058361    0.16662864236057906    0.23036971902934555    0.29480798378860423    0.33704150306576597    
  0.3501690629277014    0.3753456556510579    0.3801681976325142    0.3637516803709485    0.29480799969108556    
  0.2059609840609389    0.1369435370376077    0.09538461535081039    0.07471147625190841    0.06856772609918646    
  0.07471147747997406    0.09538461499455982    0.13694352971827883    0.2059609950376385    0.29480797732680164    
  0.36375167540965286    0.3801681971509294    0.3753456556510579    0.30978660667648694    0.3410847387603556    
  0.38016822299783876    0.33704151114934816    0.2370334453779819    0.15136087144008636    0.0997296454904946    
  0.07452110906496422    0.06712414000938956    0.07452111750255329    0.09972963993423822    0.15136088549085103    
  0.23703343469111726    0.3370414865206458    0.38016822811331835    0.3410847381465791    0.30978660667648694    
  0.26865672037317456    0.30978657810974086    0.37534568188273065    0.35016915903792595    0.24873626080134126    
  0.15696071350790836    0.10149322520567249    0.07462051477940605    0.06677659591414407    0.07462050359824314    
  0.10149322690000702    0.15696071489382216    0.24873628361280747    0.35016904524121945    0.3753456621223853    
  0.3097866288165498    0.26865672037317456    0.3797255782000216    0.3781821596605604    0.3501691881328618    
  0.27746702134934187    0.19266785563864586    0.12839184183950916    0.08960756465359972    0.07025060348278528    
  0.06452834849064103    0.07025059080936735    0.08960756178113854    0.12839185323587274    0.19266784198265235    
  0.2774670039059149    0.3501691189885511    0.37818214967068065    0.3797255782000216    0.37818217011985644    
  0.37197645542649477    0.33704144819765736    0.2648048939602165    0.18540128054301358    0.1258403078986222    
  0.08978287751125448    0.07166418506250868    0.06627998212715544    0.07166416710985356    0.0897828680437058    
  0.12584031573178167    0.18540128124472327    0.26480487556861526    0.33704148081673957    0.3719764990475862    
  0.37818217011985644    0.3501690673761551    0.3370414582384229    0.29480798413424064    0.23036970860349634    
  0.16662863523860594    0.11971575470189647    0.09112445599840295    0.07657878481455199    0.07222253002268965    
  0.0765788005343956    0.09112445631463384    0.11971576934402753    0.16662865341797986    0.23036969688602005    
  0.2948079765875187    0.3370414570589301    0.3501690673761551    0.2774670139768394    0.2648048493966919    
  0.23036970855468403    0.1853836467361857    0.1439064033384597    0.11387034237689857    0.09566478179552906    
  0.08654891373171641    0.08386343012831778    0.08654891489035672    0.09566479119496414    0.11387032300183417    
  0.1439064293738833    0.18538365959443528    0.230369715123492    0.2648048785082578    0.2774670139768394    
  0.19266784987308286    0.18540127528867198    0.16662868098911435    0.14390642404247017    0.12445274845184202    
  0.11158559554857697    0.10517519506835993    0.10302326584247722    0.10265400683632825    0.1030232890061599    
  0.10517516648392465    0.11158563017870439    0.12445274749994852    0.14390644341645217    0.16662867896823055    
  0.1854012977018372    0.19266784987308286    0.1283918101136373    0.12584028171714323    0.11971575087787546    
  0.11387034147806373    0.11158558820365144    0.11387034265310883    0.11971577331134493    0.12584028065561872    
  0.12839182612038794    0.12584029430185148    0.11971574710519521    0.113870339267987    0.11158560193181462    
  0.11387031793823736    0.11971578476207109    0.12584032326581782    0.1283918101136373    0.08960754406195606    
  0.08978288355028823    0.0911244504864171    0.09566481398245692    0.10517515205113452    0.11971579284754837    
  0.13694352910380353    0.15136089876550696    0.15696071785129564    0.151360905231402    0.13694352492282447    
  0.11971579029370016    0.10517516458736073    0.09566479682356749    0.09112444713199094    0.08978287647594907    
  0.08960754406195606    0.07025058454852452    0.07166417363018303    0.07657879272811763    0.08654891640208949    
  0.10302326050917676    0.12584031698642406    0.15136089253920376    0.17211108615725582    0.1801324714677661    
  0.17211108222982452    0.151360884187652    0.1258403241923557    0.10302325708013739    0.08654892301331717    
  0.07657881263913957    0.07166416696441229    0.07025058454852452    0.06452834687479049    0.06628000046812757    
  0.0722225605173211    0.08386343263156967    0.10265399031528452    0.12839184893627317    0.156960723742514    
  0.1801324450420255    0.1891284732717681    0.18013244343698584    0.15696075480927787    0.12839185690185764    
  0.10265400221148675    0.08386341206921334    0.07222256702840849    0.06628000838781781    0.06452834687479049    
  0.07025058102718006    0.07166416335097132    0.07657878455827244    0.08654894729552155    0.10302326691432377    
  0.1258403149639617    0.15136089813259043    0.17211109427428725    0.18013245698121327    0.1721110679845648    
  0.1513608776201196    0.12584030473788815    0.10302326241468904    0.086548931274869    0.07657879729102818    
  0.07166418494591821    0.07025058102718006    0.0896075391776415    0.08978288505345158    0.0911244616472722    
  0.09566480125716899    0.105175174298724    0.11971575118494451    0.13694354296120667    0.15136088691230282    
  0.1569606608150286    0.15136087996697506    0.1369435482225146    0.11971575725686885    0.10517516088015033    
  0.09566478063656243    0.09112446106091171    0.08978286856003763    0.0896075391776415    0.1283918639920185    
  0.1258402884146158    0.11971577644407237    0.11387033098932664    0.11158559609801433    0.11387032654755956    
  0.11971578143115928    0.125840309599132    0.1283918661702773    0.12584028973110223    0.1197157686405879    
  0.11387031565390528    0.1115855899097691    0.11387033368672102    0.11971575590117363    0.1258402882682478    
  0.1283918639920185    0.19266787516002348    0.18540129843193948    0.16662865879970096    0.14390645784915063    
  0.12445275124660268    0.11158561285045124    0.10517520083111181    0.10302328979893498    0.10265400167668831    
  0.10302325661230897    0.1051751988280862    0.11158559445624881    0.124452752120583    0.14390641598344323    
  0.16662868952744225    0.18540127798542164    0.19266787516002348    0.2774669964331882    0.26480486642122425    
  0.23036969187740097    0.18538368308004047    0.1439064310505891    0.11387032544807342    0.0956648090686704    
  0.08654894778090212    0.08386339752771615    0.08654891094808896    0.09566478606979784    0.11387033667357999    
  0.14390641930717396    0.18538367021398977    0.23036972963063612    0.2648048555328782    0.2774669964331882    
  0.3501691244592913    0.3370414861478888    0.2948079758996914    0.2303697523701376    0.16662864466364147    
  0.11971576628647286    0.09112444865530986    0.07657879284903875    0.07222254589137996    0.07657879699559246    
  0.09112445564499151    0.11971578190466235    0.16662863453063406    0.23036971887754631    0.2948079699005591    
  0.337041470739778    0.3501691244592913    0.3781821910885543    0.3719764522377086    0.33704144934243524    
  0.2648049152143385    0.18540125793615148    0.12584030083246997    0.08978289800964452    0.07166416785604249    
  0.06627998828994354    0.0716641735426847    0.08978288047016447    0.12584028923907145    0.18540126604954515    
  0.26480488000541247    0.3370415074944688    0.3719764812028628    0.3781821910885543    0.3797255782000216    
  0.3781821596605604    0.3501691881328618    0.27746702134934187    0.19266785563864586    0.12839184183950916    
  0.08960756465359972    0.07025060348278528    0.06452834849064103    0.07025059080936735    0.08960756178113854    
  0.12839185323587274    0.19266784198265235    0.2774670039059149    0.3501691189885511    0.37818214967068065    
  0.3797255782000216    0.3053987875113319    0.29049922089530517    0.24873632065101844    0.1926678698872909    
  0.14054140964647735    0.1026539999410749    0.07924091559729642    0.06719321342545574    0.06360271574636525    
  0.06719321455122719    0.0792409220919734    0.102653995524557    0.14054139461994022    0.19266781361650537    
  0.24873627623920624    0.2904992647221334    0.3053987875113319    0.2904992251935068    0.27623381150463017    
  0.23703345583374244    0.18540128360045796    0.13773173009378348    0.1030232740690739    0.08154690342313661    
  0.07049222684944437    0.06719319105822087    0.07049221984669427    0.08154689338531616    0.10302329606422601    
  0.13773172430041797    0.1854013256795441    0.23703349114573105    0.27623381304734884    0.2904992251935068    
  0.24873625939364777    0.2370335295717839    0.20596102174119296    0.16662870789622117    0.1309893475142146    
  0.10517517783900165    0.08943219671958898    0.08154689968887781    0.07924089760223084    0.08154691556917197    
  0.0894321769716758    0.1051751983404628    0.1309893274522577    0.1666286343288981    0.20596105984355534    
  0.23703346219300303    0.24873625939364777    0.1926678272946113    0.18540129968592517    0.16662865944483485    
  0.14390644156657023    0.12445272524532863    0.1115856392913315    0.10517518285255825    0.10302326657341707    
  0.10265398888786083    0.10302328507764844    0.10517519391870331    0.11158561095657632    0.12445272468632802    
  0.1439064514742008    0.16662864979255684    0.18540129066492395    0.1926678272946113    0.14054138666924307    
  0.13773174075227265    0.13098933541965466    0.12445276244551184    0.12184560486673893    0.12445272321439516    
  0.1309893451570577    0.13773172059449126    0.14054140899301193    0.13773175529406176    0.13098933386977346    
  0.1244527556540847    0.12184559819308197    0.1244527400394911    0.13098933033853435    0.1377317659765594    
  0.14054138666924307    0.10265397524956663    0.10302326641669007    0.1051751791219178    0.11158564336510372    
  0.12445272329612124    0.14390644094640045    0.1666286612442659    0.1854012934168072    0.19266780979674608    
  0.1854012861428067    0.16662865333620122    0.14390645029035554    0.12445274059086635    0.11158561021546584    
  0.10517520070098266    0.10302329180945541    0.10265397524956663    0.0792409017143653    0.08154690738278957    