#     DFTpy    
  CRYSTAL 
    
  PRIMVEC    
  5.2412413793103445    0.0    0.0    
  0.0    5.2412413793103445    0.0    
  0.0    0.0    2.887586206896551    
  PRIMCOORD    
  4    1    
  Si    0.0    0.0    0.0    
  Si    2.6206206896551723    2.6206206896551723    1.4437931034482756    
  Si    0.0    2.6206206896551723    0.7218965517241378    
  Si    2.6206206896551723    0.0    2.1656896551724136    
  BEGIN_BLOCK_DATAGRID_3D    
  3d_datagrid_density    
  BEGIN_DATAGRID_3D#0    
  23    23    13    
  0.0    0.0    0.0    
  5.2412413793103445    0.0    0.0    
  0.0    5.2412413793103445    0.0    
  0.0    0.0    2.887586206896551    
  0.05910489896972422    0.10744712649819439    0.27210336610634583    0.40077956292666606    0.3565754981488004    
  0.27683720939850803    0.243243398831992    0.2593841686187396    0.3107201563964262    0.3635889044349566    
  0.3844981047787506    0.3851593739995598    0.3844980897114054    0.363588960633714    0.3107201223743516    
  0.25938419239580907    0.24324338239011098    0.2768372314538463    0.3565755340362453    0.40077959999407753    
  0.27210328558377356    0.10744711147144717    0.05910489896972422    0.10744716382719839    0.1627056211983412    
  0.31375370110757334    0.39722093848728973    0.33636500261291874    0.2590283223453554    0.22757963294670627    
  0.24250344962258208    0.291445150373999    0.3461467500268152    0.3744818457704576    0.3796127352816501    
  0.37448177670849403    0.3461467699182929    0.29144516166828627    0.24250343990046472    0.2275796504284651    
  0.2590283040593964    0.3363649759206531    0.39722095160607473    0.3137537204396586    0.16270561608758388    
  0.10744716382719839    0.27210337102941967    0.31375366780087705    0.38117986472009496    0.36438839376711635    
  0.2815642254184964    0.2145239135359188    0.18903565717933693    0.20091551884030764    0.241830109075112    
  0.2939815865622316    0.3315989687101661    0.3438657603326942    0.3315989584061647    0.2939816130009356    
  0.2418300855963422    0.20091552655857028    0.18903565739985903    0.21452392286651809    0.2815642133751891    
  0.3643883867707177    0.3811798346161684    0.31375361043599165    0.27210337102941967    0.4007796419911302    
  0.3972209427880528    0.3643884780459767    0.2908349963758287    0.21336193129506503    0.16310687695585366    
  0.1445967592480168    0.15287825569206434    0.1824334596129453    0.2228911230883821    0.25721883272240786    
  0.27057361506098776    0.2572188626264964    0.22289111768774708    0.18243344081913193    0.15287821352224534    
  0.14459680315906218    0.1631068660886501    0.2133619624710923    0.29083500164916753    0.36438843749597116    
  0.39722088335512823    0.4007796419911302    0.35657556497416426    0.33636502222632536    0.2815642079395305    
  0.2133619427355425    0.15631237949414    0.12132207425562179    0.10815607807697776    0.11337996105714714    
  0.13296564049238457    0.16024958038748813    0.18455155868428155    0.19441989946696384    0.18455155180869848    
  0.16024958432913894    0.1329656363534227    0.11337995997417709    0.10815606816135498    0.12132209601059689    
  0.1563123730542465    0.2133619629121053    0.28156421717160807    0.3363649054998986    0.35657556497416426    
  0.2768372515687155    0.2590283388549697    0.21452393763639205    0.16310682260809034    0.12132208557091219    
  0.09559963665967439    0.08559090174138122    0.08875345465641424    0.10185981642538816    0.12028938608341913    
  0.1367758190725219    0.14340940557635606    0.13677579811559284    0.12028937700311909    0.1018598042209022    
  0.0887534378722825    0.0855909126695696    0.09559962633709895    0.12132208239585476    0.1631068477450207    
  0.2145239567207955    0.259028311142427    0.2768372515687155    0.243243454669593    0.2275796557809658    
  0.1890356822821948    0.14459673911236456    0.1081560729879722    0.08559091206465905    0.07649643115918078    
  0.07841744961942755    0.08854660643513476    0.10311802629994522    0.11618579551967216    0.12139653972327787    
  0.1161857949324508    0.10311800288788836    0.08854662744991676    0.07841743642809422    0.07649644056819117    
  0.08559090213342005    0.10815607813042705    0.14459675628170346    0.18903569301268003    0.2275796083674308    
  0.243243454669593    0.2593842236475123    0.24250342238546999    0.20091555437578862    0.15287821043505093    
  0.11337997648852252    0.08875343674150167    0.078417435765778    0.07974663062308501    0.08979981607481576    
  0.1044696086943797    0.11770677150834363    0.12305596561352225    0.11770677725914387    0.10446960346913467    
  0.08979980189555352    0.07974663328996155    0.07841743982565062    0.08875343777171843    0.11337999702949823    
  0.15287820510271016    0.20091556318721293    0.24250336517602172    0.2593842236475123    0.3107202286245064    
  0.2914451526109306    0.2418301493959518    0.1824334285484629    0.13296567461380077    0.1018598149604827    
  0.08854661472008968    0.0897997954547722    0.10201940939122137    0.1200264039840439    0.1363383801943116    
  0.14300794775733944    0.13633836586962078    0.12002641912814327    0.10201938956211738    0.08979979894182735    
  0.08854664143814057    0.1018598128244247    0.13296566195650472    0.18243343815439422    0.24183012966329293    
  0.29144509828443743    0.3107202286245064    0.3635890018552606    0.34614675308126625    0.29398162113269855    
  0.22289111278037235    0.16024960091697968    0.12028940084911269    0.10311801686099181    0.10446959260084665    
  0.12002642392892474    0.14342427411771436    0.16470395865090406    0.17340964150104154    0.1647039503188366    
  0.14342430571197706    0.1200264135039938    0.10446959982385996    0.1031180195497542    0.12028938103719536    
  0.160249598290439    0.2228910865770111    0.29398158841532285    0.34614673424043874    0.3635890018552606    
  0.38449818478550446    0.3744817226241449    0.3315990005272251    0.25721877998249093    0.18455154958561434    
  0.13677580836011252    0.11618580525965831    0.11770680829374525    0.13633838002244722    0.164703970337767    
  0.19071002248196547    0.20141820719902084    0.19071000482659778    0.1647039947182994    0.1363383774147288    
  0.11770680859735551    0.11618579833675298    0.13677580789877644    0.18455154713728186    0.25721884660662825    
  0.33159898742053856    0.374481762868346    0.38449818478550446    0.3851594422027494    0.3796126972804367    
  0.343865810122006    0.27057353429267056    0.19441987521391368    0.14340938578735649    0.12139654357335376    
  0.12305591722002693    0.14300792812992652    0.1734096132089422    0.20141819134566982    0.21305023667068382    
  0.20141820636668625    0.17340964636994313    0.14300792938924758    0.12305591926774787    0.12139650852587246    
  0.14340936516174985    0.194419909808577    0.27057353057118105    0.3438657994838467    0.37961265544036016    
  0.3851594422027494    0.3844981787932591    0.3744817587579693    0.33159898719253217    0.2572188220646169    
  0.18455156373768442    0.13677579070757007    0.11618579338880687    0.11770681026992764    0.1363383813765055    
  0.1647039763941915    0.19071001009267904    0.2014182190934103    0.1907099733558362    0.16470398760114538    
  0.13633837552940872    0.11770683066299471    0.1161857888480351    0.13677581614157888    0.18455154410140107    
  0.2572188274121276    0.33159901701723454    0.37448178715430763    0.3844981787932591    0.3635890254801346    
  0.3461467552778139    0.29398159991640005    0.22289108390587492    0.16024960402345326    0.12028940602218026    
  0.10311802103206588    0.10446960176996684    0.12002641167082082    0.14342425105301843    0.1647039873493473    
  0.1734096253647871    0.1647039613077564    0.14342427346403186    0.12002644377275597    0.1044695942368371    
  0.10311803170444764    0.12028937000175836    0.16024960630912582    0.22289111555312963    0.2939816241813081    
  0.3461467243223802    0.3635890254801346    0.31072019704910603    0.29144519023951204    0.24183011466696727    
  0.18243345397452831    0.13296563544697212    0.10185981843707029    0.08854659897876578    0.08979982562135115    
  0.10201940452246767    0.12002641405288911    0.13633835194599306    0.1430079664053655    0.136338366824571    
  0.12002644443761505    0.1020193796736738    0.08979981289103683    0.08854662697672372    0.10185982304798616    
  0.1329656484882023    0.18243347281437974    0.24183007027540784    0.2914451289406522    0.31072019704910603    
  0.259384251970374    0.24250343462973314    0.20091554229419664    0.15287821793833897    0.11337998942998839    
  0.08875342597239755    0.07841745263733774    0.0797466229282745    0.08979980902710419    0.10446958550069828    
  0.11770678148053294    0.12305594848028065    0.11770680113753652    0.10446958179401279    0.08979980852982947    
  0.07974661012866185    0.07841743310688033    0.08875343022493802    0.11337997077521948    0.15287819138073233    
  0.2009155459406993    0.24250335847603416    0.259384251970374    0.2432434639672282    0.22757962172649157    
  0.18903567132348045    0.1445967557945679    0.10815606395614583    0.0855909122772273    0.07649643381178008    
  0.07841745958886796    0.08854659952429696    0.10311801467566865    0.11618579759282302    0.121396551671967    
  0.11618578257211575    0.10311804233324141    0.08854659973236344    0.07841745227337359    0.076496429919252    
  0.08559091668363049    0.10815607017990896    0.14459676666754895    0.18903566823349788    0.22757960445029513    
  0.2432434639672282    0.27683725707243517    0.25902830695403517    0.2145239702639451    0.16310682672572077    
  0.12132208540247912    0.09559962818710993    0.08559090597383524    0.08875343782154096    0.10185981906343147    
  0.12028940644378279    0.13677581638883426    0.14340939057923252    0.13677580609439546    0.12028936974757506    
  0.10185983865577414    0.08875342226880058    0.08559091097590106    0.09559962323472697    0.12132208945207953    
  0.16310682375156996    0.21452395814095632    0.25902829684760736    0.27683725707243517    0.3565755367742302    
  0.3363649832506503    0.28156422335912995    0.21336195967938046    0.1563123791363292    0.12132208726914664    
  0.10815606968247074    0.11337997652271838    0.13296564838817343    0.16024961244125902    0.18455151895646332    
  0.19441991649509605    0.1845515511346493    0.16024958801579087    0.13296564296528482    0.11337999207648194    
  0.10815606924284946    0.1213220951204647    0.15631238165549166    0.21336196473069832    0.2815642204107942    
  0.33636494604435235    0.3565755367742302    0.40077971549923114    0.3972209340984224    0.36438845616022986    
  0.29083500279484853    0.21336194837874722    0.16310683809143753    0.14459676039096603    0.15287820810459338    
  0.18243346330427007    0.22289110454610084    0.2572188337877846    0.27057361576008643    0.25721880326937946    
  0.22289112921369267    0.1824334440409482    0.15287820737416477    0.14459680736792715    0.16310681565279525    
  0.21336195222124063    0.2908350015809806    0.3643884339158812    0.39722084246547396    0.40077971549923114    
  0.27210336118265527    0.31375365023807195    0.3811798832371257    0.36438840272218526    0.2815642166518676    
  0.21452393831687505    0.18903563723328703    0.20091556795587737    0.2418300871705363    0.29398160852163463    
  0.33159892412808545    0.3438657921585257    0.33159896359430713    0.29398162919467147    0.24183005939352809    
  0.20091553228073936    0.18903565453090362    0.21452395281626857    0.2815641977791898    0.36438841901035496    
  0.38117988212561216    0.31375366033389357    0.27210336118265527    0.10744716899660219    0.16270560282533444    
  0.313753733793349    0.3972208692534952    0.33636503496775705    0.2590283519663243    0.22757964049821475    
  0.24250345232587528    0.29144517016958815    0.34614673390770534    0.3744818208027268    0.3796126841940786    
  0.37448182189283263    0.34614675267514333    0.29144521795017186    0.24250343244215156    0.22757963742485798    
  0.25902830858001946    0.3363650339730863    0.3972209352284163    0.3137537044862656    0.16270561402311196    
  0.10744716899660219    0.05910489896972422    0.10744712649819439    0.27210336610634583    0.40077956292666606    
  0.3565754981488004    0.27683720939850803    0.243243398831992    0.2593841686187396    0.3107201563964262    
  0.3635889044349566    0.3844981047787506    0.3851593739995598    0.3844980897114054    0.363588960633714    
  0.3107201223743516    0.25938419239580907    0.24324338239011098    0.2768372314538463    0.3565755340362453    
  0.40077959999407753    0.27210328558377356    0.10744711147144717    0.05910489896972422    0.10780812562913802    
  0.16220669549318942    0.3086866253730099    0.38433895962200976    0.31683721608037474    0.2333184192829484    
  0.19294253453213503    0.19350485830023076    0.224774812661595    0.271613994701346    0.31162080297745304    
  0.3270888156534041    0.3116208081519379    0.2716140283477107    0.2247748264786566    0.19350485954984384    
  0.19294252088096797    0.23331837922706092    0.3168372617920536    0.38433898597744065    0.30868654140753565    
  0.16220670220026756    0.10780812562913802    0.16387825411674128    0.2183943885548317    0.34084571905214023    
  0.37737267485271186    0.29935540782506204    0.21935359603610124    0.18170509933448248    0.18216292070176468    
  0.21123147271086729    0.2552614424318825    0.2932950904815295    0.30810030989480747    0.29329503549605185    
  0.2552614569021211    0.2112314727424024    0.18216292318473246    0.18170509249003355    0.2193536103077407    
  0.29935539617242024    0.3773726613856369    0.340845711380128    0.21839440358029907    0.16387825411674128    
  0.319153590869615    0.34922582136159974    0.38452721343456586    0.34216114886450205    0.25310623065009674    
  0.18458539017968426    0.15385378665134866    0.1541124282284631    0.17751010880935833    0.21348175455409998    
  0.2454433587375235    0.2582064208999907    0.24544337680694536    0.213481779009652    0.1775101304719006    
  0.15411244826013473    0.15385381290474465    0.18458538704532573    0.25310621938485484    0.34216120033466196    
  0.38452720377456245    0.34922577036674846    0.319153590869615    0.4115099536722034    0.4010220563335389    
  0.3554672670612818    0.27534401380292445    0.19652766477055977    0.14462740420580747    0.12175763722973365    
  0.1217467472876066    0.1385622453859744    0.16442619628561764    0.18797327233783756    0.19763644524298235    
  0.18797331086019195    0.16442618527053238    0.1385622233269115    0.12174674639635974    0.121757649738911    
  0.14462742531592163    0.19652770152208998    0.27534406091468494    0.35546719364904406    0.4010220455071605    
  0.4115099536722034    0.36173632541981715    0.3394059978933293    0.2806102120882832    0.20929335371080918    
  0.14998887122653182    0.11257785199306396    0.09584412585485493    0.09548781129666976    0.1069971189784959    
  0.12473209114120713    0.1410144229131461    0.14771492033651806    0.14101442442695525    0.1247320769350161    
  0.10699712796480203    0.09548779200229737    0.09584412862807637    0.11257786535590235    0.14998887170750103    
  0.20929333820872228    0.2806102238181977    0.33940594657038925    0.36173632541981715    0.29697003206335326    
  0.2770212667226364    0.22734725758778038    0.17011347899047327    0.12356140850218841    0.09425436091721594    
  0.08096059887138388    0.08027784412248866    0.08855635370040496    0.10162413872482483    0.11371178663497872    
  0.11862300379462959    0.1137117849612594    0.10162413572281367    0.08855634910330391    0.08027783260280727    
  0.08096060935747923    0.09425434782281535    0.12356142197247091    0.17011348861871878    0.22734724825884156    
  0.2770212452665644    0.29697003206335326    0.2837381390230585    0.2645893860816248    0.21732445676374093    
  0.1629637848406297    0.1185603371952692    0.09054606423789603    0.07770338124841242    0.07668590734216349    
  0.0840021789322438    0.09580286368207781    0.10677269131428675    0.1112257779394711    0.10677271118761664    
  0.09580284786003594    0.08400220429013563    0.07668589322406062    0.07770340407242574    0.0905460623765205    
  0.11856032595854883    0.16296380517378414    0.21732444104270215    0.26458936972106123    0.2837381390230585    
  0.3247939720345833    0.3033031731412968    0.24924615581442375    0.1859073793719544    0.1336491364826177    
  0.10050951681029092    0.08519032639567477    0.08378584819036868    0.09226445752136808    0.10587229970848962    
  0.11848592960525772    0.12367662460064618    0.11848592993982777    0.10587230101500905    0.09226445293441687    
  0.08378583619237989    0.08519032998089773    0.10050952706702043    0.13364915488683027    0.18590739036499018    
  0.24924617308877645    0.30330307721027633    0.3247939720345833    0.3867310626928102    0.3673413267203616    
  0.31062244748373735    0.23391374238350146    0.16594787649421885    0.12197230354866348    0.10169042960625445    
  0.0998163223258091    0.11114391434074958    0.12941473487402988    0.14634241377085197    0.15336241368557454    
  0.1463424022659998    0.1294147439734044    0.11114391662799535    0.09981632770541649    0.10169044495423671    
  0.12197230398809854    0.1659478921051176    0.23391372997048115    0.310622451992406    0.36734127362776825    
  0.3867310626928102    0.3879183891348154    0.3890302671860793    0.3636245619985315    0.2904457447895393    
  0.2072722042415391    0.14979587849599993    0.12316858573864119    0.12065715757541907    0.13573988195352546    
  0.16057416133267718    0.18360259520118621    0.19309791296396037    0.18360259482340635    0.16057415632809546    
  0.1357398688508077    0.12065714277470904    0.12316857526930017    0.1497958703463109    0.20727219268741295    
  0.2904457422477576    0.36362452508956117    0.38903028555106395    0.3879183891348154    0.313153192050356    
  0.34189901856557187    0.3743139635935344    0.33081440827249886    0.2426114034108942    0.17424181623570367    
  0.14194811162867582    0.13889387660079988    0.1573892361740509    0.18814925808342173    0.21679779097901342    
  0.22864256767048577    0.21679771758799155    0.18814929939118932    0.15738923893455925    0.13889388830148805    
  0.1419481158673671    0.1742418169663821    0.2426114381063276    0.3308144344879606    0.3743139529167761    
  0.3418990239521469    0.313153192050356    0.27012584512091065    0.30902112383567304    0.36850947559856323    
  0.3440856312272008    0.2565780310176452    0.18407167793939247    0.14943385679701107    0.1462060555271721    
  0.16614505157312737    0.19930136010458688    0.23031346543046496    0.24319835358585276    0.23031346844353773    
  0.19930138129868996    0.166145052993147    0.14620606570879058    0.149433834041428    0.18407168116842368    
  0.25657807890927464    0.344085633411598    0.3685094451710591    0.3090210729153042    0.27012584512091065    
  0.3131531525595667    0.3418990001530329    0.3743139424634954    0.33081441171031084    0.24261141645496662    
  0.1742417868473822    0.14194809628667812    0.13889390064016283    0.15738923864425178    0.18814928820538715    
  0.2167977624051772    0.22864257857900527    0.21679771974774692    0.18814928620326754    0.15738922252309395    
  0.13889388645592604    0.1419481142185693    0.1742418074159981    0.24261139594674036    0.3308143725483253    
  0.37431399722445446    0.34189896311528656    0.3131531525595667    0.38791837629929277    0.3890303197191075    
  0.3636245351715892    0.29044575664309946    0.20727221808774512    0.14979588301163044    0.12316857089538863    
  0.12065717385726794    0.13573987946092309    0.16057411899295945    0.1836025886726611    0.19309791110874072    
  0.1836025811495891    0.1605741628046229    0.13573986541449845    0.12065714739479333    0.12316859085767964    
  0.1497958923510096    0.20727220069121022    0.2904457585984454    0.36362451567355675    0.38903027472429524    
  0.38791837629929277    0.3867310486822008    0.36734130201785603    0.31062245251092285    0.2339137461698734    
  0.1659479014942645    0.12197229767632044    0.10169042864634302    0.09981631851112369    0.11114392820656256    
  0.1294147419642921    0.14634243819833428    0.15336240502907908    0.1463424311390103    0.1294147401903703    
  0.11114390920909296    0.09981632170179637    0.10169045140049435    0.12197230296743423    0.1659479169069023    
  0.23391373807993623    0.3106224590470271    0.3673412879859918    0.3867310486822008    0.32479395959513124    
  0.30330317960665665    0.24924613496189438    0.1859073875394314    0.13364913446068344    0.1005095226965337    
  0.08519032046751165    0.08378585709574428    0.09226444638478382    0.10587231284592179    0.11848591273517875    
  0.12367661817202365    0.11848591792991854    0.10587230250714862    0.09226444335003439    0.08378586055367938    
  0.08519030634929964    0.10050954202702313    0.13364911746810978    0.18590739768854594    0.2492461388817085    
  0.3033031145485741    0.32479395959513124    0.2837381292778634    0.26458936694018437    0.2173244560082435    
  0.16296376322347503    0.11856032581183798    0.09054606609545578    0.07770340932215235    0.07668590463082177    
  0.08400218550503759    0.0958028418248369    0.10677271367708138    0.1112257431560036    0.10677271482122654    
  0.09580285103803823    0.08400219509182291    0.07668589466300138    0.07770341405011151    0.09054605406366578    
  0.11856036178588165    0.16296378198450465    0.21732445810556586    0.26458933714277194    0.2837381292778634    
  0.29696997162565797    0.2770213196413555    0.2273472474075413    0.17011350073375228    0.12356139568671755    
  0.09425437484879622    0.08096058591955889    0.08027784569435938    0.08855634286039037    0.10162413237501028    
  0.11371178198371105    0.11862301029094821    0.11371180489404221    0.10162414451454882    0.08855636180475646    
  0.08027782850311219    0.08096058742186302    0.09425437314487285    0.12356140267336903    0.17011351402288652    
  0.22734722821738695    0.2770212999841494    0.29696997162565797    0.3617363407780275    0.33940600215825883    
  0.28061025896228164    0.20929333749920415    0.14998889437345073    0.11257784703854648    0.09584414143808322    
  0.0954877968275518    0.1069971337368069    0.12473206811066487    0.14101440932760909    0.14771492417870902    
  0.1410144194750357    0.1247320663728704    0.10699711295073051    0.09548780699221092    0.09584413931899098    
  0.1125778597318094    0.14998888066132374    0.20929334843902872    0.28061025251609295    0.33940595810547397    
  0.3617363407780275    0.41150996628921127    0.4010221091497188    0.3554671799633724    0.2753440461120125    
  0.19652762649949518    0.144627401109351    0.12175760479354332    0.12174676024410401    0.1385622343424278    
  0.16442621409689423    0.18797329109268227    0.1976364731470704    0.1879732399104198    0.16442622409650254    
  0.13856221778249347    0.12174675317158372    0.12175762882377679    0.14462740799666077    0.19652764275271833    
  0.2753440691712485    0.35546715228697257    0.4010220538772169    0.41150996628921127    0.3191535380260829    
  0.34922578161410595    0.3845272432190025    0.34216117520282446    0.25310624827394246    0.18458537471759395    
  0.15385381448491542    0.15411242630242003    0.17751013007060495    0.21348177528804368    0.24544339702762058    
  0.2582064371699642    0.24544340660986907    0.21348177582136596    0.17751010182197086    0.1541124132793    
  0.15385383023669283    0.18458537854166568    0.25310623747504163    0.3421611780980047    0.3845272517477584    
  0.34922577589943976    0.3191535380260829    0.16387825906155956    0.2183943713618837    0.34084573658819606    
  0.3773726232146878    0.299355417592182    0.21935362882637433    0.18170507888193727    0.18216291503748888    
  0.2112314563112569    0.25526146531147614    0.2932950618908798    0.3081002797493081    0.2932950263720265    
  0.2552614635890368    0.21123148643909806    0.1821629197306507    0.18170510155216715    0.21935362734307187    
  0.29935540242629766    0.37737267956947174    0.34084564694608444    0.21839438550194762    0.16387825906155956    
  0.10780812562913802    0.16220669549318942    0.3086866253730099    0.38433895962200976    0.31683721608037474    
  0.2333184192829484    0.19294253453213503    0.19350485830023076    0.224774812661595    0.271613994701346    
  0.31162080297745304    0.3270888156534041    0.3116208081519379    0.2716140283477107    0.2247748264786566    
  0.19350485954984384    0.19294252088096797    0.23331837922706092    0.3168372617920536    0.38433898597744065    
  0.30868654140753565    0.16220670220026756    0.10780812562913802    0.27012584717621807    0.30902110662858573    
  0.36850949029296837    0.34408565990495893    0.2565780064017186    0.18407166634958289    0.14943385149590924    
  0.1462060484164607    0.16614508270544662    0.1993013541880519    0.23031345744329654    0.24319832468905322    
  0.2303134839698788    0.19930139330918673    0.16614504576967273    0.1462060632241983    0.14943383262411078    
  0.18407167069560298    0.2565780413558638    0.3440856712234732    0.3685093717276083    0.3090211271375082    
  0.27012584717621807    0.3131531835629704    0.34189898661254803    0.3743139627620977    0.3308144286550248    
  0.2426114101782222    0.1742418273730473    0.14194811266581206    0.13889388659491528    0.1573892450090409    
  0.18814926891575828    0.216797803440708    0.22864257082592634    0.21679772987520293    0.18814928107201495    
  0.157389208277714    0.1388938883763807    0.14194814037766168    0.17424179733666684    0.2426113825188089    
  0.33081441842541387    0.37431393094187576    0.34189903207232736    0.3131531835629704    0.38791844535804126    
  0.38903028599835093    0.3636245611353994    0.29044573938319285    0.20727221984671163    0.1497958694238274    
  0.12316856940827908    0.12065715047403391    0.135739891982767    0.16057413241680804    0.18360258722500303    
  0.19309789365364174    0.18360257005851655    0.16057413622035532    0.1357398871363794    0.12065714886582839    
  0.12316859064881716    0.14979589002821286    0.20727220683057362    0.29044575206402934    0.3636245338646799    
  0.3890302402238831    0.38791844535804126    0.3867310041680876    0.36734127700944735    0.3106224823810978    
  0.23391374323727862    0.16594788174742742    0.12197232468526857    0.10169043238877391    0.09981632786852135    
  0.11114391808556257    0.12941474671824768    0.14634242264831224    0.1533624202342237    0.14634243220210022    
  0.1294147402138237    0.1111439106717328    0.09981633397553434    0.10169044626459053    0.12197230857714841    
  0.16594790622640046    0.23391375413632806    0.3106224799799987    0.3673412696939635    0.3867310041680876    
  0.3247939659155253    0.3033031404780688    0.2492461573476252    0.1859073887626794    0.13364914304677972    
  0.10050951786844653    0.08519031941966612    0.08378584941020412    0.0922644510087103    0.10587231195575894    
  0.11848591152294151    0.12367661248364978    0.11848593145352644    0.10587229676794839    0.09226445293435737    
  0.08378584770175071    0.08519031793033792    0.10050953450176091    0.13364912840345697    0.18590739387744495    
  0.2492461291449795    0.30330313356327615    0.3247939659155253    0.2837381406359099    0.26458932622827575    
  0.21732443415655178    0.1629637800891328    0.11856033609151947    0.09054607106532875    0.07770338774364481    
  0.0766859131809911    0.08400217506593255    0.09580284846574712    0.10677271949393641    0.11122575572106712    
  0.10677267750507856    0.09580286493097992    0.08400218544454117    0.07668589215305165    0.07770340784952526    
  0.0905460514495568    0.11856034318812489    0.16296378109995624    0.2173244686639616    0.2645893382793673    
  0.2837381406359099    0.29697001686160474    0.2770213060679951    0.22734726722602872    0.17011347294979784    
  0.12356141638984694    0.0942543686648678    0.0809605946484654    0.08027784568404986    0.08855634100722559    
  0.10162413068405758    0.1137117962294179    0.11862300105810838    0.11371179714019213    0.1016241136272788    
  0.0885563697077604    0.08027782622535194    0.08096060682748821    0.09425434775269308    0.12356140884285291    
  0.17011349719188873    0.22734724812360782    0.27702129236860257    0.29697001686160474    0.3617363134313742    
  0.3394059957739656    0.2806101922265765    0.20929335589769354    0.1499888695592628    0.11257785014657187    
  0.09584412740071993    0.09548781132655891    0.106997123114251    0.12473209123183657    0.14101439846609012    
  0.1477149232016217    0.14101441537547307    0.12473209180908204    0.10699712309048612    0.09548780305692757    
  0.09584414244198529    0.11257785946329975    0.1499889055562649    0.20929336098225707    0.2806102007621339    
  0.3394059436821237    0.3617363134313742    0.41150996334821655    0.4010220748442878    0.35546719403592886    
  0.2753440330354911    0.1965276528973884    0.14462741633774598    0.12175763737298727    0.12174673057122407    
  0.13856224989604018    0.16442619003689496    0.18797326836789785    0.1976364591039447    0.18797325860338648    
  0.16442620293755048    0.1385622464047871    0.12174673664076183    0.12175764604687914    0.14462739366978816    