#     DFTpy    
  CRYSTAL 
    
  PRIMVEC    
  3.559287582434354    -1.9555419999999998e-10    3.706588758620689e-10    
  -1.9555419999999998e-10    3.559287582227533    1.7860136896551724e-10    
  6.773323620689654e-10    3.26425724137931e-10    6.520683832261415    
  PRIMCOORD    
  4    1    
  Si    1.7796437911493652    1.7796437920931611    2.0037686446659784    
  Si    6.59937835257398e-10    -6.10763670399781e-10    1.2565732692727911    
  Si    1.0121895237868042e-10    4.6127242465445496e-10    5.2641105592900415    
  Si    1.7796437916829424    1.7796437907411609    4.516915191843278    
  BEGIN_BLOCK_DATAGRID_3D    
  3d_datagrid_density    
  BEGIN_DATAGRID_3D#0    
  17    17    29    
  0.0    0.0    0.0    
  3.559287582434354    -1.9555419999999998e-10    3.706588758620689e-10    
  -1.9555419999999998e-10    3.559287582227533    1.7860136896551724e-10    
  6.773323620689654e-10    3.26425724137931e-10    6.520683832261415    
  0.40207996192233986    0.37453380338501885    0.3059263699091819    0.2247899709394532    0.15434714716558767    
  0.10431592573148764    0.07367610001107737    0.057952115951826505    0.053227066575414435    0.05795208827641034    
  0.073676061045761    0.10431592807148093    0.15434710796262152    0.22478992040522439    0.30592642162358313    
  0.3745339442022907    0.40207996192233986    0.3745339944752368    0.3494065384752006    0.2867869066540309    
  0.2123673082770021    0.1473722344415779    0.10088601227051827    0.07220059977793634    0.05737895652579261    
  0.05290792606304115    0.05737896464973889    0.07220059478523633    0.1008860329668048    0.14737226140378765    
  0.21236733654679166    0.2867869123955555    0.3494065926643747    0.3745339944752368    0.305926428753178    
  0.28678684812333877    0.23873277917903596    0.18085229509251768    0.1294401980303506    0.09197307628276437    
  0.068370851890939    0.05593310463273175    0.052129571628606396    0.055933118322162696    0.0683708327537042    
  0.09197306993469201    0.12944019146392902    0.18085225066073152    0.23873279746678802    0.28678684012871763    
  0.305926428753178    0.22479004015633414    0.2123673340553026    0.18085230617799677    0.1421984245637547    
  0.10705022537236507    0.08070054955451227    0.0635796414998404    0.05426224186388556    0.05134723586612798    
  0.05426222654522832    0.06357964951214529    0.08070056703331602    0.1070502072309818    0.14219841674703712    
  0.18085231886549202    0.21236736119806035    0.22479004015633414    0.15434714739690195    0.14737222611939313    
  0.12944017888532344    0.10705018858250855    0.0861618012878889    0.06996714654254203    0.05908439427717989    
  0.052964038532163846    0.050991106843826794    0.0529640329161944    0.05908435149455161    0.0699671317255927    
  0.08616180478597314    0.10705019915114551    0.12944025032470213    0.1473722495941988    0.15434714739690195    
  0.10431600330074345    0.10088597518978926    0.09197313497326219    0.08070054455107935    0.06996716029289626    
  0.06142717282546768    0.055623942955151745    0.052341185941959446    0.051266307945169086    0.05234120258259738    
  0.05562392523090282    0.061427142449516386    0.06996720585360738    0.08070052726170059    0.0919731481049452    
  0.10088598133153957    0.10431600330074345    0.073676090327997    0.07220057053252049    0.06837080956573285    
  0.06357962337450886    0.05908439487869046    0.055623917465449084    0.05347395293665513    0.05239438740381672    
  0.05205837613961798    0.052394402722179954    0.053473945846647025    0.05562392297031938    0.05908436066547842    
  0.0635796264910498    0.06837081784657288    0.0722006021328621    0.073676090327997    0.05795213547642575    
  0.057378931916199166    0.05593312331933029    0.054262246196717205    0.052964044855617634    0.05234118620705813    
  0.05239439756498056    0.052709457410242994    0.05286012451745667    0.05270942776841571    0.05239441024880269    
  0.05234119287025915    0.0529640578442066    0.054262250469712274    0.05593312726920036    0.057378947261099676    
  0.05795213547642575    0.05322711297997877    0.05290790250613683    0.05212957515102429    0.05134721737215467    
  0.05099110123095506    0.051266286055979035    0.052058385826789594    0.05286008264049264    0.05318119851119335    
  0.052860069568466256    0.0520583439790974    0.05126628938512714    0.05099111149760708    0.05134721377956802    
  0.052129585869708825    0.05290792173374133    0.05322711297997877    0.05795214147405035    0.05737894481691493    
  0.05593312871321479    0.05426224195014833    0.052964063515094896    0.05234121155845581    0.0523944170433518    
  0.05270942903105149    0.05286009699548196    0.052709449890325874    0.052394396457080154    0.052341222802755515    
  0.052964069165749736    0.05426222934634525    0.055933138544005966    0.057378958578046084    0.05795214147405035    
  0.07367608968008751    0.07220056982469117    0.06837081314500106    0.06357965518771347    0.059084385535053165    
  0.055623896519391106    0.053473988480324794    0.05239437578156187    0.05205835054549147    0.05239439096046312    
  0.05347394308041901    0.05562389877496126    0.05908438679931891    0.0635796058547068    0.06837082526031536    
  0.07220060750885819    0.07367608968008751    0.104315970163499    0.10088593621548061    0.09197309429669355    
  0.08070055692399396    0.06996716775076693    0.061427154527161756    0.05562392320955984    0.05234121524030751    
  0.0512663181442632    0.05234118478613616    0.05562392946904309    0.06142716103006941    0.06996718684306298    
  0.08070055069458104    0.09197312180158956    0.10088599356106687    0.104315970163499    0.15434713657950486    
  0.1473722348441878    0.1294401912131543    0.10705017358349939    0.08616179823494607    0.06996714398639224    
  0.05908437641977847    0.05296402928099017    0.05099110315109375    0.05296402115773915    0.059084371525732454    
  0.06996713609005153    0.08616179906050613    0.10705018583050771    0.1294402221961132    0.14737224784836395    
  0.15434713657950486    0.22479005397490817    0.21236731361635258    0.18085233497133302    0.14219843046811842    
  0.10705020776429577    0.08070054293106596    0.06357965918207023    0.05426223431081463    0.05134726281320729    
  0.054262223839016036    0.06357965525354162    0.08070054864002925    0.10705022912980569    0.14219842977123534    
  0.18085231782040753    0.2123673318007596    0.22479005397490817    0.3059263574653991    0.2867868636023687    
  0.23873280171319938    0.18085226039195093    0.1294402433366364    0.09197309295655952    0.06837084045411447    
  0.05593310747357386    0.052129589996622226    0.05593311467966036    0.06837081874136783    0.09197308912660572    
  0.12944019847157648    0.18085228463182274    0.2387327753441666    0.2867868815446781    0.3059263574653991    
  0.3745339404221329    0.34940654610398386    0.28678683079078915    0.21236730058618902    0.1473722581920643    
  0.10088599661911712    0.07220061446484331    0.05737896365842002    0.05290793615640488    0.05737894966917595    
  0.07220058545383513    0.10088602057894726    0.14737222353641566    0.2123673484800657    0.2867868795805515    
  0.34940659027218934    0.3745339404221329    0.40207996192233986    0.37453380338501885    0.3059263699091819    
  0.2247899709394532    0.15434714716558767    0.10431592573148764    0.07367610001107737    0.057952115951826505    
  0.053227066575414435    0.05795208827641034    0.073676061045761    0.10431592807148093    0.15434710796262152    
  0.22478992040522439    0.30592642162358313    0.3745339442022907    0.40207996192233986    0.4302708089088536    
  0.4023466316253112    0.3306999643852804    0.24321719723413127    0.16619171509604055    0.1114143514893706    
  0.07796636297857254    0.06079541972789337    0.05561421457979782    0.06079539097134112    0.07796631819144542    
  0.11141437327150804    0.166191672207641    0.24321716231795218    0.3307000079486989    0.4023466439971404    
  0.4302708089088536    0.4023467026493656    0.3764527165063627    0.31033589363947356    0.22985308665337975    
  0.15877818722127393    0.10788060733345366    0.0765473737391345    0.06035076088179217    0.05544135038141429    
  0.060350758516739565    0.07654737456358575    0.1078806521328578    0.15877820748063734    0.22985311850645454    
  0.3103358764744443    0.3764528352788737    0.4023467026493656    0.330700071344446    0.3103358324045931    
  0.25865878645337825    0.19579250489084515    0.13965604111119392    0.09864670426152528    0.07282996559618031    
  0.05921815504497859    0.05504563970185994    0.05921815987027588    0.07282992581559808    0.09864672329861857    
  0.13965602561800886    0.1957924670861663    0.25865878241738777    0.3103358180215447    0.330700071344446    
  0.2432172760180621    0.22985310163865225    0.19579249668381926    0.15390561850296375    0.11567884351124204    
  0.08688706762693883    0.06815646710240975    0.05799856031552874    0.05482645976249106    0.05799855997308276    
  0.06815645617980581    0.0868870855712171    0.1156788425931723    0.153905646308156    0.19579259356342704    
  0.2298531374059554    0.2432172760180621    0.16619170003145628    0.15877814234881635    0.1396560649574296    
  0.11567880077645526    0.0931979919269827    0.07565947544030034    0.06387201507691631    0.05731390683507743    
  0.055235996209767206    0.05731389441391879    0.06387195136000054    0.07565944965864478    0.09319798789850672    
  0.11567879966699594    0.1396560741933047    0.15877821530140188    0.16619170003145628    0.11141441934887111    
  0.10788060026143241    0.09864673682246411    0.086887078031367    0.07565948053152233    0.06675455019298658    
  0.06075316370834328    0.057445106590354365    0.05639385001584201    0.05744512949294892    0.060753157830427645    
  0.06675454067148753    0.07565949725717193    0.08688705408694086    0.09864675669892163    0.10788059695337562    
  0.11141441934887111    0.07796634690400418    0.07654736005404958    0.07282993043350633    0.0681564486577319    
  0.06387199673635781    0.060753140146502335    0.05898869905317597    0.05822967199711065    0.05802673648412827    
  0.05822969675755615    0.05898868516005819    0.0607531487901599    0.06387197974584216    0.0681564468015934    
  0.07282991867517156    0.07654737552810506    0.07796634690400418    0.060795439677800905    0.06035074167008909    
  0.05921814276465425    0.05799856591185063    0.057313932851497336    0.05744512881694266    0.0582297008358228    
  0.059105282660828096    0.059473451659121324    0.059105250071711385    0.058229691273831714    0.05744515269409191    
  0.05731391712162244    0.057998552910842605    0.05921816017521317    0.060350757518486293    0.060795439677800905    
  0.055614250192473555    0.05544131607320014    0.055045642839231176    0.054826449756850075    0.05523598907017202    
  0.056393816837448194    0.0580267784919024    0.0594734187951947    0.060051719249269324    0.059473405421439425    
  0.05802672111827457    0.05639381831090115    0.05523599663403423    0.05482642658647433    0.05504565469055267    
  0.05544134655373237    0.055614250192473555    0.060795451815958676    0.06035074248413177    0.05921815380144377    
  0.05799855993917706    0.05731394963392756    0.057445147802045245    0.05822971214104813    0.05910524796196584    
  0.05947343817735504    0.0591052529821995    0.0582296861788637    0.05744513998852695    0.057313943681876096    
  0.05799855462169165    0.05921815589687581    0.06035075708924681    0.060795451815958676    0.07796635505336623    
  0.07654734835371456    0.07282990783394079    0.06815648020070203    0.06387200657155256    0.06075312863509097    
  0.05898873387801498    0.058229687494046375    0.058026752776662784    0.05822967509901288    0.05898869259118391    
  0.060753130708445666    0.06387198177501363    0.06815644138588987    0.0728299250012548    0.07654737518023574    
  0.07796635505336623    0.11141440343175611    0.10788057124020779    0.09864672289341456    0.08688705903199552    
  0.07565951398408559    0.06675452262396549    0.06075314815116755    0.057445140728579286    0.056393868661871516    
  0.05744514100778915    0.06075316048392423    0.06675456137389009    0.07565949859698379    0.08688706007089958    
  0.09864675838198765    0.10788060570358018    0.11141440343175611    0.1661916778768107    0.15877818670099214    
  0.13965602539305227    0.11567881006353788    0.0931980008583716    0.07565946934662311    0.06387200364170674    
  0.05731390614220053    0.055235981750601126    0.05731389666899835    0.06387196895602046    0.07565946028325647    
  0.09319797512861444    0.11567881684255628    0.1396560762098375    0.15877818961743645    0.1661916778768107    
  0.2432172827290301    0.22985309691814435    0.19579258520193255    0.15390566644896372    0.1156788418840428    
  0.08688707858323003    0.0681564945529046    0.05799855101772299    0.05482646253801268    0.05799854243489605    
  0.06815646781341587    0.08688706984356222    0.11567885934120183    0.15390564017022393    0.19579255871411158    
  0.22985311975626901    0.2432172827290301    0.3306999576163487    0.31033577762041975    0.25865879780724566    
  0.19579251682405124    0.13965606270981004    0.09864671696436325    0.07282993472360177    0.059218149291767455    
  0.05504566233666677    0.059218144056031534    0.0728299193287209    0.09864669820368797    0.139656018695697    
  0.19579252477961634    0.2586588488769633    0.31033585631468114    0.3306999576163487    0.4023466807281159    
  0.3764527585225483    0.3103358014013689    0.22985306275055187    0.15877819672528712    0.10788061047091631    
  0.07654737747020011    0.06035076804831522    0.05544135391076488    0.0603507480707295    0.07654737223322067    
  0.10788064754671865    0.15877817449723514    0.2298531079293625    0.3103358770112059    0.3764527529966946    
  0.4023466807281159    0.4302708089088536    0.4023466316253112    0.3306999643852804    0.24321719723413127    
  0.16619171509604055    0.1114143514893706    0.07796636297857254    0.06079541972789337    0.05561421457979782    
  0.06079539097134112    0.07796631819144542    0.11141437327150804    0.166191672207641    0.24321716231795218    
  0.3307000079486989    0.4023466439971404    0.4302708089088536    0.4620067425844293    0.4441247875394485    
  0.3849712452543739    0.2929891093913802    0.2009704391614333    0.13260831581812563    0.09075172852731331    
  0.06937566859744185    0.06291351201847939    0.06937564531386613    0.09075167127512211    0.13260830766494883    
  0.20097041814065073    0.2929890754789783    0.38497127733475817    0.444124945615138    0.4620067425844293    
  0.4441249574021349    0.4249615536965176    0.36569444830260345    0.27827530550023    0.19250097951182546    
  0.12876360292424485    0.08948285408647932    0.0692825524838431    0.06315102889428001    0.06928255610712271    
  0.08948287267523125    0.12876362491665969    0.19250097070097946    0.2782753122862459    0.36569441946458553    
  0.424961593888791    0.4441249574021349    0.38497131426365294    0.3656944164387584    0.3118213913293391    
  0.23919641818263593    0.17024402187110113    0.11868109856684628    0.08624106054635619    0.06922027826198784    
  0.0639909369436171    0.06922029015381168    0.0862409965770504    0.11868111241394826    0.1702439670832965    
  0.239196352707128    0.3118214454838336    0.36569439266687287    0.38497131426365294    0.29298920348804935    
  0.2782753082157495    0.23919638907818824    0.18894608676929212    0.14177905440238858    0.10579134725260239    
  0.08240723101643128    0.06980698215778341    0.06589553179410403    0.06980697858652109    0.08240721263023043    
  0.10579135440124002    0.1417790253041697    0.18894607104923036    0.23919644386097383    0.27827534585790253    
  0.29298920348804935    0.20097044502048345    0.19250089173245546    0.1702439960251934    0.14177897262701344    
  0.11475509810274381    0.09357928207851433    0.07939475250480102    0.0716477955718455    0.06924671245226625    
  0.07164779845275328    0.07939467736748274    0.09357925840200453    0.11475509791002111    0.14177902082892582    
  0.17024403274140426    0.19250095906010697    0.20097044502048345    0.13260838428420804    0.12876357966572083    
  0.11868111721944323    0.1057913555112267    0.09357927716872332    0.08411496526595522    0.07794921708392372    
  0.07475189138092476    0.07381961843106498    0.07475190923113458    0.07794920748300896    0.08411493671666155    
  0.09357932258148556    0.10579132577885679    0.11868115036600137    0.12876356756267288    0.13260838428420804    
  0.09075173567313123    0.08948284280547304    0.08624098822013035    0.08240719522903442    0.07939473172151935    
  0.07794922027653572    0.07787598070559913    0.0784121620372666    0.07871866263962207    0.07841217031522757    
  0.07787594530097525    0.0779492177985172    0.07939470738782398    0.08240719609959506    0.08624100481922548    
  0.08948285639756656    0.09075173567313123    0.06937567437913872    0.06928253200545714    0.06922027436763478    
  0.0698069646281834    0.07164784456711237    0.07475188524382331    0.07841216925065009    0.08144804062152695    
  0.08264383066849332    0.08144801293323492    0.07841218663457522    0.0747518991889366    0.07164783387839381    
  0.06980696960830692    0.06922028418451219    0.06928257261930053    0.06937567437913872    0.06291356021173418    
  0.06315099300284732    0.06399095081984912    0.06589549393322505    0.06924669851186746    0.07381960808545672    
  0.07871865945793682    0.08264378455942943    0.0841871960948885    0.0826437897932904    0.07871862778242486    
  0.0738196071921875    0.06924668989575848    0.06589548310448694    0.06399095789685878    0.0631510303596722    
  0.06291356021173418    0.06937569695742644    0.06928254681145    0.06922030245064577    0.06980699350356911    
  0.07164782789511293    0.07475190293798552    0.07841217994715255    0.08144801758581365    0.08264380062710362    
  0.08144804194512155    0.07841216042293561    0.0747519233191327    0.07164784400437806    0.0698069871351627    
  0.06922028789340097    0.06928256985781761    0.06937569695742644    0.09075171947196752    0.0894828355179098    
  0.08624100056810019    0.08240724515907503    0.0793947114272502    0.07794918037773818    0.07787598464710342    
  0.07841216540300704    0.07871865841679605    0.07841213682378205    0.07787595665734208    0.07794918958115446    
  0.07939470720455123    0.08240719451473905    0.0862410080751237    0.08948286547229341    0.09075171947196752    
  0.13260839198782326    0.12876355731250194    0.1186810946810536    0.10579135139818797    0.0935793345248167    
  0.08411494667445067    0.07794920711111254    0.07475189466508207    0.07381962195879531    0.07475188052008656    
  0.07794921748624704    0.0841149683869149    0.09357931353703879    0.10579134087908464    0.1186811575926219    
  0.12876361456148316    0.13260839198782326    0.20097042861041986    0.19250093410019928    0.17024393745209343    
  0.14177900250920308    0.11475510936822357    0.09357928900716594    0.07939471021561594    0.07164779501891563    
  0.06924669065701243    0.07164778976760114    0.07939467729333867    0.0935792683555229    0.11475508895574268    
  0.1417789721837168    0.17024402886347811    0.1925009717898121    0.20097042861041986    0.2929892796104211    
  0.2782753002498825    0.2391964484997894    0.18894610192705674    0.14177906093175133    0.10579135543674868    
  0.0824072401516415    0.06980697625013765    0.06589552450998963    0.06980698500775187    0.08240725896400751    
  0.10579134773845174    0.14177906247224326    0.18894609141000554    0.23919645346461763    0.2782752974728983    
  0.2929892796104211    0.3849712802680476    0.3656943324559453    0.3118214122321473    0.239196381712049    
  0.17024404046775035    0.11868107865444714    0.08624103287446604    0.06922027995216608    0.06399094687847337    
  0.06922026718318644    0.08624099683949048    0.11868111040192089    0.170244018219912    0.23919637951578232    
  0.31182144656592103    0.3656944334401695    0.3849712802680476    0.4441249622483822    0.4249615592367165    
  0.36569440370757095    0.2782752317453485    0.1925009604238036    0.1287636179627651    0.08948288831189137    
  0.0692825752992785    0.06315104766645396    0.06928255562857552    0.08948287271989536    0.12876361257793142    
  0.1925009465059887    0.27827531964904045    0.3656944380015587    0.4249616013677298    0.4441249622483822    
  0.4620067425844293    0.4441247875394485    0.3849712452543739    0.2929891093913802    0.2009704391614333    
  0.13260831581812563    0.09075172852731331    0.06937566859744185    0.06291351201847939    0.06937564531386613    
  0.09075167127512211    0.13260830766494883    0.20097041814065073    0.2929890754789783    0.38497127733475817    
  0.444124945615138    0.4620067425844293    0.3571070842214231    0.3780902688747107    0.39738330630445307    
  0.348652992929959    0.251850976338765    0.165520325132149    0.11088689406558228    0.08314010917763834    
  0.07478821633986685    0.08314008471440017    0.11088685218666511    0.16552031850346016    0.25185096982312655    
  0.3486529811808395    0.3973833900947033    0.3780903569775546    0.3571070842214231    0.3780903962424756    
  0.39153811793272486    0.39455320412573625    0.3370996867981957    0.2428254784137703    0.1615177470787107    
  0.11011248859706367    0.08383262069970036    0.07588143982949831    0.08383263156932852    0.11011248662501913    
  0.16151774880437478    0.24282552794054008    0.3370996825963084    0.39455316970130744    0.39153816691210624    
  0.3780903962424756    0.397383430439323    0.3945531475668621    0.36736780392837287    0.3001932632943459    
  0.2180042777165718    0.15117955339120465    0.10859164829710165    0.08632017195805151    0.07948057093742608    
  0.08632018614893838    0.10859160482560566    0.15117956343855313    0.21800429831410825    0.30019328795284317    
  0.36736783880901835    0.3945532096806233    0.397383430439323    0.3486530527712505    0.3370996608118865    
  0.3001933344855758    0.24332448065879173    0.18448753263287385    0.13807509909407456    0.10774223232659683    
  0.09137009320176712    0.08626067815998817    0.09137007495365712    0.1077422001728186    0.13807511302634518    
  0.18448753246775576    0.2433244761009132    0.3001933540736943    0.33709972855710535    0.3486530527712505    
  0.2518509238156856    0.2428254606380756    0.21800426716264396    0.1844874524248121    0.15169870145661826    
  0.12591699402622938    0.10873069988257039    0.09937994755037782    0.09650742975677655    0.09937998754359742    
  0.10873066540991247    0.1259169859309093    0.15169869474370049    0.18448744729100663    0.21800434419193473    
  0.24282547750873276    0.2518509238156856    0.16552035588804326    0.16151770633581877    0.15117959554608476    
  0.13807505825415714    0.12591703389045267    0.11714301838206226    0.1120479145969259    0.10984070824293188    
  0.1093461120103146    0.10984075006972208    0.11204794545416188    0.11714299905144779    0.1259170338375417    
  0.13807507653425902    0.1511796045252022    0.16151771287896735    0.16552035588804326    0.1108869029964445    
  0.11011242847043089    0.10859160213113889    0.10774219087413042    0.10873071290988046    0.11204791362279196    
  0.11672480848337381    0.12083029492606853    0.12249287315362288    0.12083034274010676    0.11672479115032401    
  0.11204789941062675    0.10873068377629548    0.10774221196951438    0.10859163290216062    0.11011247843290477    
  0.1108869029964445    0.08314012891150281    0.08383260322228273    0.08632014644869032    0.09137004753807512    
  0.09937999961487111    0.10984072739106096    0.12083036153539269    0.12939221097682357    0.13266616669179962    
  0.12939221210807356    0.12083037274587394    0.10984074591111678    0.09938000030817243    0.09137007556755787    
  0.08632017840588752    0.08383261686198111    0.08314012891150281    0.07478824242533787    0.07588140631391986    
  0.07948055496714572    0.08626063104758064    0.09650744916809999    0.10934610791797154    0.12249290809921998    
  0.1326661242108947    0.13655892230951508    0.13266611290734573    0.12249287243052635    0.10934613744755113    
  0.09650742112068202    0.08626062948117198    0.0794805461620224    0.07588145273062255    0.07478824242533787    
  0.0831401378967599    0.08383261627455849    0.08632017403405691    0.09137008530229422    0.09938002146240642    
  0.10984074270868267    0.12083033233784321    0.12939218524060023    0.13266614217055103    0.12939218415389375    
  0.12083033213917108    0.10984076420213042    0.09938001939800348    0.09137006530867524    0.0863201684628074    
  0.0838326245745697    0.0831401378967599    0.11088690311920688    0.11011245975791661    0.10859158327680693    
  0.10774224181378325    0.10873067481570882    0.11204786883151119    0.11672483587033501    0.12083031408610916    
  0.12249288318253758    0.12083032754441156    0.11672480474815329    0.11204786881137391    0.10873067910782568    
  0.10774220906482723    0.10859164088559552    0.11011247434788513    0.11088690311920688    0.1655203649960856    
  0.1615176935565653    0.15117956038749278    0.13807511092359273    0.12591707357858542    0.1171429852524285    
  0.11204790475586587    0.10984075936526541    0.10934619889889866    0.10984074559572733    0.11204790535745947    
  0.11714301989297331    0.12591703781301802    0.13807509229738588    0.15117958635004972    0.16151775695500453    
  0.1655203649960856    0.25185094413258485    0.2428254622235211    0.21800428152434437    0.18448746052634427    
  0.15169868985457188    0.12591701395086896    0.10873069962658574    0.09937996190936356    0.09650742603399133    
  0.09937995346859568    0.10873067524216613    0.12591699600593184    0.15169872595596823    0.18448741931850088    
  0.2180043275025105    0.24282548359484998    0.25185094413258485    0.3486531494448865    0.33709966938586716    
  0.3001932907758377    0.24332448601601284    0.1844874870833166    0.13807510884224353    0.1077422567741195    
  0.09137006843837281    0.08626065165119262    0.09137009451561329    0.1077422388865819    0.13807507049363874    
  0.18448751788797216    0.24332450313888612    0.30019330068910993    0.33709971289480933    0.3486531494448865    
  0.39738340385287396    0.394553113566134    0.36736786046984954    0.30019327368925414    0.2180043201866915    
  0.15117953593730243    0.10859163107001407    0.08632016044776894    0.07948055515626239    0.08632016020257931    
  0.10859159613859926    0.15117954717755303    0.21800428981664954    0.30019328431537523    0.3673679231573628    
  0.3945532241906107    0.39738340385287396    0.3780903601077949    0.39153812676023286    0.3945532036940039    
  0.3370996269192031    0.24282546753318168    0.16151771771608245    0.11011249450649115    0.08383263444145259    
  0.0758814673592278    0.0838326239981738    0.11011248160771485    0.1615177831714411    0.24282548775552956    
  0.3370996820235372    0.3945531632014295    0.3915381061426155    0.3780903601077949    0.3571070842214231    
  0.3780902688747107    0.39738330630445307    0.348652992929959    0.251850976338765    0.165520325132149    
  0.11088689406558228    0.08314010917763834    0.07478821633986685    0.08314008471440017    0.11088685218666511    
  0.16552031850346016    0.25185096982312655    0.3486529811808395    0.3973833900947033    0.3780903569775546    
  0.3571070842214231    0.15908463026463565    0.20729878581286812    0.32252013709080013    0.3744353369289266    
  0.30300547035607256    0.20328287954088764    0.13512792099222082    0.10019902214704675    0.08968175266755617    
  0.10019899847985705    0.13512786310946343    0.20328284938408167    0.3030054953373049    0.3744352984327727    
  0.3225201644579131    0.20729885702059228    0.15908463026463565    0.20729888278953107    0.25270955419110686    
  0.34861012903041183    0.3739630734109196    0.29555709424128584    0.20005790037773544    0.13568953036618153    
  0.10251245933761848    0.09245757508160585    0.10251247387037885    0.13568951735640414    0.2000579139039419    
  0.295557086368024    0.37396314631467287    0.34861013793591894    0.2527095877415817    0.20729888278953107    
  0.3225202514328193    0.3486100763035567    0.3841999845324105    0.35611876884309146    0.2729743309852264    
  0.19206420932913476    0.13836895816145253    0.11004567390101662    0.1013024953237168    0.1100457098159224    
  0.13836894252232745    0.19206421632843268    0.27297431631649915    0.3561187497865152    0.38419999591565174    
  0.3486101588065013    0.3225202514328193    0.37443539643702506    0.3739631084088564    0.3561188201680822    
  0.30505599954247603    0.23876472023210116    0.18229853117420675    0.1444971698737284    0.12385520449664209    
  0.11736409727025585    0.12385519986118398    0.1444971540447332    0.1822985390209829    0.23876472898449533    
  0.3050560266221521    0.3561188882746528    0.3739631424617081    0.37443539643702506    0.30300551788366087    
  0.2955570660892967    0.272974317227764    0.23876467161767626    0.2028501626777192    0.17399440644375103    
  0.15477384287141377    0.1443857555987192    0.1412243646763521    0.1443858099277762    0.1547737812383097    
  0.1739943697519714    0.20285015771031534    0.23876463858271557    0.2729743715028327    0.2955570847339461    