#     DFTpy    
  CRYSTAL 
    
  PRIMVEC    
  4.456344827586207    0.0    0.0    
  0.0    4.456344827586207    0.0    
  0.0    0.0    4.456344827586207    
  PRIMCOORD    
  8    1    
  Si    0.0    0.0    0.0    
  Si    1.1140862068965518    1.1140862068965518    1.1140862068965518    
  Si    0.0    2.2281724137931036    2.2281724137931036    
  Si    1.1140862068965518    3.3422586206896554    3.3422586206896554    
  Si    2.2281724137931036    0.0    2.2281724137931036    
  Si    3.3422586206896554    1.1140862068965518    3.3422586206896554    
  Si    2.2281724137931036    2.2281724137931036    0.0    
  Si    3.3422586206896554    3.3422586206896554    1.1140862068965518    
  BEGIN_BLOCK_DATAGRID_3D    
  3d_datagrid_density    
  BEGIN_DATAGRID_3D#0    
  19    19    19    
  0.0    0.0    0.0    
  4.456344827586207    0.0    0.0    
  0.0    4.456344827586207    0.0    
  0.0    0.0    4.456344827586207    
  0.06110184840307173    0.12328571553639622    0.3530905747060557    0.5370861596968659    0.4567963372506395    
  0.303459659628717    0.19397874454925504    0.13196723331762203    0.10216784630005335    0.09359903200083725    
  0.10216787080416066    0.1319672161509285    0.19397871042472592    0.30345969668400186    0.4567962618312498    
  0.5370861419570595    0.35309064477328694    0.1232856828087756    0.06110184840307173    0.12328572753677047    
  0.20044292779736933    0.42493964359252584    0.5564901350352367    0.4582244467481128    0.3088228369729634    
  0.20233908761686206    0.14098309782018917    0.11094181459982112    0.10216785134500292    0.11094184671328529    
  0.14098305990192028    0.20233905519656153    0.30882282499519387    0.45822444606046925    0.55649009114498    
  0.424939705434974    0.2004429300919067    0.12328572753677047    0.3530905994436557    0.42493956142414446    
  0.5591209327105607    0.5709009235451973    0.4528490605208978    0.32186594098299154    0.22755591240024825    
  0.17043597071515731    0.14098310052591737    0.13196722627511392    0.14098312466681504    0.1704359437383692    
  0.2275558467487523    0.32186601933515085    0.45284909975372317    0.5709009535447997    0.5591208894983569    
  0.4249396086198063    0.3530905994436557    0.5370862309607727    0.5564901311221483    0.5709009740048059    
  0.5227353287551612    0.42995510973348977    0.3399515596945426    0.27227539822281227    0.22755581095450383    
  0.2023390266917418    0.1939787895727929    0.20233908148354846    0.22755585850358995    0.2722754357538767    
  0.3399515847681503    0.42995510614370824    0.5227353087922821    0.5709008116371521    0.5564901038443356    
  0.5370862309607727    0.45679639062899563    0.4582244551887743    0.45284895223620497    0.4299550829799016    
  0.3952736698876967    0.36359428848477765    0.3399515905416269    0.3218659048053825    0.30882285332674664    
  0.30345964737627223    0.30882286182558866    0.32186590402613635    0.3399515780944091    0.363594365710696    
  0.3952737088117693    0.42995514769558196    0.4528490827449854    0.45822443029868515    0.45679639062899563    
  0.3034596716216838    0.3088227767326175    0.3218659906695564    0.33995155445089265    0.36359434343407293    
  0.3952737240878362    0.4299551666896249    0.45284903264097437    0.4582244547749807    0.4567962991225542    
  0.45822454866689716    0.4528491268039351    0.42995509087361766    0.39527374843097696    0.3635943218941825    
  0.33995148662083635    0.3218659923070657    0.3088228026538903    0.3034596716216838    0.19397874141104732    
  0.20233902330743192    0.22755587187536908    0.2722754463817652    0.33995149784602446    0.429955171636841    
  0.5227352149610142    0.5709009758474733    0.5564901156575408    0.5370861948269227    0.5564901100913858    
  0.570900939469082    0.5227353429646332    0.42995513125327334    0.33995156167404544    0.2722754280580467    
  0.2275558104735523    0.20233903812828496    0.19397874141104732    0.13196725056455091    0.14098310623180627    
  0.17043596163611996    0.22755585201033734    0.32186595438899596    0.45284910302656384    0.5709010141502723    
  0.5591208526381026    0.4249396594937393    0.3530905940263701    0.42493964766267905    0.5591208698666383    
  0.5709009684362928    0.45284910331361944    0.3218659518551802    0.22755589300988288    0.17043598236345145    
  0.14098309045939197    0.13196725056455091    0.10216788153977796    0.11094182127316762    0.14098310083853297    
  0.2023390224505173    0.30882279908634913    0.4582244539429091    0.5564901307246286    0.424939620876497    
  0.2004429572413377    0.12328572513697578    0.20044296871113518    0.4249395963297054    0.5564901403733222    
  0.45822451202583336    0.3088228176227159    0.20233903011221002    0.14098315534045303    0.11094182154735718    
  0.10216788153977796    0.0935990455060742    0.10216785475717949    0.13196719801273926    0.19397878508539204    
  0.3034596381502751    0.4567963799078921    0.537086157305708    0.35309058965041595    0.12328569699883145    
  0.06110184534436393    0.12328575323569174    0.35309057904666485    0.5370861763770338    0.4567963532642037    
  0.303459626187506    0.19397875007571266    0.1319672189103599    0.10216781891303532    0.0935990455060742    
  0.10216784608001812    0.1109417956594089    0.14098311231576    0.20233904483166773    0.3088227805088336    
  0.45822452785555    0.5564901977642301    0.4249395737026668    0.20044297428143673    0.12328573407426525    
  0.20044296180113413    0.4249396185150365    0.5564901103861487    0.45822450525615743    0.3088228001893562    
  0.2023390237222392    0.14098315872769393    0.11094178280105786    0.10216784608001812    0.13196722564735208    
  0.14098310449604817    0.17043595272435322    0.2275558455484834    0.32186599286296785    0.452849058372403    
  0.5709009965199104    0.5591209464844289    0.42493957980357266    0.3530906260813818    0.42493965544871476    
  0.5591209168660999    0.5709008874343883    0.4528491020505247    0.3218659661904578    0.22755588333488194    
  0.1704359821374079    0.14098308148921299    0.13196722564735208    0.19397883282499753    0.20233907448229263    
  0.22755584014515862    0.27227545403372827    0.3399515962699539    0.429955117274454    0.5227352301077609    
  0.570900880465157    0.5564900759315462    0.5370861855620725    0.5564901877414399    0.5709009399526338    
  0.5227353372029393    0.4299551514239363    0.339951550507468    0.2722754088735803    0.22755587765954063    
  0.20233898647092066    0.19397883282499753    0.30345965867685115    0.30882280781304333    0.3218659532429518    
  0.33995156527688436    0.36359436938983225    0.3952736846593577    0.429955116719128    0.45284903744351224    
  0.45822455963042535    0.4567963168637148    0.4582244752479899    0.45284900077702717    0.4299551414870937    
  0.3952737278194362    0.3635943065800567    0.3399515757339537    0.3218659819732371    0.3088228283859821    
  0.30345965867685115    0.4567963136919644    0.45822446880280127    0.4528491278914791    0.4299551055692808    
  0.39527370162572967    0.36359434021827797    0.33995160429439414    0.32186586547297646    0.30882285027624806    
  0.30345966389716045    0.3088228721850502    0.321865901894417    0.33995159119632584    0.3635943575996952    
  0.39527369627087916    0.4299550659296253    0.45284909405975793    0.45822446173766834    0.4567963136919644    
  0.5370861564610254    0.5564901630156901    0.5709009113958822    0.5227352590881185    0.4299551289096188    
  0.33995161127105894    0.27227537484746317    0.22755588621874756    0.20233899052899396    0.19397879498534543    
  0.20233900277828723    0.2275558656167811    0.2722754582413391    0.3399515834754675    0.4299551079745275    
  0.5227353530541137    0.5709009399496715    0.5564900698133649    0.5370861564610254    0.35309057509930186    
  0.42493956723816323    0.5591208374421892    0.5709009191173491    0.45284907205130787    0.32186595100044874    
  0.22755587470229616    0.170435985195169    0.14098311113081402    0.1319672256922444    0.14098310356692406    
  0.1704359141064228    0.22755586758658863    0.3218659722358073    0.45284907461423296    0.5709009851835208    
  0.5591209782763554    0.4249396357004923    0.35309057509930186    0.12328572942521654    0.200442927405829    
  0.4249396369515696    0.5564901364729998    0.45822448452493486    0.30882278711564876    0.20233905818028391    
  0.1409831352822454    0.11094179745202642    0.102167872043759    0.11094182477228774    0.14098311619736179    
  0.20233906953122222    0.308822871624989    0.4582245250322967    0.5564900341616092    0.4249396467073716    
  0.20044294749606162    0.12328572942521654    0.06110184840307173    0.12328571553639622    0.3530905747060557    
  0.5370861596968659    0.4567963372506395    0.303459659628717    0.19397874454925504    0.13196723331762203    
  0.10216784630005335    0.09359903200083725    0.10216787080416066    0.1319672161509285    0.19397871042472592    
  0.30345969668400186    0.4567962618312498    0.5370861419570595    0.35309064477328694    0.1232856828087756    
  0.06110184840307173    0.12328572664695009    0.20044293975966965    0.4249396728015612    0.5564900862570042    
  0.45822453520000933    0.3088228617443782    0.2023390108288164    0.140983131902673    0.11094179292439109    
  0.10216787785339672    0.11094181621205708    0.14098312363915294    0.20233897666432932    0.3088228708300434    
  0.4582244595625967    0.5564901036474554    0.42493964830431824    0.20044290080262112    0.12328572664695009    
  0.2004429339162312    0.3077413748898827    0.5487302661978882    0.65468342109837    0.5336810581580056    
  0.36665685320454716    0.2438628128810509    0.16920934679217497    0.1285623285858934    0.11094182645644199    
  0.11154196842064863    0.13217633697905015    0.1801171431808719    0.266167179249508    0.39113473731929627    
  0.4919591688248639    0.42829828430937233    0.2608662993834488    0.2004429339162312    0.4249396387073787    
  0.5487302467402199    0.7156091956792214    0.7278952116366464    0.5877922414940614    0.42638361364224825    
  0.30310768697627055    0.22069061069419268    0.16920935717948665    0.1409831187519771    0.13217639827112623    
  0.1426677076850873    0.17651070142521125    0.24021060549354395    0.3361792654126852    0.43846805801899147    
  0.47350244144200543    0.4282981849925099    0.4249396387073787    0.5564901227184854    0.6546835419490404    
  0.7278952454008973    0.6975830724974881    0.5873070847759049    0.47096520817071463    0.37768424395612216    
  0.3031075572902283    0.2438627754507417    0.20233904895019658    0.18011717122388435    0.1765106960685627    
  0.19270202757710958    0.23044084321485575    0.2908321052675624    0.3674292558759415    0.4384680205257771    
  0.49195921204267723    0.5564901227184854    0.45822454392195333    0.5336811667817193    0.5877922028267126    
  0.5873070196861968    0.5452583311646354    0.5038018029240723    0.4709652065884631    0.4263836325646568    
  0.3666568832139827    0.30882287103080813    0.2661671727897824    0.24021050371386207    0.2304408462373541    
  0.2356091031598859    0.25601336243468364    0.29083209498711166    0.33617930319761413    0.3911347652506488    
  0.45822454392195333    0.30882289979012806    0.36665681230469094    0.42638374294673365    0.47096510744641995    
  0.5038018404932044    0.5452583451682399    0.5873071078065257    0.5877921883503617    0.5336811813118425    
  0.4582244818852896    0.39113484131137494    0.3361792683899869    0.29083210446732993    0.2560133770992915    
  0.2356091294529974    0.23044081287055623    0.2402105828147879    0.26616712100319256    0.30882289979012806    
  0.20233899621831652    0.24386278551418564    0.30310761099482725    0.3776843323119299    0.4709650615385587    
  0.5873071845065553    0.697582926273806    0.727895254187876    0.6546834099681681    0.5564901161786397    
  0.4919592310323427    0.4384679844702241    0.3674293105902286    0.2908320649515665    0.2304408695673576    
  0.19270204720542297    0.17651065873529262    0.1801171188736161    0.20233899621831652    0.14098312343464897    
  0.16920938280455924    0.22069058522205826    0.3031076308983396    0.42638359264474857    0.587792259401852    
  0.7278952819501039    0.7156092062800892    0.548730253795262    0.42493964598659517    0.42829823989944016    
  0.473502436039723    0.43846799234768136    0.3361792513574383    0.24021053523847208    0.1765106986708015    
  0.1426677102316273    0.13217636715544087    0.14098312343464897    0.11094184038629451    0.12856233246716336    
  0.16920938372090183    0.24386274656961882    0.3666568535287168    0.5336811980368753    0.6546835170007779    
  0.5487302524789136    0.3077414061852492    0.20044296057673133    0.2608663204886164    0.42829818218781784    
  0.4919592273807008    0.3911348626926397    0.26616711601187454    0.18011710556705673    0.13217643035230506    
  0.11154194926412078    0.11094184038629451    0.10216787202214134    0.11094180677439959    0.14098308651578062    
  0.2023389950073745    0.3088228136870164    0.45822455723569283    0.5564900223086136    0.4249396512040389    
  0.2004429227169215    0.12328572395571802    0.20044295742448726    0.4249395762195179    0.5564901094899427    
  0.45822451868315417    0.30882282698031793    0.20233904155593993    0.1409831248157912    0.11094177205651184    
  0.10216787202214134    0.1109418206369897    0.11154193155490097    0.13217638246574934    0.18011715639853015    
  0.26616710151085715    0.39113484686158084    0.4919593272576026    0.4282981573510123    0.26086633911545803    
  0.20044293116327253    0.3077414229910243    0.548730221042101    0.654683397875032    0.5336812430824814    
  0.36665677070528796    0.24386278518924426    0.16920942966967414    0.1285623306654332    0.1109418206369897    
  0.1409830924239176    0.13217641313164183    0.1426677284521249    0.17651066870877657    0.24021057183418373    
  0.33617920631777026    0.4384680608993829    0.4735024254094008    0.42829812750037805    0.4249396859344821    
  0.5487302785841985    0.7156092675731792    0.7278952185995058    0.5877922839230968    0.4263836958131308    
  0.30310758994841924    0.22069066283881322    0.16920938065606728    0.1409830924239176    0.20233909414472004    
  0.18011718992247486    0.17651069814328274    0.1927020784669749    0.23044084753674862    0.29083213471494646    
  0.3674292910015625    0.43846791794071394    0.4919591993877602    0.5564901832077227    0.6546834831471565    
  0.7278951833957046    0.69758305421566    0.5873071135023541    0.47096514132901857    0.37768425454823157    
  0.3031075650482347    0.24386273310855966    0.20233909414472004    0.3088228700462195    0.2661670985207951    
  0.2402105371377324    0.23044083444435834    0.235609078303166    0.25601336106815886    0.2908321301480008    
  0.3361791839540557    0.3911348729030292    0.45822452720103596    0.5336811917893188    0.5877920928773356    
  0.5873071549814018    0.5452583694749095    0.5038018474412473    0.4709652223000113    0.42638368557789735    
  0.3666567787067196    0.3088228700462195    0.45822449827241996    0.39113476334801806    0.3361793084787336    
  0.29083205138684554    0.25601334160681305    0.23560913012382906    0.23044087303888444    0.2402105380150206    
  0.2661671391965576    0.3088228976497863    0.3666568881810337    0.4263836539757807    0.4709651363275731    
  0.5038018592919362    0.5452583270675838    0.5873070433990579    0.5877922356536703    0.5336811652731738    
  0.45822449827241996    0.5564901473410448    0.4919593272154067    0.43846803842520027    0.36742928107429845    
  0.29083207162671054    0.2304408287622672    0.19270199425090007    0.1765107135622256    0.18011710773479045    
  0.20233904284168036    0.24386274557974588    0.30310760071825643    0.37768434837920706    0.4709651939017882    
  0.5873070853748296    0.6975829902836628    0.72789525851782    0.6546834227358777    0.5564901473410448    
  0.424939600533078    0.42829819975134537    0.47350239006912526    0.4384680341046159    0.33617927220168764    
  0.24021056559568832    0.17651067610352614    0.14266773646316908    0.13217638448793478    0.1409831464024754    
  0.16920938692884646    0.2206905636432388    0.3031076026349305    0.4263836897233635    0.5877921941154464    
  0.7278952285206829    0.7156091964830494    0.5487301863666306    0.424939600533078    0.20044296583347204    
  0.26086630295214064    0.4282982317443072    0.4919592324441045    0.39113477303318406    0.26616710733897725    
  0.1801171355445072    0.13217639798940486    0.11154192820501811    0.11094182514222929    0.12856236070279659    
  0.16920936589198685    0.24386280422336495    0.3666568909267785    0.5336811971756341    0.6546833732689785    
  0.5487302943626641    0.30774143413485183    0.20044296583347204    0.12328572664695009    0.20044293975966965    
  0.4249396728015612    0.5564900862570042    0.45822453520000933    0.3088228617443782    0.2023390108288164    
  0.140983131902673    0.11094179292439109    0.10216787785339672    0.11094181621205708    0.14098312363915294    
  0.20233897666432932    0.3088228708300434    0.4582244595625967    0.5564901036474554    0.42493964830431824    
  0.20044290080262112    0.12328572664695009    0.35309058539359933    0.4249396317417875    0.5591208948762721    
  0.57090098912557    0.45284910902942926    0.3218660203830832    0.22755585664597114    0.17043597470113206    
  0.14098310644378415    0.13196720297350062    0.14098315356190166    0.17043595055882546    0.2275558345411415    
  0.3218660232135144    0.45284905458879715    0.5709009479382138    0.5591209273637273    0.4249395684000044    
  0.35309058539359933    0.424939693222322    0.5487302280222062    0.7156092280835782    0.7278952630418712    
  0.587792181641165    0.42638372046204814    0.3031076547593214    0.22069057573380751    0.16920936483595597    
  0.14098312012856776    0.1321764238925903    0.14266770427886208    0.17651070366337032    0.2402106100002087    
  0.33617919309021743    0.43846798717065116    0.47350253537185866    0.4282981838244561    0.424939693222322    
  0.5591209274000992    0.7156091580293185    0.8526857928227773    0.8270204332741785    0.6711956536523569    
  0.5093784962898026    0.387063837362881    0.29333723117849364    0.2206905684903136    0.17043599326609926    
  0.14266778350330672    0.13581492299814354    0.1502512296326815    0.18851543384013353    0.2533064185550349    
  0.3380291861549086    0.4160380616039065    0.4735024229110264    0.5591209274000992    0.5709009330354696    
  0.7278952920288803    0.8270204783848143    0.7735146029938281    0.6259858087587116    0.5141530055229706    
  0.45285930827083637    0.3870636948545217    0.3031075802458233    0.22755585675697304    0.1765107425774095    
  0.1502512543255794    0.14610830946311545    0.16238492111998792    0.1996326259794107    0.2587907314212909    
  0.33802909837562084    0.43846801872038443    0.5709009330354696    0.4528491079504682    0.5877922150274562    
  0.6711956155952361    0.6259858198631942    0.5207465282680536    0.4837662464334955    0.514153001608048    
  0.5093784261145845    0.4263837474758382    0.3218660208692606    0.2402105977267808    0.18851534069662518    
  0.16238494956884333    0.15643402024341496    0.16850924733410227    0.19963263190009906    0.2533064685788941    
  0.3361792169279859    0.4528491079504682    0.3218660353974918    0.42638368074364735    0.5093785686662159    
  0.5141529111558519    0.4837662894631284    0.5207465809805568    0.625985911126491    0.6711956058561476    
  0.5877922459439958    0.45284906348193743    0.3361793181011253    0.2533064139591404    0.1996326281432803    
  0.16850927944678037    0.15643400995047907    0.16238488683179572    0.18851539037199014    0.24021055898358176    
  0.3218660353974918    0.2275558288094102    0.30310759018714145    0.3870637980160722    0.45285942141398133    
  0.5141529055310831    0.6259858310584229    0.773514381406002    0.827020470986671    0.727895130991088    
  0.5709009635539404    0.43846805661540145    0.338029145551776    0.2587907249360264    0.19963262809421198    
  0.16238493323708658    0.14610834805633494    0.15025123875179905    0.17651065189131862    0.2275558288094102    
  0.17043598658736817    0.22069059208387257    0.2933371932763563    0.38706380773955323    0.5093785052279003    
  0.6711957007551445    0.8270205150321465    0.8526858084389102    0.7156092526640628    0.5591209463108637    
  0.47350247146388497    0.41603799313157963    0.3380291814274048    0.2533064448361243    0.18851543162662418    
  0.1502512544599981    0.13581495285973028    0.14266769419432437    0.17043598658736817    0.14098311989940676    
  0.16920941217266622    0.22069065417246284    0.3031075509307402    0.4263837085759488    0.5877921721477275    
  0.727895228907761    0.7156091996922734    0.5487302946050604    0.42493963442304084    0.4282982338677633    
  0.4735023961459392    0.438468045682103    0.33617932271374934    0.24021057461299272    0.17651070023014898    
  0.14266780238896232    0.1321764204636618    0.14098311989940676    0.13196721598298972    0.14098310363728153    
  0.1704359889342991    0.2275558759994697    0.3218659779563612    0.45284915037350026    0.5709009064386369    
  0.5591209136849401    0.42493956148758344    0.35309056616310536    0.42493967316307746    0.5591208853967148    
  0.5709009514549409    0.4528491199375652    0.3218659466747766    0.22755584603006462    0.17043597889188844    
  0.14098306844676958    0.13196721598298972    0.1409831407537883    0.13217639082702198    0.1426677406117882    
  0.1765106921451048    0.240210550523161    0.3361793224312039    0.43846814872585577    0.4735023541896819    
  0.4282982567976269    0.4249395978467886    0.5487302730165172    0.7156091457612854    0.7278951298148078    
  0.5877922596593745    0.4263836982338509    0.3031075906396542    0.220690634810462    0.16920936864124653    
  0.1409831407537883    0.17043600301682654    0.14266774356319598    0.13581496833273776    0.15025121079014223    
  0.18851538479116683    0.2533063943896333    0.3380291860298543    0.4160380065378744    0.47350238811055284    
  0.5591209438317316    0.715609200576172    0.8526858683873717    0.8270203751778571    0.6711957015281873    
  0.5093785362606151    0.3870637928974344    0.29333723448170557    0.22069061946380703    0.17043600301682654    
  0.22755593022767867    0.17651072540156906    0.1502512113859488    0.14610834820684715    0.16238494065436876    
  0.1996326423847786    0.2587907193813939    0.3380291238501764    0.4384680541208049    0.5709009359116768    
  0.7278952044872875    0.8270204192005345    0.7735145666172638    0.6259858906859448    0.5141529399172393    
  0.45285928050864765    0.3870637514722492    0.303107565109527    0.22755593022767867    0.321865990726804    
  0.24021052591285952    0.18851540323194504    0.16238492190077722    0.15643400770761834    0.16850923886907906    
  0.19963265236230948    0.25330638282554485    0.3361793549619898    0.4528491070606111    0.5877922950294752    
  0.6711955389698026    0.6259858728481502    0.5207465748507938    0.4837663029881922    0.5141529839112402    
  0.5093785537475506    0.4263836506824017    0.321865990726804    0.452849129803301    0.33617923762841745    
  0.2533064807118608    0.19963262455744368    0.16850923743116597    0.15643401286114358    0.16238497242070393    
  0.1885153564159041    0.24021057382908584    0.32186602062126285    0.42638368642835817    0.5093785199824522    
  0.5141529179097308    0.4837663290287796    0.5207465456915638    0.6259857809291828    0.6711956887467745    
  0.5877922369914886    0.452849129803301    0.5709009472498432    0.438468065867542    0.33802919692828204    
  0.25879072311429313    0.19963260785560635    0.16238495518455437    0.14610829992023386    0.1502512423624554    
  0.1765106528070512    0.22755588668135823    0.3031075944209529    0.387063815329168    0.4528593832836667    
  0.5141529804560313    0.6259857934053812    0.7735145303916691    0.8270203612094557    0.7278951428179185    
  0.5709009472498432    0.559120880209493    0.4735023998463788    0.4160379707246171    0.3380291511155886    
  0.25330642263885006    0.18851537023354564    0.15025124651997127    0.13581496039864155    0.14266774132307267    
  0.17043602760666368    0.22069062138598572    0.2933371530459143    0.38706380618703295    0.5093785540590571    
  0.6711956431773257    0.8270204059071463    0.8526858065791938    0.715609046178973    0.559120880209493    
  0.4249397126986187    0.4282981918082862    0.4735024320940457    0.4384679913509291    0.33617925511530367    
  0.24021054022036692    0.17651069593057472    0.14266771011165436    0.1321763686807654    0.1409831352492216    
  0.16920940706209844    0.2206905920958663    0.30310759991018627    0.42638373806559454    0.58779230858229    
  0.7278950976659936    0.7156092482968113    0.5487303025597716    0.4249397126986187    0.35309058539359933    
  0.4249396317417875    0.5591208948762721    0.57090098912557    0.45284910902942926    0.3218660203830832    
  0.22755585664597114    0.17043597470113206    0.14098310644378415    0.13196720297350062    0.14098315356190166    
  0.17043595055882546    0.2275558345411415    0.3218660232135144    0.45284905458879715    0.5709009479382138    
  0.5591209273637273    0.4249395684000044    0.35309058539359933    0.5370862084770011    0.5564900729921466    
  0.5709009566980701    0.5227352670776142    0.42995512392417595    0.33995160955347953    0.27227540013221146    
  0.22755587415773967    0.20233903937530356    0.19397874273655655    0.20233906232366827    0.22755587457192658    
  0.27227537947546127    0.33995163011270324    0.4299550756111017    0.522735300917433    0.5709010079663599    
  0.5564900648833905    0.5370862084770011    0.5564901503656328    0.6546834444978852    0.7278951870017115    
  0.6975829662420269    0.5873070786808757    0.470965240037607    0.37768427095986834    0.30310758361906576    
  0.2438628099859274    0.2023390638748906    0.18011718922919426    0.17651063925750693    0.19270205925182193    
  0.23044085606037035    0.29083203717281975    0.36742928783318873    0.43846811140326797    0.49195917402199624    
  0.5564901503656328    0.5709009396854029    0.7278950967444449    0.8270204380590803    0.7735145652823104    
  0.6259857982549875    0.5141529104523224    0.45285940877638714    0.3870637273051232    0.3031075704344325    
  0.22755589534368476    0.17651073159679137    0.15025118722157557    0.14610832275852612    0.16238496501217642    
  0.19963263643553217    0.2587907574984621    0.338029152710973    0.4384680326740683    0.5709009396854029    
  0.5227353267268635    0.6975829803854494    0.7735145056789724    0.6392316376685119    0.4472180736537118    
  0.3832785870177973    0.43006669817642385    0.4528592809880968    0.3776842870135757    0.2722754393537426    
  0.1927020812334168    0.1461083256822374    0.12614297861246068    0.12713810419540456    0.14727051418439077    
  0.18899140581753093    0.25879070573989    0.36742927942521686    0.5227353267268635    0.42995517112026027    
  0.5873070227854933    0.6259857618173398    0.44721805783736107    0.2690097357540271    0.25231278200104473    
  0.3832786283203461    0.5141529300731165    0.4709652185859488    0.33995156986071146    0.23044085156398514    
  0.16238488424705186    0.12713810937676595    0.11509745039223165    0.12145029911572992    0.1472705303323427    
  0.1996326560139722    0.29083204349168007    0.42995517112026027    0.33995159958436283    0.47096516468564315    
  0.5141530126447671    0.38327858523744096    0.2523128571693711    0.26900976884055366    0.4472181350181137    
  0.6259857896277108    0.5873070790754066    0.42995512822674264    0.2908321476774853    0.1996326390238824    
  0.1472705051593495    0.12145029801536857    0.11509743209310597    0.12713804703115913    0.16238495957933424    
  0.23044080519347135    0.33995159958436283    0.2722754375677728    0.3776842670640634    0.45285938801684816    
  0.43006680893933974    0.383278539494012    0.44721812959153584    0.639231413742136    0.7735146111791534    
  0.6975829512974424    0.5227353429935807    0.3674292877556469    0.25879074640322053    0.18899143973651025    
  0.14727051021434256    0.12713809030611453    0.1261430069914416    0.1461082913598034    0.19270201753790572    
  0.2722754375677728    0.22755589698748108    0.3031076069684908    0.3870637375834605    0.4528593185649482    
  0.5141529092692357    0.625985888327091    0.7735146130010779    0.827020388109253    0.727895280666729    
  0.570900934556225    0.43846806060383947    0.338029103549998    0.25879076200860884    0.19963265058970928    
  0.16238490720676874    0.1461083692611729    0.15025121355771628    0.17651065405096378    0.22755589698748108    
  0.20233907745635593    0.24386279162592886    0.30310763283801007    0.3776842530880183    0.4709652088306689    
  0.5873070530236297    0.6975829815436396    0.7278951908503538    0.6546834802352286    0.5564901445836903    
  0.49195928215195744    0.4384680249231186    0.36742935926632503    0.29083211307158524    0.23044084652855265    
  0.19270202433874783    0.17651074661943325    0.1801171424952664    0.20233907745635593    0.19397875957009025    
  0.20233907085970235    0.22755581774362568    0.27227542776513547    0.33995158096760136    0.4299551449546178    