#     DFTpy    
  CRYSTAL 
    
  PRIMVEC    
  5.440275862068965    0.0    0.0    
  0.0    5.440275862068965    0.0    
  0.0    0.0    2.9972413793103447    
  PRIMCOORD    
  4    1    
  Si    0.0    0.0    0.0    
  Si    2.7201379310344826    2.7201379310344826    1.4986206896551724    
  Si    0.0    2.7201379310344826    0.7493103448275862    
  Si    2.7201379310344826    0.0    2.2479310344827583    
  BEGIN_BLOCK_DATAGRID_3D    
  3d_datagrid_density    
  BEGIN_DATAGRID_3D#0    
  25    25    13    
  0.0    0.0    0.0    
  5.440275862068965    0.0    0.0    
  0.0    5.440275862068965    0.0    
  0.0    0.0    2.9972413793103447    
  0.06186536584613099    0.10638656157518558    0.2580613817928553    0.3913572468038476    0.35584777900796577    
  0.26371783516568426    0.20926865480450868    0.20171497146681566    0.23348344784391498    0.29272636470605684    
  0.3507887356570117    0.3796947443831965    0.38519098215793307    0.37969474840417966    0.3507886495767057    
  0.292726479050426    0.23348331185681329    0.2017151354282605    0.2092684493314497    0.26371806087633826    
  0.3558475997904796    0.39135742920716704    0.25806124229238586    0.10638661415020823    0.06186536584613099    
  0.10638661047038012    0.15693368638827102    0.2992359027080612    0.39270514631455283    0.3388802394047601    
  0.24897357462391034    0.1978759567999561    0.19078570702912603    0.2205480893697511    0.2769457874075994    
  0.3351616722704632    0.36866798581715654    0.37716465054712545    0.36866789911694353    0.33516181866417843    
  0.2769455932585063    0.2205482961528751    0.1907854999196299    0.19787614617544377    0.24897341116033983    
  0.3388804483275853    0.39270496645429387    0.29923594832207906    0.15693365654089966    0.10638661047038012    
  0.2580613053367986    0.2992358974493964    0.3736575221902538    0.3719348298416064    0.2903778432260517    
  0.2107679762867331    0.16885884214023875    0.1631005865867204    0.18749776829088333    0.23506140850473595    
  0.2890500642897692    0.3275516595494804    0.3404522371653467    0.32755168880126123    0.2890499712439243    
  0.23506156584404644    0.18749759091852994    0.16310074799789787    0.16885865175599257    0.2107681854230564    
  0.29037760338836316    0.37193495808359095    0.37365744673417844    0.29923594587058316    0.2580613053367986    
  0.3913573436447331    0.39270504963718467    0.37193491550685365    0.30626834793894236    0.22493528503110685    
  0.1641156584832147    0.13359150136452935    0.12936410163126766    0.1469221183607167    0.18171317243257756    
  0.22372689482850172    0.25744737548800667    0.27009244736639565    0.25744735096595167    0.22372697814071882    
  0.18171303362136387    0.14692226155940682    0.12936396670869926    0.13359166342461423    0.16411554074565934    
  0.22493542272724512    0.30626817324972794    0.3719349697859741    0.3927050593687695    0.3913573436447331    
  0.35584770454469267    0.3388802986671134    0.2903777646479888    0.2249352690276063    0.16480488079536013    
  0.12328174761445987    0.10237643074591828    0.09921360357216562    0.11071771378015693    0.1335305597552338    
  0.16152213051414044    0.18489895006643173    0.1939810491085278    0.18489898938229543    0.16152205604833392    
  0.13353066630599558    0.11071761458138026    0.09921373905058443    0.10237628707550855    0.1232819027681834    
  0.1648047260205762    0.22493542190690083    0.2903776415619243    0.3388803870532121    0.35584770454469267    
  0.26371798825004544    0.2489735050199456    0.21076804965421117    0.16411566942504355    0.12328175475335947    
  0.09515744550143869    0.08060308997828253    0.07800373270850225    0.08527239014849455    0.09980140936897457    
  0.11753190090792928    0.1324433357838373    0.13830414300600494    0.1324433082056633    0.11753199216606773    
  0.09980130723050505    0.08527249117146976    0.07800361376815003    0.08060322974018085    0.09515731775152739    
  0.12328188764748631    0.16411554670506862    0.21076810013010025    0.24897345747215072    0.26371798825004544    
  0.2092685437044952    0.19787598386204136    0.16885881806157216    0.13359148991634912    0.1023764188380054    
  0.08060305741774895    0.0690809070980122    0.06652884341866663    0.07128987754439277    0.08129153277973926    
  0.09353303302537098    0.10384309955595497    0.10792094609377734    0.10384313135612432    0.09353298753666323    
  0.08129161267826372    0.07128976914335983    0.06652894581540086    0.06908078427686168    0.08060319061712279    
  0.10237628055848091    0.1335915876986648    0.1688587124595914    0.1978760590480233    0.2092685437044952    
  0.20171507253533846    0.19078565842058687    0.16310060636166204    0.12936414097829402    0.0992136088436761    
  0.0780037444504169    0.06652885643722463    0.06346247348994126    0.06713325736905923    0.07555621311086921    
  0.0860105165332846    0.09483253331541065    0.09831422760048648    0.09483247850278059    0.08601057459843738    
  0.0755561266337356    0.06713336793973981    0.06346237154152505    0.06652896654686624    0.07800364678645338    
  0.0992137213609457    0.12936401414984597    0.16310066385194374    0.19078563949818625    0.20171507253533846    
  0.23348347034026914    0.22054812880045874    0.18749776565558043    0.1469220633856188    0.11071776356080062    
  0.08527234367910871    0.07128990394520197    0.06713324904585592    0.07078703796700245    0.07987864755636553    
  0.0913733858970716    0.10110124636035658    0.104917280195258    0.101101270137131    0.0913733226412817    
  0.07987872965583516    0.07078692252748228    0.0671333595541252    0.0712897857421284    0.08527247638102917    
  0.11071765001712665    0.1469222022317121    0.18749770071569463    0.22054814649167076    0.23348347034026914    
  0.29272632545260296    0.2769457102007551    0.23506139053272063    0.18171318425897182    0.13353050956089985    
  0.09980143605214087    0.08129149042766279    0.07555623340822702    0.0798786258118486    0.09132658183081584    
  0.1060677273304052    0.11860111639227124    0.12348648787718537    0.11860107798883973    0.10606780680082115    
  0.09132647894985381    0.07987873720866213    0.07555611749183143    0.08129162073011435    0.09980131482079625    
  0.13353063688177097    0.1817130657832171    0.23506151298956118    0.2769456889314629    0.29272632545260296    
  0.3507888208809734    0.3351616827365386    0.2890501464924156    0.22372678856579126    0.16152224401462312    
  0.11753182887438622    0.09353311852576968    0.08601046825588231    0.09137342878765593    0.1060677391013611    
  0.12522543560027374    0.14162204877049978    0.14804080005197878    0.14162206874403147    0.1252253955585937    
  0.10606781561229027    0.09137332291740292    0.0860105767471614    0.09353297472329952    0.11753199972027793    
  0.161522083091922    0.2237269211307555    0.2890499968825115    0.33516170714245697    0.3507888208809734    
  0.3796946582321802    0.3686680524956858    0.32755155673484493    0.2574474916456911    0.18489886003245584    
  0.13244344986109724    0.10384302207587744    0.09483260379155936    0.10110117381696833    0.11860118050900123    
  0.14162201478225375    0.1616154988473339    0.16957091592762574    0.16161545954035111    0.14162207925854006    
  0.11860108418690707    0.10110126399924844    0.09483248671624794    0.10384315861079496    0.13244330112506206    
  0.18489900866028405    0.25744738679734025    0.32755166077919023    0.36866799494081176    0.3796946582321802    
  0.3851910180351344    0.3771644892092234    0.3404524074475411    0.2700922665295652    0.1939812260433303    
  0.1383039706521704    0.10792107110967018    0.09831412540788581    0.10491733806826566    0.12348640500720423    
  0.1480408002033198    0.16957086438356905    0.17822440399868095    0.16957087126429032    0.14804076710190922    
  0.12348647393063074    0.10491723362349349    0.09831425441742751    0.10792092050062047    0.13830413695754554    
  0.19398107194370484    0.2700924373815328    0.3404522602612686    0.37716456506911683    0.3851910180351344    
  0.3796946723062348    0.3686680855987605    0.3275515739820472    0.2574475472728708    0.18489883236878235    
  0.13244345352010062    0.10384302733599084    0.09483260966399372    0.10110114559684402    0.11860118769486837    
  0.14162197859281195    0.16161552239662622    0.16957085448895787    0.16161546001743574    0.14162210881646042    
  0.11860110928496768    0.10110126756797078    0.09483245601867633    0.10384315943056878    0.13244332916307927    
  0.18489896442689532    0.25744737174803944    0.3275515915495702    0.3686680645545939    0.3796946723062348    
  0.35078880146325575    0.3351615736789861    0.28905018334751686    0.22372676590157206    0.1615222663267445    
  0.11753181242388473    0.09353313699889522    0.08601044197863526    0.09137346075083967    0.10606770388823904    
  0.12522548038192624    0.14162204717407753    0.14804078684070007    0.14162206318906348    0.1252254237654654    
  0.10606780616647159    0.09137333101040092    0.08601056303423237    0.09353298928543176    0.11753196269752647    
  0.16152211522382026    0.22372691345833703    0.28905011591382956    0.33516159088247477    0.35078880146325575    
  0.292726318263864    0.2769457723466521    0.23506140014062807    0.18171321266442245    0.13353048239135676    
  0.09980146735345247    0.08129147259096846    0.07555625375032884    0.07987861097214992    0.09132658834320619    
  0.10606771903385824    0.1186011560272222    0.123486433831758    0.1186011276371994    0.10606779204570427    
  0.09132649828515522    0.07987871091753536    0.0755561276823007    0.08129160196820567    0.09980133226951061    
  0.1335306302812844    0.18171311582256858    0.23506145937730272    0.27694571408742824    0.292726318263864    
  0.2334835147940601    0.22054809386464658    0.18749780757578124    0.14692205714832587    0.11071779795516021    
  0.08527232401328752    0.07128991704455372    0.06713322674654747    0.0707870272694888    0.07987862397969905    
  0.09137340986577426    0.10110119479333679    0.10491729624277497    0.10110121946925207    0.09137334903827968    
  0.07987871782222783    0.07078692783899529    0.06713333963720042    0.07128980491725041    0.08527245342656313    
  0.11071768047009706    0.14692217931871712    0.18749770560248005    0.2205481575102215    0.2334835147940601    
  0.20171503133004184    0.19078570720708096    0.1631005840843174    0.129364143062983    0.09921357417221591    
  0.07800377892484493    0.06652883886093831    0.06346249392536359    0.06713325141024391    0.07555623895616474    
  0.08601048920271302    0.09483255213080337    0.09831419588017191    0.09483251817078044    0.08601055597018704    
  0.07555615215130108    0.06713333869991868    0.06346238760297358    0.06652895692907557    0.07800364715826368    
  0.0992136951741066    0.12936405637955684    0.16310062978102224    0.19078563407654256    0.20171503133004184    
  0.2092685721779547    0.19787593140815507    0.16885886379496617    0.13359145933606298    0.10237645358136133    
  0.08060303475304803    0.06908093515957629    0.06652881921498596    0.07128990021531455    0.08129150565563951    
  0.09353306557448049    0.10384307708385225    0.10792098091086391    0.10384311234221795    0.09353303086774734    
  0.08129158228742243    0.07128978354035968    0.06652892453864032    0.0690808093837128    0.08060315970842774    
  0.10237631746068855    0.1335915567657499    0.16885874465710157    0.19787602467141158    0.2092685721779547    
  0.2637179454670547    0.2489735485804576    0.21076798942953326    0.16411571516885895    0.1232817402839445    
  0.09515747946830527    0.08060306311984984    0.07800375742159134    0.08527234987161748    0.09980144529864389    
  0.11753187380159538    0.13244339582782175    0.13830408416823572    0.13244329914965478    0.11753196914640103    
  0.09980134962152652    0.08527247304851479    0.078003640158053    0.08060318288030786    0.09515737467510801    
  0.12328185237486941    0.16411560126323985    0.21076807058274025    0.24897354918192036    0.2637179454670547    
  0.3558477390827037    0.3388802459280183    0.29037778657714036    0.2249352219980112    0.1648049072008207    
  0.12328171170691732    0.10237644855683414    0.09921356759409601    0.11071776815846152    0.1335305212867742    
  0.1615221685274885    0.18489893686759568    0.19398113813921508    0.18489896916922433    0.16152208705875082    
  0.13353064987968224    0.11071763089828597    0.09921370540630473    0.10237630941716216    0.12328185333381303    
  0.16480474027768827    0.22493539682380548    0.2903777237724889    0.3388802791268064    0.3558477390827037    
  0.3913573173378548    0.3927050805405262    0.3719348572447676    0.3062683911444145    0.22493523562890733    
  0.1641156946318207    0.1335914820569819    0.12936414672593544    0.14692210083441293    0.18171319251911372    
  0.2237268531232517    0.25744743344980653    0.2700924475422273    0.25744736063917006    0.22372694177576455    
  0.1817130597836931    0.14692223322589457    0.12936398974944188    0.13359161513524176    0.1641155694887674    
  0.22493543687983172    0.30626823271272013    0.37193492631353664    0.39270507124841086    0.3913573173378548    
  0.2580613306592419    0.29923589989243315    0.37365757406220435    0.3719348078521156    0.2903778510235744    
  0.21076796482386864    0.16885885108670823    0.16310056354150831    0.1874977959486581    0.23506140153859495    
  0.28905006405003375    0.3275516030712038    0.3404522377650447    0.3275516888728192    0.28905000154202043    
  0.2350615301135841    0.18749764193324922    0.16310074290263052    0.16885867888535078    0.21076817307311252    
  0.2903776223078655    0.37193497355062005    0.37365739297329503    0.2992359928840183    0.2580613306592419    
  0.10638659413224519    0.15693366200556114    0.2992358837352914    0.39270511525963486    0.33888023038640025    
  0.24897356603920387    0.19787594586759688    0.19078570114543836    0.22054812412386646    0.2769457768235503    
  0.33516166460919905    0.3686679929029984    0.3771645983418584    0.3686679047183898    0.33516179344451286    
  0.27694559181617273    0.22054825246226098    0.1907855449782637    0.19787616487606624    0.24897336904942097    
  0.3388804134794375    0.39270498056474673    0.29923599894358344    0.15693365329934716    0.10638659413224519    
  0.06186536584613099    0.10638656157518558    0.2580613817928553    0.3913572468038476    0.35584777900796577    
  0.26371783516568426    0.20926865480450868    0.20171497146681566    0.23348344784391498    0.29272636470605684    
  0.3507887356570117    0.3796947443831965    0.38519098215793307    0.37969474840417966    0.3507886495767057    
  0.292726479050426    0.23348331185681329    0.2017151354282605    0.2092684493314497    0.26371806087633826    
  0.3558475997904796    0.39135742920716704    0.25806124229238586    0.10638661415020823    0.06186536584613099    
  0.11649189250107071    0.16721435691708694    0.304095464418593    0.38515147572913067    0.3233289493976635    
  0.2289477731367976    0.17196244448738476    0.15444859554319712    0.16704426048407275    0.2021442127870707    
  0.24736168603599737    0.28478838698995285    0.29922515753894297    0.2847882950432483    0.2473618409192972    
  0.20214405451348214    0.16704443286109305    0.15444842866616362    0.17196260171325373    0.2289475742341734    
  0.3233291427189629    0.38515127182495756    0.3040955302649215    0.16721432596144406    0.11649189250107071    
  0.16795486223471978    0.2184674343506529    0.3354610762935014    0.3812053149589361    0.3077379007084609    
  0.21687824836182934    0.16346307931197163    0.1470721544496982    0.15885151399260503    0.19163509270792817    
  0.23402657226520543    0.2694509249622097    0.28322466908813326    0.26945096485114345    0.23402655717585172    
  0.19163520669564524    0.1588514025614193    0.14707230589125783    0.1634629113178882    0.21687848719222996    
  0.30773765738995534    0.3812054668567047    0.33546087820741405    0.21846749846384325    0.16795486223471978    
  0.30939857220460426    0.3399151185774931    0.3826572507130991    0.3527402245503504    0.26445107374878063    
  0.18567506901735403    0.14166570501592576    0.12820265615652515    0.1378554016925882    0.16461236126909157    
  0.19944992372416395    0.22909339657052094    0.24076620545874197    0.22909330179755868    0.19945002033368228    
  0.1646122614265257    0.13785550544075537    0.12820250375694317    0.14166584405105234    0.18567493723332162    
  0.2644512327393583    0.35274012001207045    0.3826574340551488    0.3399150934248575    0.30939857220460426    
  0.4007697147939016    0.39522318319996125    0.3612145635810545    0.2887269795127046    0.2077075923796115    
  0.14767753824602742    0.11506688370485382    0.10500449722403486    0.11204992547571672    0.1315158532786896    
  0.1568841720169311    0.17864621741593634    0.18725184036663087    0.17864629408679888    0.15688409037452888    
  0.1315159460750744    0.11204980209723901    0.10500464321809419    0.11506672865426065    0.14767769616150034    
  0.20770741288813982    0.2887271191043091    0.3612143651491097    0.3952233045426774    0.4007697147939016    
  0.3513856900658981    0.3331412386971618    0.28267677345087394    0.21662782753943605    0.1566635514855076    
  0.11466738623964674    0.09168096638585478    0.08436627354777955    0.0890958547594003    0.10234019212638823    
  0.11948392914179944    0.13411982818654344    0.13987965474231517    0.134119799030348    0.11948403871692709    
  0.10234009223041705    0.08909596946838373    0.08436614758109945    0.09168110023780951    0.11466724742997993    
  0.1566637130969227    0.21662769202438015    0.28267685833444556    0.3331411739818108    0.3513856900658981    
  0.2710239033449267    0.2553774974949448    0.21513311454395184    0.16607024051327862    0.12291417553627097    
  0.0927298467143626    0.07597457252969146    0.0703892658966314    0.07343452880421647    0.08250701122032024    
  0.0942863278635726    0.10430142761158784    0.10823047817934113    0.10430147351892859    0.09428626068487789    
  0.08250710557684265    0.07343441386656974    0.07038937670684406    0.07597446652551955    0.09272997955870241    
  0.12291403705941148    0.16607036398881128    0.21513300819170847    0.25537753439343885    0.2710239033449267    
  0.23316093020390824    0.21992331268934    0.18625146784385643    0.1453139791817768    0.10898510269817949    
  0.08340274153152433    0.06911539770102555    0.06413172842315767    0.06624690126049482    0.0733291342375527    
  0.08266581707766567    0.09063316376390688    0.09376191825398945    0.09063310221401011    0.08266589585209361    
  0.07332903300908526    0.06624698241584948    0.06413161334927941    0.06911551635940003    0.0834026238750898    
  0.10898521060715609    0.14531386297685067    0.18625153197855426    0.21992328369707936    0.23316093020390824    
  0.24675642076571228    0.23257554010329745    0.19650930293008692    0.15264347063515493    0.1137241966098405    
  0.08627160950435021    0.07081010967137558    0.06523974621133577    0.0671991338954302    0.07430987992651847    
  0.0837297963680223    0.091789774681323    0.09496446355425485    0.09178979452631023    0.08372974149843306    
  0.07430997444268106    0.0671990482548576    0.06523985589902755    0.07080998661603137    0.08627175609108081    
  0.11372405518283626    0.1526435648838842    0.19650923672673165    0.23257562839278467    0.24675642076571228    
  0.3052858435220104    0.28809327129998785    0.24295828339938796    0.18643306998615033    0.13590442551866191    
  0.10037387159830026    0.08034490921882745    0.07304781142147858    0.07540047008425418    0.08428210252804133    
  0.09609790464068144    0.10628296863532789    0.11031057982039409    0.10628292712160342    0.0960979843198552    
  0.08428201393920347    0.07540057507468263    0.07304769045729426    0.08034502874003578    0.1003737526691221    
  0.13590454066332314    0.1864329902841904    0.2429584019940461    0.2880931782575763    0.3052858435220104    
  0.3756179868669761    0.36021888063177887    0.31223524013086    0.2413473314898219    0.1726394846376347    
  0.12350490038029191    0.09605409342506546    0.0860789799502569    0.08914578130402774    0.1011844186740144    
  0.11744796594542607    0.13160484908802172    0.13723921299133024    0.13160487517455302    0.1174479069142603    
  0.10118452285257186    0.08914565860093492    0.08607910770310442    0.09605395542864059    0.12350506471782606    
  0.17263931557042866    0.24134749545533288    0.31223511793300057    0.3602189504468291    0.3756179868669761    
  0.3851461356826141    0.38687655151551087    0.3666105274031332    0.2997297716077742    0.21543806357759124    
  0.15062609739976277    0.11429117804419495    0.10117298984883788    0.1051528284114368    0.1211686207777884    
  0.14302816327331336    0.16220165452778598    0.16988338141485243    0.16220160609930095    0.1430283048417053    
  0.12116851673351316    0.10515295009288808    0.10117283913746959    0.11429131998228699    0.15062594950661704    
  0.21543819500250797    0.2997295874843668    0.3666106316059625    0.38687644083903516    0.3851461356826141    
  0.3265409833125706    0.3510055720095959    0.3790723749406179    0.3388821158045324    0.24989278132812612    
  0.17312638849262993    0.1293312286050612    0.11353463332481568    0.11828471436972779    0.13771293950046015    
  0.1644437254232288    0.18806578719803554    0.19761338645158516    0.188065823250425    0.1644436429218206    
  0.13771307247291575    0.11828458542362338    0.11353478211521492    0.12933108808858573    0.17312655595494036    
  0.24989262002182452    0.3388823118394198    0.379072217191523    0.3510056248471202    0.3265409833125706    
  0.2913076758814599    0.3245145072778497    0.37503195835405617    0.3511650865866896    0.26292010893636575    
  0.18191034348037954    0.1352203320648504    0.11835790281341238    0.12337809438340337    0.14412085767902316    
  0.17278284888035123    0.19823176680476784    0.2085675146446064    0.19823168072970898    0.1727829605323591    
  0.14412072232376658    0.12337823365023085    0.11835776316665843    0.13522047451641112    0.18191018474676157    
  0.26292024667917574    0.3511649564827558    0.3750320431331697    0.32451449367638874    0.2913076758814599    
  0.32654104508987003    0.3510055418527627    0.37907240884166576    0.3388821567465307    0.24989278719673022    
  0.17312638059568572    0.12933122746152534    0.11353464797387743    0.11828474494071471    0.13771295753694474    
  0.16444370058120716    0.1880658092048009    0.19761339673698297    0.18806583201463709    0.1644436939350584    
  0.13771309609375337    0.11828461490137601    0.11353477101575993    0.1293310755344207    0.17312657851800087    
  0.24989261339120683    0.338882299621353    0.37907220579710726    0.35100572118153156    0.32654104508987003    
  0.3851460618200335    0.3868764787312018    0.3666105064584389    0.29972978265200895    0.2154380290944122    
  0.15062610290135814    0.11429116487493853    0.1011730008851737    0.10515283425284201    0.12116862628568639    
  0.14302817535592977    0.16220170783489737    0.16988336615343477    0.16220164019337943    0.14302827015351605    
  0.12116851420238783    0.10515293267108639    0.10117284508259969    0.11429129961415543    0.15062598179955505    
  0.21543819421498353    0.2997295996747489    0.3666106874234468    0.38687640705834864    0.3851460618200335    
  0.37561807183878904    0.36021883936863186    0.31223527578936483    0.24134731825826228    0.17263950097221473    
  0.12350486053625605    0.09605411706823029    0.08607896626198136    0.08914579659014812    0.10118440187824336    
  0.11744800422807358    0.1316048112042765    0.13723921913163883    0.13160488172824072    0.11744793032359283    
  0.1011844838342619    0.0891456781379468    0.08607908447850293    0.09605398429534505    0.12350502376628864    
  0.17263933122788241    0.2413474208231286    0.3122351274493157    0.3602189001523112    0.37561807183878904    
  0.30528579329487243    0.2880933231278509    0.24295826168647552    0.18643313188609467    0.1359043991996562    
  0.100373909720657    0.08034487956312755    0.07304782974902806    0.0754004436088457    0.08428214832050941    
  0.09609788933963472    0.10628297413589671    0.1103105306512424    0.106282955876993    0.09609796201397766    
  0.08428204761473251    0.07540056676283378    0.07304771801894817    0.08034500520719386    0.100373776950049    
  0.1359045258442592    0.18643299795158516    0.24295835742225944    0.28809329126374267    0.30528579329487243    
  0.24675645429981283    0.2325754805003324    0.19650936447984732    0.15264340863760342    0.1137242177783856    
  0.08627158687677813    0.07081013480952558    0.06523971441039131    0.06719917449028608    0.07430985740438177    
  0.08372980686829977    0.09178973076136773    0.09496450066590825    0.09178975345149805    0.083729760026303    
  0.07430993662734711    0.06719906425912356    0.06523982413474085    0.07081001652514912    0.08627170491247618    
  0.11372408337857205    0.15264355014790076    0.19650926561415047    0.23257552296236608    0.24675645429981283    
  0.23316087454218248    0.21992339469720013    0.1862514345582774    0.14531399294408817    0.1089850790148036    
  0.08340277206542707    0.06911538213068714    0.06413175356295668    0.0662468759755208    0.07332914939765628    
  0.08266577053527546    0.09063317949746591    0.0937619062938669    0.09063313810744962    0.08266588053761481    
  0.07332904295913903    0.066246957515216    0.06413164188221367    0.06911548993021616    0.08340265149376978    
  0.10898519758329589    0.14531388919531887    0.1862514972592155    0.2199233327524216    0.23316087454218248    
  0.271023953836742    0.25537745675270895    0.21513315611698466    0.16607020866921346    0.12291421277254189    
  0.0927298132731386    0.07597461178587635    0.07038923462536355    0.07343454993236743    0.08250699732566881    
  0.09428635747825012    0.10430142004288474    0.10823049730457808    0.10430141055669641    0.09428630065439042    
  0.08250707854140307    0.07343445167941097    0.07038936487351623    0.07597447443354016    0.09272997114965278    
  0.12291406977690052    0.16607032345071318    0.21513300584861697    0.2553775375324892    0.271023953836742    
  0.35138564626988095    0.33314126041503483    0.2826767120927677    0.21662784168179805    0.15666351971994955    
  0.11466739766435352    0.09168094529169944    0.08436628403669082    0.08909584925958645    0.1023402068438132    
  0.11948391814419117    0.13411987979717677    0.13987964727491584    0.13411982588636867    0.1194840074981329    
  0.10234011966731257    0.08909593291060793    0.08436616673558774    0.09168108260788375    0.11466725852765397    
  0.15666366554469524    0.21662772852032716    0.2826768468011872    0.3331411504561796    0.35138564626988095    
  0.40076976832260597    0.39522320260495875    0.3612146165119674    0.28872693579408065    0.20770760739634117    
  0.1476775287633072    0.1150668946327079    0.10500449077791006    0.11204996530175292    0.13151581637256002    
  0.15688419411229443    0.17864621320993967    0.18725190145624662    0.17864626122680863    0.15688412260504586    
  0.13151591627973713    0.11204984196844225    0.10500461663453568    0.11506674031441029    0.14767767629050313    
  0.20770745812028915    0.2887270894082779    0.3612143901119424    0.39522326342806907    0.40076976832260597    
  0.3093985212879204    0.3399152032417802    0.382657225642726    0.35274026418964355    0.26445103837923306    
  0.1856750978689036    0.14166567432886562    0.1282026767127329    0.1378553630789908    0.16461237319863117    
  0.19944986360999314    0.22909337405976882    0.2407661447134131    0.22909337076385222    0.1994500217202585    
  0.16461225947870953    0.13785551187869838    0.12820251554534481    0.1416658303100452    0.18567495068276038    
  0.26445120557504015    0.352740120862097    0.38265730916872515    0.3399151415815295    0.3093985212879204    
  0.167954894296856    0.21846736360078178    0.3354610800253842    0.3812052567462215    0.3077378849519838    
  0.21687825953933243    0.1634630987392094    0.14707213791533616    0.1588515455182083    0.19163505362652286    
  0.2340266346326826    0.2694509125276757    0.28322469432970937    0.269450942882999    0.23402652310252073    
  0.19163519408492888    0.15885137980504246    0.14707229836357044    0.1634629265219874    0.2168784489804384    
  0.307737682602918    0.381205527112147    0.3354609316205973    0.21846746762451874    0.167954894296856    
  0.11649189250107071    0.16721435691708694    0.304095464418593    0.38515147572913067    0.3233289493976635    
  0.2289477731367976    0.17196244448738476    0.15444859554319712    0.16704426048407275    0.2021442127870707    
  0.24736168603599737    0.28478838698995285    0.29922515753894297    0.2847882950432483    0.2473618409192972    
  0.20214405451348214    0.16704443286109305    0.15444842866616362    0.17196260171325373    0.2289475742341734    
  0.3233291427189629    0.38515127182495756    0.3040955302649215    0.16721432596144406    0.11649189250107071    
  0.29130864612088764    0.32451344734736687    0.37503313067481114    0.35116392126232315    0.26292113588441546    
  0.18190941960817505    0.13522114830708745    0.11835716846774473    0.12337879709264983    0.1441201003077425    