#     DFTpy    
  CRYSTAL 
    
  PRIMVEC    
  6.037379310344827    0.0    0.0    
  0.0    6.037379310344827    0.0    
  0.0    0.0    3.3262068965517235    
  PRIMCOORD    
  4    1    
  Si    0.0    0.0    0.0    
  Si    3.0186896551724134    3.0186896551724134    1.6631034482758618    
  Si    0.0    3.0186896551724134    0.8315517241379309    
  Si    3.0186896551724134    0.0    2.494655172413793    
  BEGIN_BLOCK_DATAGRID_3D    
  3d_datagrid_density    
  BEGIN_DATAGRID_3D#0    
  27    27    15    
  0.0    0.0    0.0    
  6.037379310344827    0.0    0.0    
  0.0    6.037379310344827    0.0    
  0.0    0.0    3.3262068965517235    
  0.06770563983775776    0.117382932708152    0.2791105740009996    0.39238646860997745    0.3181979442800809    
  0.20383347659319664    0.13643034436115226    0.11359184015287993    0.12389820741151825    0.16405169716969978    
  0.2293922559272072    0.3006752041847056    0.34963827782136636    0.3651080974423364    0.34963822012656226    
  0.30067517538449134    0.22939219498273647    0.16405170348926676    0.12389818757590448    0.11359183784191734    
  0.13643033976114216    0.20383350186178845    0.3181978621139536    0.3923864760282461    0.27911061262749454    
  0.11738295458672993    0.06770563983775776    0.11738292081398004    0.17303016087913303    0.3205412990568956    
  0.38999722276401627    0.30135728178516263    0.19229533008834812    0.12960353524872295    0.10840865439590355    
  0.11805274581284302    0.15545879844667634    0.21663861397455633    0.28495536726722803    0.334064460200394    
  0.3504141935451784    0.33406444647932204    0.28495537663873227    0.21663860873406302    0.1554588240383082    
  0.11805277834596577    0.10840868417800319    0.1296035058377487    0.1922953608926503    0.3013572897800438    
  0.3899971509496739    0.3205413015924751    0.17303016254831435    0.11738292081398004    0.27911055312427163    
  0.3205412113193053    0.3859424817150323    0.3584672731943031    0.25388014055290314    0.16238633355431623    
  0.1120009365507713    0.09493380768505062    0.10284954312514187    0.133050351156076    0.18268424373878467    
  0.24033816437846492    0.2853619553221582    0.3017581772147685    0.28536197667084    0.24033811504876912    
  0.18268434411700157    0.13305032667908603    0.1028495301481929    0.09493380070637758    0.11200096817028074    
  0.16238633716200915    0.253880145888136    0.3584672917338563    0.3859425235952977    0.3205412457184916    
  0.27911055312427163    0.39238649288219496    0.38999720059950316    0.3584672235667701    0.27987579133550633    
  0.19037506663119586    0.1253893670364241    0.09009259264131594    0.07796051076580626    0.08366574980309273    
  0.10500040622482458    0.13974917868228595    0.1807169655373755    0.21433555893566536    0.22732288156948105    
  0.21433561323283462    0.1807169448044599    0.13974920113922565    0.10500039525741374    0.08366573080684209    
  0.07796048578268804    0.09009262359731547    0.1253893556967155    0.19037508399602282    0.2798757967623932    
  0.3584672859960576    0.389997107054794    0.39238649288219496    0.318197919540669    0.30135732620011263    
  0.2538801444210717    0.190375074378745    0.1325230465033154    0.09230001160792463    0.06998600463802213    
  0.06209148584454069    0.06572844588193033    0.07925726006198391    0.10087403770360139    0.12592942767252988    
  0.146540678790439    0.15463006209821809    0.14654064841330747    0.12592942136801002    0.10087406749329059    
  0.07925724782148676    0.06572843286642693    0.06209149338138275    0.06998601077500677    0.09230001626653592    
  0.1325230247805627    0.19037506764665652    0.25388015991497503    0.30135728333833156    0.318197919540669    
  0.20383348600687248    0.1922953502847034    0.1623863387009075    0.12538936486482277    0.09230003127430363    
  0.06868012217925654    0.055079200079199864    0.05007220826150491    0.05210998424516103    0.06009408729810722    
  0.07261537922402299    0.0867068692035844    0.0980326214295946    0.10242955397142503    0.09803259266097901    
  0.08670686895197459    0.07261541169363092    0.060094099062540804    0.052109974531403716    0.05007220887209974    
  0.055079200948552454    0.06868011064930217    0.0923000129095337    0.1253893757913969    0.1623863781937678    
  0.19229530349237814    0.20383348600687248    0.13643037003765834    0.1296034997315592    0.1120009229987813    
  0.09009261328938661    0.0699860070161619    0.05507917941574861    0.04616919925775332    0.04261384958685199    
  0.04356824162449701    0.04825324771253265    0.05555077711966135    0.06360459822075143    0.06992227792784121    
  0.07231109011550177    0.06992226627637914    0.06360458697705842    0.05555078863629527    0.048253248573977725    
  0.04356823005113083    0.0426138561810298    0.046169208553076116    0.055079185120953326    0.06998598253906313    
  0.09009260390778837    0.11200094844001982    0.12960350920527292    0.13643037003765834    0.11359184691158809    
  0.10840865453894952    0.09493378483303158    0.07796051019003603    0.062091482149085504    0.05007219204353309    
  0.042613869004175894    0.03929854975313511    0.03955144249900602    0.04265759647826976    0.04758740942165772    
  0.05299271764463481    0.057169306458094746    0.05871453960898512    0.05716931168241746    0.0529927079582762    
  0.04758741706902954    0.04265761449889376    0.039551422262373764    0.03929855171802212    0.04261386524560392    
  0.050072197770406786    0.062091481340859914    0.07796049494299807    0.09493380283292736    0.10840866001385727    
  0.11359184691158809    0.12389821985374594    0.11805280553304233    0.10284955788423335    0.08366573317445364    
  0.06572844395729416    0.0521099818611447    0.04356825874659519    0.03955143720383382    0.039277028012438396    
  0.041885075791387734    0.046313052026802054    0.05122711212137923    0.055038026366946546    0.056462803409142344    
  0.05503803207534139    0.05122709345914101    0.04631307334324748    0.041885067051253555    0.03927703654584936    
  0.03955143227200704    0.04356825146845933    0.05210996947606494    0.06572842591869493    0.08366572442205557    
  0.10284955777304221    0.11805277821178066    0.12389821985374594    0.16405165925948814    0.15545882390355567    
  0.1330503287248131    0.10500041569291282    0.07925729002147013    0.0600940839180829    0.048253263276815096    
  0.042657619006290205    0.04188507397677562    0.04469831941368141    0.04988408480950844    0.05579427504164969    
  0.06050310768584323    0.062322703541538314    0.06050310371850298    0.05579426180412906    0.04988410526693166    
  0.04469830480040299    0.04188509253703936    0.04265762192244822    0.04825326953349692    0.06009408835401509    
  0.07925728940311132    0.1050004281853262    0.1330504048498852    0.15545883461434576    0.16405165925948814    
  0.22939221979913035    0.21663865549642133    0.18268425327117185    0.13974917900607872    0.10087405417475714    
  0.07261540548180936    0.05555079807163568    0.047587418637567366    0.046313065391797525    0.04988407491447311    
  0.05674450844196195    0.06476920662559815    0.07128828328394651    0.07383894524592204    0.07128829360636342    
  0.06476925914114202    0.05674455801692094    0.049884078995387604    0.04631306668678344    0.047587424900669015    
  0.05555080851788183    0.07261538801761559    0.10087402763059469    0.139749115100553    0.18268431414811098    
  0.21663859865193563    0.22939221979913035    0.3006751810899596    0.28495533670226325    0.24033815112604268    
  0.18071691497932635    0.12592946873505143    0.08670685757306902    0.06360458860714834    0.0529927191334803    
  0.051227114104317184    0.05579429659048678    0.06476924433237019    0.07548312503717827    0.08425752822098463    
  0.08767912424228574    0.08425757308170458    0.07548311317979277    0.06476923202723199    0.05579425670325102    
  0.05122709041435875    0.052992720403264186    0.06360461104474643    0.0867068562616301    0.12592942181958486    
  0.1807168898290027    0.24033818598735399    0.28495530897923    0.3006751810899596    0.34963820178454974    
  0.33406446700486975    0.28536199858663647    0.21433561636109738    0.1465407125401971    0.09803261337838909    
  0.0699222924251541    0.057169278666103863    0.055038060088540425    0.06050314658609296    0.07128829329296317    
  0.08425753999109543    0.09497242876421316    0.09917523182920197    0.09497241825696748    0.08425750780007274    
  0.07128828135465068    0.06050310899708646    0.05503805220385692    0.05716933553415607    0.0699222761922299    
  0.09803264134639267    0.14654066450035327    0.21433562391215405    0.28536205447109164    0.33406442181854973    
  0.34963820178454974    0.36510797050827054    0.35041416851866547    0.30175820284201754    0.2273228155555521    
  0.1546300585682675    0.10242950724398545    0.07231107460896866    0.05871450400073688    0.05646276796200919    
  0.062322723552464536    0.07383896875401033    0.08767910715804172    0.09917521140794558    0.10369841256088871    
  0.09917517784783889    0.08767909364363848    0.07383894958931013    0.062322716009168146    0.056462767643323176    
  0.0587145190355153    0.07231108489572396    0.10242951878973132    0.15463003766861247    0.22732278463017955    
  0.3017581862398835    0.35041420323232364    0.36510797050827054    0.34963821826867386    0.33406448483278045    
  0.2853619846317778    0.21433560974838298    0.14654069889122898    0.09803260840190148    0.06992230255830205    
  0.057169304879904355    0.055038042434138235    0.06050312085768311    0.07128826583369023    0.08425756627629476    
  0.09497243885714458    0.09917520600212945    0.09497242659045775    0.08425754374539725    0.07128829934214072    
  0.06050312633172857    0.05503805524629009    0.05716930806395789    0.06992227939473847    0.09803262567118184    
  0.14654068674475085    0.21433561652990749    0.28536201570673714    0.3340645403960072    0.34963821826867386    
  0.3006752353413127    0.28495538466956594    0.24033810845675907    0.18071691442911147    0.12592942177844918    
  0.08670686184166392    0.06360460274587289    0.05299270192486428    0.05122708793879684    0.055794276364918544    
  0.06476923760935435    0.0754831237987017    0.08425753570317457    0.08767909497883722    0.08425753607659217    
  0.07548314279851835    0.06476924848806147    0.05579424839244788    0.05122709961021797    0.052992715035889995    
  0.06360459439645715    0.08670685360834313    0.12592944023662392    0.18071691285449876    0.24033818356186565    
  0.28495536029700685    0.3006752353413127    0.2293921854266361    0.2166386710437738    0.18268422352303282    
  0.13974916245758082    0.10087404298996111    0.07261540050482788    0.05555079473053747    0.047587418558547735    
  0.046313064062535186    0.04988408710162417    0.0567445356248667    0.06476922229522343    0.07128827473676909    
  0.07383895310676174    0.07128830761802586    0.06476921046830246    0.05674456039485306    0.04988407599680116    
  0.0463130600687477    0.04758740742219897    0.05555081806621149    0.07261539916445707    0.10087405471101688    
  0.13974912979543277    0.1826842572859156    0.2166385478764646    0.2293921854266361    0.164051691511214    
  0.15545888344524572    0.1330503583559904    0.1050004334904748    0.07925729298771102    0.06009409267321839    
  0.04825324949144756    0.042657603208951164    0.04188507941028737    0.04469831366236188    0.04988408102593091    
  0.05579429443786239    0.06050312725904043    0.06232270258153103    0.060503125489304505    0.055794270138882066    
  0.049884098417190735    0.04469830752353439    0.041885084968172684    0.04265761746533971    0.04825326810973664    
  0.06009409636011399    0.07925728124254612    0.10500042484563135    0.13305040245624172    0.1554588594973002    
  0.164051691511214    0.12389821523052764    0.1180528042920067    0.10284955852745184    0.08366573466168369    
  0.06572844152865052    0.05210997134321177    0.043568249764827906    0.03955143550474079    0.0392770274363102    
  0.041885073905596114    0.04631304046237049    0.051227101192856894    0.05503804579579608    0.056462812690047604    
  0.055038024924545674    0.05122711247782221    0.04631306434361602    0.041885076625994264    0.039277026825075716    
  0.0395514374663057    0.043568240540509125    0.05210997468531169    0.06572842928863643    0.08366571145750319    
  0.10284956762409876    0.11805275572373977    0.12389821523052764    0.11359183084423641    0.10840864215737513    
  0.09493377947613994    0.07796051019897368    0.06209146578641973    0.05007218314272803    0.04261386707562046    
  0.039298560231012365    0.0395514432355239    0.04265760557271751    0.047587402703402296    0.05299271517348644    
  0.05716930939108111    0.05871451773154086    0.05716930334929446    0.05299270953651599    0.04758742074979747    
  0.04265761594175996    0.03955142496310505    0.039298554023486414    0.0426138665217231    0.05007219640084877    
  0.06209148504202992    0.07796051186054707    0.09493379904172533    0.1084086543503418    0.11359183084423641    
  0.13643037042122386    0.1296035010402241    0.1120009128243828    0.09009261215390935    0.06998597939963772    
  0.05507918599461544    0.046169201591133475    0.042613852436612996    0.043568255589649156    0.048253239703803415    
  0.05555078208516864    0.06360460507671967    0.06992227463263129    0.07231111427846604    0.06992227389631314    
  0.06360459150703725    0.05555078375552902    0.04825325025973725    0.04356822622935424    0.04261385857664799    
  0.0461691957080051    0.05507919388261016    0.06998598955748586    0.0900926007021332    0.11200096035480599    
  0.1296035093642786    0.13643037042122386    0.203833483628479    0.19229534692836056    0.16238634200450777    
  0.12538939474891928    0.0923000177383284    0.06868012716152284    0.05507920277078318    0.05007219899250228    
  0.052109971573180744    0.060094084221579476    0.07261539310047452    0.08670686677594817    0.0980326315941898    
  0.10242955222264584    0.09803259984315704    0.08670686549264019    0.07261542475478573    0.06009409605768043    
  0.052109971756249776    0.05007219503045275    0.05507920838325459    0.0686801325577506    0.09230001229524211    
  0.12538936023353578    0.16238635137706964    0.19229532880453656    0.203833483628479    0.31819788558869927    
  0.30135730543649103    0.2538800789576362    0.19037508928150582    0.13252304618214047    0.09230000251144807    
  0.06998598232592498    0.062091493222163036    0.06572843394160578    0.07925728691005036    0.10087402876706768    
  0.12592943487165523    0.14654064776991635    0.1546300409906966    0.1465406778140793    0.12592942375859476    
  0.1008740729536263    0.07925725761774574    0.06572844364491742    0.06209148864492799    0.0699860157758081    
  0.09230000664279402    0.13252303679124322    0.1903750840611479    0.25388015926920354    0.30135725964230853    
  0.31819788558869927    0.39238647446870495    0.3899971689368937    0.3584671765623861    0.2798758934135594    
  0.19037508904065895    0.12538935837221976    0.09009262884262988    0.0779605015930688    0.08366574808622582    
  0.10500043454988456    0.1397491645147012    0.18071695040728764    0.2143355505050733    0.22732283179571297    
  0.21433558358483026    0.18071693891156018    0.13974915959448633    0.1050004045123417    0.08366573197235389    
  0.07796050004194445    0.09009262629385957    0.12538936908825196    0.19037509448695117    0.2798757915753626    
  0.35846732108218227    0.3899971812599845    0.39238647446870495    0.27911057146908896    0.3205411852664258    
  0.3859424223036651    0.3584672440121072    0.2538801680460017    0.16238633512034265    0.11200094256952485    
  0.09493380727061565    0.10284954862844707    0.13305033108591102    0.18268427647260901    0.24033809371599976    
  0.2853619236411978    0.301758163048859    0.2853619819500456    0.24033812727701884    0.1826843105580797    
  0.1330503553952181    0.10284953147453375    0.09493379464446218    0.11200097804565416    0.16238629753960312    
  0.25388008646343174    0.35846720203971505    0.3859425950128993    0.32054121525616375    0.27911057146908896    
  0.11738292697990531    0.17303014100715935    0.32054124412434487    0.38999724381066564    0.30135722756838634    
  0.19229531949518858    0.12960353168745786    0.10840865233135992    0.11805277605016307    0.15545879788398345    
  0.21663863747682666    0.28495531794474455    0.3340644358088876    0.35041413917212766    0.33406441452202085    
  0.2849552858733109    0.21663864184227222    0.15545881329328798    0.11805277412891348    0.10840867335885464    
  0.12960351719233093    0.19229532737733035    0.30135727421316694    0.38999705730620804    0.32054136142337547    
  0.17303019032931607    0.11738292697990531    0.06770563983775776    0.117382932708152    0.2791105740009996    
  0.39238646860997745    0.3181979442800809    0.20383347659319664    0.13643034436115226    0.11359184015287993    
  0.12389820741151825    0.16405169716969978    0.2293922559272072    0.3006752041847056    0.34963827782136636    
  0.3651080974423364    0.34963822012656226    0.30067517538449134    0.22939219498273647    0.16405170348926676    
  0.12389818757590448    0.11359183784191734    0.13643033976114216    0.20383350186178845    0.3181978621139536    
  0.3923864760282461    0.27911061262749454    0.11738295458672993    0.06770563983775776    0.12019958235298775    
  0.1761736468791363    0.3233099869807412    0.3903722099057487    0.298846488037434    0.18703864170818202    
  0.12072831205569237    0.09371788465924293    0.09307763287087527    0.11266434426716768    0.14833179947032407    
  0.1916358963378849    0.22772501837972903    0.24171451915302095    0.22772502006004805    0.19163590272742206    
  0.14833178340328124    0.11266432692246472    0.09307762503400575    0.09371789023958171    0.12072830741490151    
  0.18703866910236924    0.29884636781237306    0.39037215549024396    0.3233100508893585    0.17617370978939983    
  0.12019958235298775    0.1760757383400122    0.2314491757790644    0.3542018177756603    0.38269488218650843    
  0.2824415291927358    0.1766571234510803    0.11504524209192812    0.08992205662488785    0.08936776175070431    
  0.10764164227949828    0.1408578603102855    0.18126352977594135    0.21500574165078634    0.2281081428695439    
  0.21500576522584414    0.18126354374159942    0.1408578838078858    0.10764166547575148    0.08936779704097826    
  0.08992208098087487    0.11504520413266754    0.1766571041114684    0.28244152338225054    0.38269485893979427    
  0.3542018052195413    0.23144918058525152    0.1760757383400122    0.32282547340436857    0.35381665762292724    
  0.3909123834529883    0.34295735228075    0.2375090092592236    0.14993396652778238    0.10034694321553166    
  0.07996744784021216    0.07958241503413538    0.0944969709340121    0.12137817792500134    0.15400785298184141    
  0.18137816167706172    0.19207959520239734    0.1813781364362278    0.15400782978588248    0.12137822210827566    
  0.09449695209987098    0.07958238287294914    0.07996744875352257    0.10034695375674678    0.14993395465182724    
  0.23750901506848973    0.34295731077501435    0.390912450197629    0.3538166942569564    0.32282547340436857    
  0.39120291291967246    0.3835513923251614    0.34380413247250996    0.264403154455189    0.17893189728974143    
  0.1169447182896971    0.08196180189988075    0.06729019800728933    0.0670450323370386    0.07783424775893012    
  0.09698831993576158    0.11988945551378596    0.13903793880342763    0.1465927662787797    0.13903794913585316    
  0.11988947671992724    0.09698837001721523    0.07783424070269739    0.0670450260102671    0.06729018160795087    
  0.08196181604735152    0.11694471359122481    0.17893186994346372    0.264403162423563    0.34380425961479383    
  0.383551301735837    0.39120291291967246    0.3045896581600481    0.287807516872434    0.2416879171439145    
  0.1812994417423294    0.12633001373040056    0.08749457959406833    0.06503429343338801    0.05537555842306884    
  0.05518044303958664    0.06225572143077273    0.07465084370304027    0.08911041641649481    0.10097175068140295    
  0.10563484949523852    0.10097177248279358    0.08911042601543893    0.07465088835032042    0.06225570349455839    
  0.05518043359265157    0.05537556335621671    0.06503431416646717    0.08749457229564736    0.12633000809762834    
  0.1812994495118864    0.24168794647160885    0.28780745013898645    0.3045896581600481    0.19956431326157165    
  0.18826964692998308    0.15902879243793058    0.12289414319984865    0.09041481612687424    0.06682436291628062    
  0.05267290315053116    0.04638721772662742    0.04615387768978976    0.05057080908722637    0.0582459766756396    
  0.06698383485099528    0.07396226609509027    0.07665469636981641    0.07396223950989632    0.06698383017412944    
  0.05824600003261841    0.0505708212151466    0.04615387449940486    0.04638722875312932    0.052672891482288924    
  0.06682434680800527    0.0904148021047745    0.12289415035341056    0.15902880404055025    0.18826962661116914    
  0.19956431326157165    0.14271424070085464    0.1354444895300946    0.11659616009133832    0.09315775504102913    
  0.07171473099061729    0.05571524854800953    0.045784877097169746    0.04114758300436889    0.0407625245113878    
  0.04364860067541773    0.048658826861664964    0.0542746588241875    0.058671678340721865    0.0603303182063345    
  0.058671680759917244    0.05427464998797306    0.04865883750563021    0.04364860451321434    0.0407625100951771    
  0.041147582354281655    0.04578487757230133    0.0557152555477332    0.07171471481239831    0.09315774866169473    
  0.11659616198115712    0.1354445056794496    0.14271424070085464    0.13119659525140817    0.1247623872287276    
  0.10805305224492345    0.08713789124107878    0.0678343121736262    0.053284710138366484    0.04411112753670702    
  0.039620883775581    0.03895287468501869    0.041192950220872056    0.04523127560431191    0.04976167194621959    
  0.05328096322808352    0.05459256127731054    0.05328096880757876    0.04976166621962131    0.04523129052173013    
  0.04119296831794389    0.038952851193820345    0.039620882600143036    0.04411111830783383    0.05328472347700663    
  0.06783429818611168    0.08713786803665996    0.10805308433988309    0.12476240747387454    0.13119659525140817    
  0.15913560728726017    0.15074484125090384    0.12905586287511797    0.10206456107837493    0.0772761781726458    
  0.05876849238202348    0.047220753133252046    0.041552505295858855    0.040421491320805275    0.04264676975841826    
  0.04702971316735551    0.052055799927764344    0.05601172487348957    0.05751016541028082    0.056011701499373394    
  0.05205578452355463    0.04702972933098472    0.04264677313862454    0.040421492699891426    0.041552505067373624    
  0.0472207448145654    0.058768466543699806    0.07727616382704075    0.10206454755814112    0.12905589737516585    
  0.1507448024789704    0.15913560728726017    0.22801471346995783    0.2150106422644688    0.18098521540989104    
  0.1383990097400041    0.09980454467267329    0.07173135943608175    0.05468768533938812    0.04645937300483938    
  0.04463916244692615    0.04741735928790064    0.05324504572690701    0.06011500464028922    0.06567720484752569    
  0.06784361510727456    0.0656772141830628    0.06011502547854624    0.05324507209730582    0.04741734648183932    
  0.0446391677060236    0.04645938324419076    0.054687710685381086    0.07173134842570844    0.09980454731389314    
  0.1383990344002904    0.18098527427762517    0.2150106173830527    0.22801471346995783    0.322832761434767    
  0.3063770003448967    0.2590054337276183    0.19431794499468755    0.13407500303052367    0.09093974691014671    
  0.06546735617239799    0.053416644857375836    0.050699897724825804    0.05450912489680767    0.0626926890265804    
  0.0725749050956786    0.08073922861027534    0.08395458598828337    0.08073926132665481    0.07257495979018846    
  0.0626927134492233    0.05450910071691907    0.0506998908905874    0.05341665286077253    0.06546737446796763    
  0.09093972908960635    0.13407500198200364    0.19431792030821748    0.2590055360062686    0.3063769457196852    
  0.322832761434767    0.387041568475301    0.378072114463641    0.3361294787603841    0.2569615382253558    
  0.1733922162576947    0.11247472948366763    0.07724309761320873    0.060912501186101156    0.05720467865426396    
  0.06219020189841199    0.07309630027635697    0.08654851577808058    0.09777316345151782    0.10217228519721128    
  0.097773178858537    0.08654853047244135    0.0730962852278057    0.06219017507111761    0.05720464932254796    
  0.060912501969088    0.0772431267491385    0.11247472946277372    0.17339220271843495    0.2569615419884221    
  0.3361295623359308    0.3780720257485449    0.387041568475301    0.38403661489374785    0.39210398042068506    
  0.3787316234314154    0.3041357191973801    0.20544005082719483    0.1299300609093127    0.08653043023912284    
  0.0667027775740412    0.062221631553065766    0.06823021259125879    0.0814151789902789    0.09779843140539105    
  0.11158046519039932    0.11699106661433864    0.11158043483118425    0.09779843537828777    0.08141520984462224    
  0.06823017509577481    0.06222161146384981    0.06670281439327709    0.08653042495642234    0.12993007578657056    
  0.20544004346372136    0.30413571828680025    0.3787317307178649    0.39210399409003854    0.38403661489374785    
  0.36820477286877035    0.3847812838593129    0.3884279803481043    0.32090447573665726    0.21790877774983802    
  0.13675359029216785    0.09006971937743291    0.06885102214076043    0.06408886179251799    0.07054791861080838    
  0.08466491555599463    0.1021858423387128    0.11697932022827809    0.12282565902992697    0.11697930569249974    
  0.10218581940268821    0.08466487234050477    0.07054791123585358    0.0640888588876885    0.06885104159874879    
  0.09006971847912056    0.13675360411219403    0.21790870912118868    0.32090447275966827    0.38842796472650604    
  0.38478129032530217    0.36820477286877035    0.38403665272589343    0.39210403224553814    0.3787316154968848    
  0.3041357188980286    0.20544008703017994    0.12993006544939617    0.08653044318132172    0.0667028074218913    
  0.06222160963030902    0.06823019210496105    0.0814151906782169    0.0977984558330857    0.11158049153546484    
  0.11699102903801359    0.1115804479644446    0.09779842814320233    0.08141520387696158    0.06823020352160429    
  0.06222161649282954    0.06670281432968073    0.08653043394955486    0.12993008801608752    0.205440065625168    
  0.30413571922598326    0.3787316257659427    0.3921040675888014    0.38403665272589343    0.3870415276505718    
  0.3780721340418479    0.33612947319837555    0.2569614895111996    0.17339220261288757    0.11247472458231063    
  0.0772431139869204    0.060912486295663586    0.057204666306207116    0.06219018242678675    0.07309630807453514    
  0.08654851832635545    0.09777315811357154    0.10217228253976253    0.09777316146147322    0.08654856725617129    
  0.07309629994729414    0.06219017661876254    0.05720464039843103    0.06091249442066399    0.07724310374062557    
  0.11247471565747884    0.1733922218655089    0.25696153387252624    0.3361295248275178    0.37807208388962094    
  0.3870415276505718    0.32283273748842767    0.3063770374766164    0.2590054672892364    0.19431790734033616    
  0.1340750154584744    0.0909397442344906    0.06546735809232887    0.05341664006230905    0.050699904850117494    
  0.05450913078919184    0.06269269799808139    0.0725749183054153    0.08073921264450615    0.08395457756385577    
  0.08073924164572531    0.07257491340743563    0.06269273888563014    0.05450910957167375    0.0506998840406672    
  0.053416639162413515    0.06546738269934459    0.09093975215077654    0.1340750084760883    0.1943179550611501    
  0.2590055007916881    0.30637689217499964    0.32283273748842767    0.2280147760243967    0.21501068419508385    
  0.18098526367674944    0.13839904760486565    0.09980455538929743    0.07173136637544926    0.05468768374345913    
  0.04645937367934263    0.04463917449272106    0.04741735677386848    0.053245032927406365    0.060115020725373745    
  0.06567722860264778    0.06784359355376539    0.06567722607920363    0.06011501470296601    0.05324504659340371    
  0.04741734692729952    0.04463917111229853    0.04645939144010631    0.0546877029180435    0.07173136008421883    
  0.09980454106740978    0.1383990156985879    0.1809853077438912    0.2150106561599537    0.2280147760243967    
  0.1591355879863429    0.15074485071735472    0.1290558890117088    0.10206456099810766    0.07727617096102354    
  0.05876847818525972    0.04722075141087807    0.04155250224363556    0.040421489569125196    0.042646772956401506    
  0.047029705198045994    0.05205580087708135    0.056011723441197196    0.05751018721874273    0.05601171013600895    
  0.05205579764000399    0.04702971711885674    0.042646790534240794    0.040421481311171965    0.04155250853376992    
  0.04722074876318663    0.05876847023156997    0.07727616860199892    0.1020645492410515    0.12905587503175864    
  0.1507448050073967    0.1591355879863429    0.13119659358647728    0.12476240003063502    0.1080530431248614    
  0.08713788134120083    0.06783430111452768    0.05328471282848633    0.044111129402762204    0.03962088435134056    