#     DFTpy    
  CRYSTAL 
    
  PRIMVEC    
  5.042206896551723    0.0    0.0    
  0.0    5.042206896551723    0.0    
  0.0    0.0    2.777931034482758    
  PRIMCOORD    
  4    1    
  Si    0.0    0.0    0.0    
  Si    2.5211034482758614    2.5211034482758614    1.388965517241379    
  Si    0.0    2.5211034482758614    0.6944827586206895    
  Si    2.5211034482758614    0.0    2.0834482758620685    
  BEGIN_BLOCK_DATAGRID_3D    
  3d_datagrid_density    
  BEGIN_DATAGRID_3D#0    
  23    23    13    
  0.0    0.0    0.0    
  5.042206896551723    0.0    0.0    
  0.0    5.042206896551723    0.0    
  0.0    0.0    2.777931034482758    
  0.056226517886541746    0.09943097940231582    0.253101557023549    0.40363628925585315    0.39533009654136203    
  0.32808619759919694    0.29501556816430685    0.3079832483914818    0.34986812652694116    0.38483075216867596    
  0.38807570574387656    0.38168147714674605    0.38807574411855916    0.38483081768737887    0.3498681473627814    
  0.30798322442434894    0.2950155375622788    0.32808619789161464    0.39533008734812797    0.4036363244601357    
  0.25310156819326335    0.09943097744305389    0.056226517886541746    0.09943098602360227    0.14935448747009727    
  0.29511962117494933    0.40453231521047445    0.3746763669611391    0.3073608983064236    0.27606075884034253    
  0.2883561480501017    0.3295234358910967    0.3689421190990977    0.38184338025798237    0.38067162677635585    
  0.3818434087073953    0.3689421173462479    0.3295234791644031    0.28835613024886    0.27606073020102456    
  0.3073609077824501    0.3746763952403236    0.404532353758442    0.2951196674845438    0.1493544944982134    
  0.09943098602360227    0.2531015904006517    0.29511966705006776    0.37442093068718063    0.3841060821768712    
  0.3186716269176854    0.2554420235119014    0.22879643468696986    0.23902737544088518    0.27614343050853274    
  0.3198810811554772    0.3482541933447555    0.3565007559024062    0.34825418086898824    0.3198810874474451    
  0.276143430920939    0.2390273682086937    0.22879643054511287    0.25544201692698837    0.3186716757543532    
  0.3841060921375425    0.37442091911824066    0.2951196865056777    0.2531015904006517    0.4036362875698375    
  0.40453231747195456    0.3841060267207293    0.3216586964808923    0.24706001778982747    0.1951801475565282    
  0.1745801859938448    0.18201963409392227    0.21117405470290168    0.24982748039522276    0.2815262423306928    
  0.2935829112621108    0.2815262588058026    0.24982751057284425    0.2111740645650216    0.18201963290895481    
  0.1745801696298426    0.1951801633486975    0.24706003436665733    0.3216587350427904    0.3841060868793348    
  0.4045323522777145    0.4036362875698375    0.39533011673132273    0.3746763810758533    0.3186716345081638    
  0.24706000855762328    0.1849181567081941    0.14584697432381738    0.13054849155525283    0.13554119700754858    
  0.1563811792166734    0.1853108529324049    0.21076732931514572    0.22102811965433306    0.2107673501846202    
  0.1853108031598763    0.15638117459206582    0.13554118141195115    0.13054848269262911    0.14584699108407548    
  0.18491813563781972    0.24706004293421477    0.31867161614078937    0.3746763506519241    0.39533011673132273    
  0.32808619050489485    0.3073608565559427    0.2554419446081592    0.19518011997704496    0.14584698683126884    
  0.11525853861495661    0.10314185766077064    0.10645778243084696    0.12158585179595244    0.143018167920517    
  0.16208493400779125    0.16975264406141924    0.1620849496768448    0.14301817507505468    0.12158585550512896    
  0.10645778900542126    0.10314184292270114    0.11525856356926326    0.14584698523380196    0.19518011536419255    
  0.2554419538207004    0.30736089277105466    0.32808619050489485    0.2950155536352072    0.27606075022466314    
  0.22879638508173858    0.1745801483288132    0.1305484524773643    0.1031418550732071    0.09201956830812838    
  0.09433547072162245    0.10684444980069199    0.12495605165389023    0.14111798550544724    0.14757264620070573    
  0.14111800066062444    0.12495604739833317    0.10684445311840085    0.09433545905881614    0.09201955867053226    
  0.10314186438543306    0.13054846817526186    0.17458014710475378    0.22879641275291057    0.2760607561893083    
  0.2950155536352072    0.30798325630060575    0.2883561504724883    0.2390273825655552    0.18201963426537532    
  0.13554120943797662    0.10645780492959561    0.09433548909726405    0.09624495670534701    0.10892134136050595    
  0.12751580657216838    0.14419718509100188    0.1509199525773369    0.14419719027718192    0.12751579494190082    
  0.10892135340593524    0.09624495950031153    0.09433547608878012    0.1064578225047417    0.13554118911577268    
  0.1820196711257746    0.2390273679065828    0.28835616056747526    0.30798325630060575    0.34986813527066496    
  0.32952345744747513    0.2761434179719943    0.21117402852733058    0.15638117302288507    0.1215858618959141    
  0.10684446727510766    0.10892134112755568    0.12405356383036426    0.14621956233325953    0.16619585543507107    
  0.17436605267222083    0.16619587391582408    0.14621957564834095    0.12405357198423331    0.10892134223273008    
  0.10684445440514738    0.12158587645506463    0.1563811782427771    0.21117407556416354    0.2761434283529958    
  0.32952347165156665    0.34986813527066496    0.3848307992161945    0.3689421316376753    0.3198810969704237    
  0.24982752639278968    0.18531082250583558    0.14301817165378125    0.12495605554137225    0.12751579874479538    
  0.14621958159398743    0.1737596001412327    0.19881109891245427    0.20914557798930186    0.1988111384656148    
  0.17375962607375298    0.14621958076848046    0.12751579517445136    0.12495603763599875    0.1430181924792158    
  0.18531083722286273    0.2498275315449567    0.31988109625715805    0.368942159291123    0.3848307992161945    
  0.3880757227940724    0.38184338403877427    0.34825411227296665    0.2815262238292858    0.21076732709427579    
  0.16208495052884728    0.1411179774936711    0.14419715431674957    0.16619585455551805    0.19881111271692556    
  0.22850813111837115    0.2406959214374984    0.2285081591729508    0.19881111738312712    0.1661958575829571    
  0.14419715112968018    0.1411179919752747    0.16208493921789494    0.21076733899744127    0.2815262501804944    
  0.3482541892100475    0.381843407480229    0.3880757227940724    0.38168143832148455    0.3806716780959502    
  0.3565007197761201    0.2935829475630536    0.22102811180072363    0.16975263822190126    0.14757265891152777    
  0.15091997031713297    0.17436603979806792    0.20914553358590898    0.24069591923771097    0.25355124792938205    
  0.24069595628049661    0.2091455591662046    0.17436606531090504    0.15091993996544203    0.14757262992862225    
  0.16975264292202868    0.22102810761681163    0.2935829541338031    0.3565007379922194    0.38067166783222217    
  0.38168143832148455    0.3880756851209941    0.3818434003307839    0.3482541379933711    0.28152624103963375    
  0.21076732890091698    0.162084938680825    0.14111799672133538    0.14419717717103253    0.16619585990620897    
  0.19881111353142036    0.2285081497485054    0.2406959405247235    0.22850816760927212    0.19881111648527633    
  0.16619588983307854    0.14419714214558912    0.14111795416496342    0.1620849536274366    0.2107673676695395    
  0.28152628528436346    0.34825419048757467    0.38184343513732394    0.3880756851209941    0.384830790162148    
  0.3689421393987502    0.31988107714392305    0.249827500093943    0.18531083718948557    0.14301819240207597    
  0.1249560684542984    0.12751579917355246    0.14621959217341685    0.17375961801492976    0.19881112377533813    
  0.2091455930383748    0.19881113318957627    0.17375960361666387    0.1462195676703286    0.12751578918728976    
  0.12495605020441986    0.14301819508771704    0.18531082554270575    0.24982752609576328    0.31988109933366377    
  0.3689421564285039    0.384830790162148    0.34986813020480045    0.32952345293736324    0.27614338429571755    
  0.21117404669040493    0.1563811732160898    0.12158586220616639    0.10684446215923535    0.10892134002936961    
  0.12405356917759792    0.1462195655554893    0.16619587742540248    0.174366060391868    0.16619587739319577    
  0.146219567035093    0.12405356590315575    0.10892132645591483    0.10684443817473425    0.12158586451280813    
  0.1563811862193677    0.2111740759782876    0.2761434259883316    0.3295234599439232    0.34986813020480045    
  0.3079832702422574    0.2883561510038101    0.23902736661838694    0.18201964065835488    0.13554121614841527    
  0.10645780763895889    0.09433549667336623    0.09624495281422757    0.10892135083216603    0.1275158071706572    
  0.14419717386819755    0.1509199483330437    0.1441971855341597    0.1275157846284555    0.10892135685326272    
  0.09624495062490761    0.09433547893510812    0.10645781244279309    0.135541177311005    0.1820196700851152    
  0.2390273375949353    0.28835617441236105    0.3079832702422574    0.29501557666778616    0.2760607355090172    
  0.22879640042809732    0.17458015966117224    0.13054847150649    0.10314185160056186    0.09201956986745623    
  0.09433547267550793    0.10684444759396722    0.12495602890366765    0.14111798747456303    0.14757264685478985    
  0.14111798276222978    0.12495604177148907    0.10684445168260699    0.09433547073076849    0.0920195558383246    
  0.10314185635061421    0.1305484552814152    0.17458016046368335    0.2287964350791238    0.27606076438670324    
  0.29501557666778616    0.32808619899417785    0.3073608974493244    0.25544197357184384    0.19518012826874684    
  0.14584698209383268    0.11525854809530373    0.10314186620951007    0.10645780144539382    0.12158585257518695    
  0.14301816987059798    0.1620849511901046    0.1697526339822725    0.16208495433407857    0.1430181768892564    
  0.12158585390435322    0.10645779865394733    0.10314184567677528    0.11525855740600187    0.14584697713224307    
  0.19518011387075646    0.2554419695674799    0.3073608777675868    0.32808619899417785    0.395330098911867    
  0.3746763473241194    0.31867165796567876    0.24706001370530242    0.18491816340335185    0.14584699468347193    
  0.13054846678791743    0.13554119019813776    0.1563811718098926    0.18531083337879461    0.21076733817589488    
  0.22102812526362467    0.21076735714108152    0.18531082115309955    0.1563811838385414    0.1355411846526245    
  0.13054847617010726    0.14584700057664707    0.1849181379865214    0.24706003583841302    0.31867164168167045    
  0.3746763566448174    0.395330098911867    0.40363629348939245    0.4045323098772129    0.38410604437130547    
  0.3216587174168115    0.24706004972047868    0.19518013207493126    0.17458017199791245    0.1820196575110173    
  0.2111740470713658    0.249827506747128    0.2815262380587773    0.2935829234421265    0.2815262539983785    
  0.24982751650452442    0.2111740641314163    0.1820196368824315    0.17458014318579657    0.19518014799589203    
  0.2470600292973264    0.3216587387458012    0.38410605091251593    0.4045323494150704    0.40363629348939245    
  0.2531015545771472    0.29511964509689814    0.3744209199975271    0.38410605109356877    0.31867164930028463    
  0.25544200927867927    0.2287964341282651    0.23902735616962453    0.2761434265936173    0.3198811016987903    
  0.34825415266584786    0.3565007611445186    0.3482541680365786    0.31988111350801984    0.27614343824959003    
  0.23902736099502464    0.22879641723989627    0.2554420238769489    0.31867168430291426    0.38410605981877427    
  0.37442093569036206    0.2951196678739303    0.2531015545771472    0.09943099378795282    0.1493544860485441    
  0.2951196280176502    0.4045323082385632    0.374676367268164    0.30736087786144145    0.27606077395107403    
  0.2883561200478719    0.3295234383516585    0.36894210747632256    0.3818433649659698    0.38067164137563597    
  0.38184342319914677    0.3689421342491388    0.3295234313648539    0.28835616269852116    0.2760607410393011    
  0.3073608783892907    0.3746763812124936    0.4045323515459094    0.295119658306354    0.14935449743876195    
  0.09943099378795282    0.056226517886541746    0.09943097940231582    0.253101557023549    0.40363628925585315    
  0.39533009654136203    0.32808619759919694    0.29501556816430685    0.3079832483914818    0.34986812652694116    
  0.38483075216867596    0.38807570574387656    0.38168147714674605    0.38807574411855916    0.38483081768737887    
  0.3498681473627814    0.30798322442434894    0.2950155375622788    0.32808619789161464    0.39533008734812797    
  0.4036363244601357    0.25310156819326335    0.09943097744305389    0.056226517886541746    0.0994014034320442    
  0.14810651321978693    0.28802546814952107    0.38747983160781635    0.3491457096720536    0.27497857806527276    
  0.23502703630684155    0.23465709883653765    0.2642430174313219    0.30746785585553954    0.3422825107633275    
  0.3547522844090035    0.3422825267191099    0.3074678964678808    0.2642430094856406    0.23465710658321923    
  0.23502701619395147    0.2749786051201525    0.3491457039885615    0.3874798737051084    0.2880254732133166    
  0.14810651824699445    0.0994014034320442    0.15038302135598627    0.20048997585769637    0.3230760135958065    
  0.38552752273391444    0.33197869449439305    0.2590155506781498    0.22121089328653687    0.22077338365612628    
  0.24864643779752035    0.2899151557393461    0.3240423506998765    0.33664647748951987    0.32404241754383284    
  0.2899151641577188    0.24864647403313192    0.22077335860606698    0.2212108952401963    0.25901556253922764    
  0.33197871573161597    0.38552753740367324    0.3230760738414974    0.20048998070046734    0.15038302135598627    
  0.3017571404531309    0.33388694393401913    0.38273731139791234    0.36265791302956724    0.28583263429221156    
  0.21901844444574342    0.1867832672204989    0.18619056525584163    0.20952774619926867    0.24486205831554683    
  0.27549778951317727    0.2874302941901542    0.27549778621033383    0.24486205651547988    0.2095277350330591    
  0.18619057075872955    0.18678324677708438    0.219018464180558    0.2858326683185541    0.3626579343429656    
  0.38273728775098403    0.33388696772776943    0.3017571404531309    0.4235219301909584    0.4166136562322098    
  0.38007389896863947    0.306418006112115    0.2273833153148791    0.17260503027209767    0.14734080054761658    
  0.1465819198975155    0.16416413442358066    0.19122263053176572    0.21551948772460613    0.2253512895837205    
  0.21551949303267204    0.19122266445265232    0.16416413759164772    0.14658190362454454    0.14734079845239137    
  0.17260506049857197    0.22738332976926867    0.30641804258381644    0.38007394196136335    0.4166137090024    
  0.4235219301909584    0.4080475629036505    0.38423223174138926    0.3214169645048738    0.24385964030809332    
  0.1776525775070107    0.13510063180158352    0.11571775544068387    0.11483394751678117    0.12750704332293958    
  0.14729769919346192    0.1654149811593457    0.17285156210487262    0.16541500988632532    0.14729769184941793    
  0.12750702355690752    0.11483394759284983    0.11571775438014352    0.1351006392114932    0.17765255275098873    
  0.2438596578145342    0.3214169315276256    0.3842322124730492    0.4080475629036505    0.3548965209202542    
  0.331280170656039    0.27230027201815504    0.2043567742594081    0.14885325184180065    0.11356667791639959    
  0.09742501199476833    0.09639982647282251    0.106209181172619    0.12176764181977011    0.13605091596986346    
  0.14187250177803887    0.1360509237593078    0.12176763050240036    0.10620919854730786    0.09639982313448223    
  0.0974249992762967    0.11356668694110719    0.1488532647114315    0.20435678111420932    0.27230032206746185    
  0.3312802130210939    0.3548965209202542    0.34182958714717304    0.31892647358271675    0.26180670915663795    
  0.1963056938209813    0.1429984834782288    0.10907280554731334    0.09342868071331216    0.0921402532861845    
  0.10112046967740997    0.115617530600972    0.128940251371839    0.1343463738786889    0.12894025750200225    
  0.1156175311586789    0.10112046887536477    0.09214024551598896    0.09342866649518589    0.1090728203091181    
  0.14299848527419154    0.19630570514215567    0.2618067349026084    0.3189264611776084    0.34182958714717304    
  0.3754839771548711    0.35167444659047664    0.2907773369825461    0.21868948966936044    0.1588155046131045    
  0.12048133936916754    0.10267802305994995    0.10103908794653833    0.11117015011818185    0.12761512428365732    
  0.14272542665215776    0.14888714492867297    0.14272545697392586    0.12761511430027944    0.11117016350956602    
  0.10103908092944583    0.1026780315488543    0.1204813515571605    0.15881548675655321    0.21868953382700643    
  0.29077732506701515    0.3516744673313929    0.3754839771548711    0.4145410910210552    0.3966675367092816    
  0.34215415753986167    0.26464891742451513    0.19300931508706945    0.14532768575546248    0.12297107791042666    
  0.12098594080948287    0.13411742500643528    0.15531982565276595    0.17471278981508065    0.1826334811898942    
  0.1747127986309801    0.15531983402064206    0.13411742234809615    0.12098594967985031    0.12297106942184992    
  0.14532771800640376    0.19300930111088954    0.2646489547564171    0.34215418278841636    0.39666757221547727    
  0.4145410910210552    0.38343005200806074    0.38874421247991287    0.3757360322751802    0.31489193514946423    
  0.23585306094221697    0.17748626466616124    0.14950677714830826    0.14716649327661183    0.16414741991403128    
  0.19169700581770036    0.21695376059470628    0.22724814205221563    0.21695375790721927    0.19169702831610502    
  0.1641474427101819    0.1471664798576201    0.14950675156016083    0.1774862742315324    0.23585306556943883    
  0.31489191236996583    0.37573603977919484    0.38874422096183486    0.38343005200806074    0.29351963051049035    
  0.32399133112570405    0.3689854194634935    0.34714018238340094    0.2714238575804097    0.20544209092257035    
  0.17276551942982976    0.170207000290085    0.19057221511728084    0.22378518478605183    0.25418400314878536    
  0.26644574808614274    0.2541840370128056    0.2237851926222848    0.19057220891514595    0.17020701641515407    
  0.1727655016105233    0.20544206922436015    0.2714238754877574    0.3471402280903053    0.3689854914681086    
  0.32399133633710403    0.29351963051049035    0.24904658757423415    0.2877412281986933    0.3571453110099113    
  0.3566612422033025    0.2852056173193839    0.21660173180266754    0.1820545324552505    0.17947493777577017    
  0.20129749831514301    0.23685912532839093    0.26926001783445286    0.2822307004171163    0.2692600689218273    
  0.23685913643835557    0.20129752701668677    0.1794749174275209    0.18205451598456232    0.21660175584821456    
  0.28520561954825946    0.3566612697932291    0.3571453250405459    0.28774123657722506    0.24904658757423415    
  0.29351959835868197    0.323991329472945    0.3689854051415746    0.34714016656097785    0.2714238575904897    
  0.20544206793356476    0.17276551687021907    0.17020702021381012    0.19057219064478503    0.2237851882424757    
  0.25418400815526354    0.2664457688797346    0.25418403927821814    0.22378517770981893    0.19057220658916021    
  0.170207015235015    0.17276547329989211    0.20544208411194248    0.27142388626532293    0.34714022949769835    
  0.36898550156247484    0.3239913639537284    0.29351959835868197    0.38343003799373854    0.38874423443508843    
  0.3757360429618312    0.3148919047862144    0.23585308454724208    0.1774862975425033    0.14950677391542938    
  0.14716651224996777    0.1641474423900429    0.19169703934287005    0.21695374252045102    0.22724814636045704    
  0.2169537670840449    0.19169702870437608    0.1641474147451385    0.14716648181799932    0.14950676620302256    
  0.17748630516080818    0.2358530554397835    0.31489191775240943    0.37573606483313143    0.388744224297213    
  0.38343003799373854    0.4145410666569073    0.39666754457850073    0.3421541438754244    0.26464892861090167    
  0.1930092728016288    0.14532768714692892    0.1229710878035632    0.12098593903046916    0.13411741785041079    
  0.1553198196243178    0.17471279917228047    0.1826334833779991    0.17471281277557066    0.1553198371847841    
  0.13411742991915682    0.12098592264261261    0.12297106854824902    0.14532770967407632    0.19300930175638512    
  0.2646489628709815    0.3421542033249336    0.39666758323907614    0.4145410666569073    0.3754839581190919    
  0.35167446797374524    0.2907773340226842    0.21868949843524538    0.1588155041332552    0.12048133925443069    
  0.10267804791830246    0.10103908559654153    0.1111701471921108    0.12761515001622048    0.14272542695968576    
  0.148887138417051    0.1427254467311814    0.12761511432581388    0.11117015780379445    0.1010390664748145    
  0.10267802351705352    0.12048135051414359    0.1588154763750141    0.21868953676952751    0.29077731188751393    
  0.35167449244684057    0.3754839581190919    0.341829605057038    0.3189264897275536    0.2618067396377501    
  0.19630571041103376    0.14299848581425403    0.10907280009061003    0.09342868377333005    0.092140240978935    
  0.10112047099809159    0.1156175154506534    0.12894025048221183    0.13434635898463199    0.12894024875648297    
  0.11561751982521408    0.10112047903347106    0.0921402486636858    0.09342866672151541    0.10907281281381072    
  0.1429984814283228    0.1963056982825287    0.26180673831837614    0.3189264674704105    0.341829605057038    
  0.3548965361189818    0.3312802100517279    0.2723002849110928    0.20435679229773587    0.1488532462077443    
  0.11356669179363645    0.09742500565884334    0.09639982735787893    0.1062091994498828    0.1217676381089451    
  0.13605090609003623    0.14187251207148713    0.13605091392148014    0.12176763894048952    0.10620918863882935    
  0.09639982334963335    0.09742500022198308    0.1135666879279907    0.14885324577097586    0.20435678476462588    
  0.2723003137040566    0.33128020220086507    0.3548965361189818    0.4080475716012398    0.38423220195010166    
  0.3214169906227379    0.2438596577477791    0.1776525888370521    0.13510063466005337    0.1157177617231653    
  0.11483393866645372    0.1275070411148018    0.1472977038448311    0.16541498011952835    0.17285157625008749    
  0.16541500912378143    0.14729769700869522    0.12750705109458776    0.11483394631426598    0.11571776625525006    
  0.1351006453964118    0.17765254719530663    0.24385966840679638    0.32141695379864516    0.38423221752361003    
  0.4080475716012398    0.4235219478497876    0.41661363961747255    0.3800739243222359    0.306418006073258    
  0.227383332075182    0.17260502936943625    0.14734081229093837    0.14658193478599504    0.16416410461559283    
  0.19122264322750232    0.21551950164259295    0.22535131031514763    0.21551949783206814    0.19122264448904827    
  0.1641641465748803    0.1465819135075208    0.1473407982233085    0.17260504303200072    0.22738331658390767    
  0.30641805307320685    0.380073905127823    0.41661366687510737    0.4235219478497876    0.30175710661424293    
  0.33388691719402697    0.38273728550526576    0.3626579004423684    0.2858326577136127    0.21901843786320047    
  0.1867832581509888    0.1861905704109934    0.2095277265736166    0.24486205860589405    0.2754977702616303    
  0.2874303055078398    0.2754977977060442    0.24486209553979324    0.20952773313031509    0.186190563545869    
  0.18678324548976674    0.21901844556880365    0.2858326951614714    0.36265789593708164    0.3827373281051219    
  0.3338869119171283    0.30175710661424293    0.15038302656354283    0.20048995954015753    0.3230760035980073    
  0.38552750894943577    0.3319787086923466    0.25901554524286186    0.22121091971848847    0.22077336174965193    
  0.24864643749701015    0.2899151553215136    0.3240423755458469    0.3366464726847384    0.32404240395747164    
  0.2899151832265177    0.24864645656019238    0.22077338594604923    0.22121090593701057    0.25901552964846486    
  0.3319787069572289    0.3855275286943602    0.32307606990195553    0.20048998438868604    0.15038302656354283    
  0.0994014034320442    0.14810651321978693    0.28802546814952107    0.38747983160781635    0.3491457096720536    
  0.27497857806527276    0.23502703630684155    0.23465709883653765    0.2642430174313219    0.30746785585553954    
  0.3422825107633275    0.3547522844090035    0.3422825267191099    0.3074678964678808    0.2642430094856406    
  0.23465710658321923    0.23502701619395147    0.2749786051201525    0.3491457039885615    0.3874798737051084    
  0.2880254732133166    0.14810651824699445    0.0994014034320442    0.2490465936758195    0.2877412191231802    
  0.3571452830230989    0.3566612507278014    0.28520558738048923    0.21660173873999958    0.18205452360553628    
  0.17947490945658917    0.20129752177920737    0.23685912210535526    0.26926004524538    0.2822306756108025    
  0.2692600618333161    0.2368591503046394    0.2012975184312264    0.1794749117196278    0.18205449903733972    
  0.2166017572321108    0.2852056041224713    0.35666128388377705    0.35714531818989975    0.28774122849273054    
  0.2490465936758195    0.29351959767950647    0.32399132729018426    0.36898543233899456    0.34714018803683677    
  0.2714238578332365    0.2054420921993676    0.1727654895859051    0.1702070046625217    0.19057221040626496    
  0.2237851535798763    0.2541840065954201    0.266445737717875    0.25418405419311935    0.22378517571553502    
  0.19057224034112658    0.17020701268366928    0.17276548074536463    0.20544209945833003    0.2714238732909308    
  0.3471402166160529    0.3689854980146172    0.3239913501956633    0.29351959767950647    0.3834300416503647    
  0.3887442571587933    0.375736033790171    0.314891921936982    0.2358530572063793    0.1774862967955143    
  0.14950676923510475    0.1471665037909999    0.16414742471385305    0.19169700263142186    0.21695377289550435    
  0.2272481341522435    0.21695376574392186    0.19169700087798094    0.1641474227612496    0.1471664928019194    
  0.1495067664722584    0.1774863000784318    0.23585306733274322    0.31489191192095234    0.37573605093255036    
  0.38874425042447447    0.3834300416503647    0.41454108837876247    0.3966675566413677    0.34215415344419337    
  0.2646489238319221    0.19300930447203568    0.1453276940766374    0.12297107725935785    0.12098593319532892    
  0.13411743683568345    0.15531981116809157    0.17471277655158607    0.18263346714673265    0.17471278855537467    
  0.1553198431713681    0.13411742856458497    0.12098592870439914    0.12297106635504904    0.14532772288317639    
  0.19300930654029766    0.264648950505672    0.34215417731537673    0.39666757585359785    0.41454108837876247    
  0.37548397180823173    0.35167448023537606    0.2907773298324108    0.21868950619932412    0.1588155048053373    
  0.12048133973736039    0.10267803194421954    0.1010390879117144    0.11117015492112921    0.12761513998327914    
  0.14272544019294342    0.14888715688236462    0.14272543936962176    0.12761511847044119    0.11117015074197809    
  0.10103908057903743    0.10267802536849513    0.12048134442701827    0.1588154886501036    0.21868952390605315    
  0.29077731522029987    0.3516744544089267    0.37548397180823173    0.3418295892289479    0.31892646168737093    
  0.26180672146535033    0.1963057019836673    0.1429984981302726    0.1090727964382091    0.09342868462852079    
  0.09214023998707271    0.10112045704611211    0.11561752001202744    0.12894023701007837    0.13434636888104842    
  0.12894025784944854    0.11561752227486574    0.10112048211844288    0.09214024276160061    0.09342867009646003    
  0.1090728179354307    0.14299848433658618    0.1963056908871062    0.26180675531466413    0.31892648743577023    
  0.3418295892289479    0.354896503808776    0.3312801902438304    0.2723002703349712    0.20435678909563998    
  0.1488532506085436    0.11356668021980305    0.09742500732079765    0.09639983606463567    0.10620919143755977    
  0.12176762854123196    0.1360509100095178    0.14187251408168794    0.13605092984999245    0.12176763562363159    
  0.10620919809929495    0.09639981849817876    0.09742499282989682    0.1135666877499336    0.14885323415256416    
  0.20435677872617036    0.27230030426145685    0.3312801883691436    0.354896503808776    0.408047564461267    
  0.38423217888643296    0.3214169971268798    0.24385963786483417    0.17765258642948142    0.1351006175702617    
  0.11571775179935369    0.11483394650423248    0.1275070347893875    0.14729771286095125    0.165414979355057    
  0.17285157523817224    0.16541500802579892    0.1472976910683585    0.12750704364981238    0.11483393747244389    
  0.1157177431558472    0.13510063942935008    0.17765255163687707    0.24385968625637425    0.3214169537467232    
  0.3842322128629988    0.408047564461267    0.4235219427932393    0.4166136525697441    0.38007390306341415    
  0.30641798776382373    0.22738333290675022    0.17260502208795708    0.14734082466636536    0.14658192820346622    
  0.16416412014379148    0.19122264814720707    0.21551949754804395    0.2253512972525103    0.2155195129150633    
  0.19122264079598328    0.1641641406758304    0.14658191226628287    0.14734079468530772    0.17260504216068162    
  0.2273833257622529    0.306418029213547    0.3800739285712696    0.41661366342122963    0.4235219427932393    