#     DFTpy    
  CRYSTAL 
    
  PRIMVEC    
  4.317071390307474    -2.3718831999999995e-10    4.4957334620689647e-10    
  -2.3718831999999995e-10    4.317071390056621    2.1662617655172414e-10    
  8.215386068965517e-10    3.959228137931034e-10    7.908958454613846    
  PRIMCOORD    
  4    1    
  Si    2.1585356950714885    2.158535696216221    2.430377452885187    
  Si    8.004407292154247e-10    -7.407972260332827e-10    1.5241017717631276    
  Si    1.2276879385285118e-10    5.594788118389517e-10    6.384856678364696    
  Si    2.1585356957186654    2.1585356945763756    5.47858100688088    
  BEGIN_BLOCK_DATAGRID_3D    
  3d_datagrid_density    
  BEGIN_DATAGRID_3D#0    
  19    19    37    
  0.0    0.0    0.0    
  4.317071390307474    -2.3718831999999995e-10    4.4957334620689647e-10    
  -2.3718831999999995e-10    4.317071390056621    2.1662617655172414e-10    
  8.215386068965517e-10    3.959228137931034e-10    7.908958454613846    
  0.1487351573732693    0.13921784751004088    0.11515337826073874    0.08651953311618787    0.06155546432805911    
  0.04362528101660851    0.03232121415767602    0.025775453444414342    0.022470471069306833    0.021484212022915398    
  0.02247046407236048    0.02577545785604395    0.032321217542689476    0.04362526750191744    0.061555465247010804    
  0.08651953209118829    0.11515331130149178    0.13921780159582012    0.1487351573732693    0.13921783100508414    
  0.13051578203177278    0.1084067514930027    0.08200171888342227    0.058853631290295486    0.0421086547594012    
  0.031476707514834    0.02530673032526724    0.022186478769530484    0.021254050597510645    0.022186484102672068    
  0.025306725897264314    0.031476716864476735    0.04210862846266944    0.058853659977649075    0.0820017360726914    
  0.10840672464975358    0.1305157741274896    0.13921783100508414    0.11515332308471976    0.10840672679734108    
  0.09115044443017674    0.07030231561475048    0.05177473052139797    0.038114375658092614    0.029285287861899333    
  0.024105140216983935    0.0214698451058023    0.02067616541839075    0.021469838657344583    0.024105144829848133    
  0.029285305311265344    0.03811435855291606    0.05177473446475406    0.07030235693331226    0.09115042472055439    
  0.10840671568645774    0.11515332308471976    0.0865195197767589    0.08200169497255441    0.07030232835692611    
  0.05592225511017615    0.04287013535266911    0.03299790311804242    0.02645897595283781    0.022577754156110727    
  0.020600619524896946    0.020006133865318586    0.020600616083607616    0.02257775717117239    0.026458973638412757    
  0.03299790148280456    0.04287015193758247    0.05592226410626721    0.07030233898100727    0.08200169003047612    
  0.0865195197767589    0.061555481800823236    0.058853638790280965    0.051774746680143334    0.04287016075024987    
  0.03457122560008221    0.02811453755851738    0.023745664104719847    0.021153475974374152    0.01985182784446638    
  0.01946143594859389    0.019851840233042865    0.02115348290314963    0.023745669763964177    0.02811452993300275    
  0.03457124336823701    0.04287015502084239    0.05177470563602735    0.058853657337048434    0.061555481800823236    
  0.04362528840795292    0.04210863621392795    0.038114390071749535    0.03299788993426466    0.028114514920872233    
  0.024255207674829162    0.02164728874174235    0.020147528945098504    0.019426304185136863    0.019212731709112894    
  0.019426310207307902    0.02014753327277946    0.02164728453975707    0.02425518839982682    0.02811452032587515    
  0.03299791054961597    0.03811434951686352    0.04210862981963578    0.04362528840795292    0.03232121889229816    
  0.031476703248965364    0.029285307765066704    0.026458978947944203    0.02374565517612027    0.021647292611303295    
  0.02030157385344971    0.019617707884020605    0.019364187512894163    0.019310254440884335    0.0193641843058833    
  0.019617721091417937    0.020301563155965176    0.021647275664288604    0.02374566395639871    0.026458984477521128    
  0.029285298393260897    0.031476698506825565    0.03232121889229816    0.02577547448489855    0.02530671516202811    
  0.024105149445025915    0.022577762711951603    0.021153472350365816    0.02014753385231595    0.019617710044117106    
  0.019470910889236456    0.019539309982023786    0.019603613174894133    0.01953932972164806    0.01947093044217983    
  0.019617713791548856    0.02014752874582139    0.021153463005002537    0.022577754985172775    0.02410512670153376    
  0.025306713745498487    0.02577547448489855    0.022470473352848287    0.02218646738497608    0.02146984953033763    
  0.02060062076427388    0.019851831292830597    0.01942631273212057    0.019364197087529834    0.019539329019146356    
  0.019776917027201052    0.019885834058924794    0.019776920532518356    0.019539323939702265    0.01936417904051192    
  0.019426300317864405    0.019851829525476945    0.020600627625839526    0.02146983200809108    0.022186466178950884    
  0.022470473352848287    0.021484224332692845    0.021254042751139172    0.02067617066755096    0.020006122701119188    
  0.019461427738070386    0.019212741034092082    0.019310266670858528    0.019603614809506165    0.019885828168707095    
  0.020007671849029594    0.019885844317595505    0.01960361565208346    0.019310251794161796    0.019212737783192685    
  0.019461433218137338    0.02000613058051103    0.020676147500266223    0.02125404095140887    0.021484224332692845    
  0.02247047169873121    0.022186471799242415    0.021469851915254405    0.020600629133965074    0.01985182847203611    
  0.019426297198388776    0.01936417864136575    0.01953931413535661    0.019776920844332052    0.019885842204866905    
  0.019776918727618983    0.01953932868176912    0.019364185351488164    0.0194263007457951    0.01985183969505013    
  0.020600620533043155    0.021469838687579543    0.022186479478700318    0.02247047169873121    0.02577547210678972    
  0.02530672257828993    0.024105149534548304    0.022577758064064122    0.021153464274756447    0.020147541327168866    
  0.019617722173057857    0.01947092423343962    0.019539316721557617    0.019603608433377818    0.01953932902833814    
  0.01947093283117088    0.019617717258154484    0.020147535274526902    0.021153474242559388    0.02257775988047955    
  0.024105135828545617    0.02530672090006561    0.02577547210678972    0.03232120432305895    0.03147668548596363    
  0.029285301250912284    0.02645896766832914    0.023745648284640132    0.02164729077693362    0.02030157435252035    
  0.019617699769912164    0.019364189617028328    0.019310250358563673    0.019364190015828255    0.01961771760479665    
  0.020301559862570102    0.021647284006402846    0.02374565880638195    0.0264589845789655    0.02928529747202148    
  0.031476711243639544    0.03232120432305895    0.043625297805663335    0.04210864265866446    0.038114381353889865    
  0.03299791120383775    0.02811451913271893    0.024255202538183855    0.021647280573543017    0.02014752810346155    
  0.019426296961798907    0.019212727881341495    0.01942629747862969    0.020147543886519556    0.021647303485805146    
  0.024255193742561073    0.028114523000652397    0.03299790157897092    0.038114351073309675    0.04210863014662024    
  0.043625297805663335    0.06155547328609713    0.058853628253636533    0.05177476080495095    0.042870151011778435    
  0.034571218373175526    0.02811453940492494    0.0237456672718547    0.021153465167857512    0.01985184018139014    
  0.01946144275549374    0.01985183916789825    0.021153476523893384    0.023745654223641763    0.02811452439621151    
  0.034571246201474566    0.04287015505383759    0.05177472447927118    0.058853626334873815    0.06155547328609713    
  0.08651952474527132    0.082001711280272    0.07030235086565165    0.05592224467057586    0.04287013493615751    
  0.032997896686221176    0.026458988834005    0.02257774790966789    0.02060060402806876    0.02000612962127221    
  0.020600616160006906    0.022577753237839806    0.02645897117994949    0.0329978939603391    0.04287015708878939    
  0.05592225232744822    0.07030234531711346    0.08200170408695026    0.08651952474527132    0.11515335240250259    
  0.10840671572883082    0.09115046073796475    0.07030234001212714    0.051774726678895565    0.03811437139310094    
  0.029285291010677613    0.024105130390437737    0.021469832953421256    0.020676161704624052    0.021469848615979815    
  0.024105149663777366    0.02928530077951645    0.03811436201113073    0.05177475170989402    0.07030233529783558    
  0.09115045200529563    0.10840667258413497    0.11515335240250259    0.13921779908065943    0.13051577191841837    
  0.10840673022191172    0.08200169937025376    0.05885364400724934    0.042108652370408214    0.03147670937203396    
  0.025306720443754083    0.022186482241171708    0.021254049700549664    0.02218648640768408    0.025306731276619816    
  0.03147671456038939    0.04210863428922463    0.058853663334481006    0.0820017173182248    0.10840673204167008    
  0.13051575839798812    0.13921779908065943    0.1487351573732693    0.13921784751004088    0.11515337826073874    
  0.08651953311618787    0.06155546432805911    0.04362528101660851    0.03232121415767602    0.025775453444414342    
  0.022470471069306833    0.021484212022915398    0.02247046407236048    0.02577545785604395    0.032321217542689476    
  0.04362526750191744    0.061555465247010804    0.08651953209118829    0.11515331130149178    0.13921780159582012    
  0.1487351573732693    0.17309140218924876    0.16162532356498166    0.13266627233080866    0.0983252772607481    
  0.06858838735211875    0.04742381216299092    0.03424152139250732    0.026777021349888793    0.02305892079750352    
  0.021941830889468137    0.0230589211492402    0.026777028629104256    0.03424153131724565    0.04742379575334038    
  0.06858842443386255    0.09832523243301859    0.13266620826321762    0.16162524506226678    0.17309140218924876    
  0.1616252925251243    0.15112524998946197    0.12455187399835708    0.09289855127418749    0.0653637467746969    
  0.04565189685176408    0.03330544652064357    0.02628240666754348    0.022775793255213908    0.021719542588062583    
  0.022775794528761356    0.02628240235027543    0.03330545053737055    0.04565186806420635    0.06536379902637114    
  0.09289853827163162    0.12455185005062674    0.15112526932051318    0.1616252925251243    0.1326662090452993    
  0.12455185344815269    0.1038664481882117    0.07897486077226575    0.05701612884423489    0.04103937540718592    
  0.030868420294464398    0.025005400093830434    0.022051256600071532    0.02115824351250827    0.022051259786943646    
  0.02500541618477441    0.030868432577451185    0.041039359768470944    0.05701612840784587    0.07897485736491813    
  0.1038664048990291    0.12455187050311035    0.1326662090452993    0.09832523655514734    0.09289847623262362    
  0.07897488336604654    0.06196601010016738    0.046643223619614475    0.035212624563239016    0.027762161682000328    
  0.02339704459580009    0.0211864726527926    0.02051942020498017    0.02118647218596394    0.023397039197531652    
  0.027762154653499686    0.03521262481957624    0.04664323939637818    0.06196602347083129    0.07897484934995881    
  0.0928984910648203    0.09832523655514734    0.06858842808626946    0.06536381660302103    0.05701613649181988    
  0.04664323475756112    0.03706593912174587    0.029718625995613375    0.024825417479321436    0.02194367616564599    
  0.02049927638424881    0.020070835100507757    0.020499286183243714    0.021943682641933825    0.024825434420668462    
  0.029718618473966906    0.037065944606898896    0.04664325910068093    0.05701610552589484    0.06536376333775099    
  0.06858842808626946    0.04742381585375042    0.04565186619919962    0.04103939340304906    0.035212616056331456    
  0.02971861503562364    0.025437077930994003    0.022588896624580135    0.020966611765178552    0.020198984000789146    
  0.019982368600705312    0.020198991829648384    0.020966615281177874    0.02258889888566154    0.025437068739703993    
  0.029718620555604085    0.035212628116992176    0.041039363776066706    0.04565187875234269    0.04742381585375042    
  0.03424152221345862    0.0333054310984907    0.03086843778010006    0.027762142327966564    0.024825419028370398    
  0.022588902732464194    0.021198934601818466    0.0205298926808472    0.020309952386482043    0.020273503864185232    
  0.020309977605731343    0.020529898383372793    0.021198927398430146    0.022588883096516674    0.02482543079791178    
  0.027762157813213287    0.03086842098395917    0.03330543452850178    0.03424152221345862    0.026777053870922846    
  0.026282398222547878    0.025005421165812544    0.023397054917315654    0.021943668551109824    0.02096662536835113    
  0.020529899878282167    0.020512032431289115    0.020676977411010895    0.020770031927657587    0.02067699665794449    
  0.020512052081091484    0.02052990904875025    0.020966613553062757    0.021943677178021797    0.023397053111709292    
  0.025005396760502903    0.026282395020670996    0.026777053870922846    0.02305892966411532    0.02277577951818682    
  0.02205126127092726    0.021186464373090873    0.020499277820091102    0.020199002104860222    0.020309972708845856    
  0.02067698802857819    0.02105667179397015    0.02122001157767777    0.02105667780112268    0.0206769982011688    
  0.02030997867620627    0.020198979038499796    0.020499283339874663    0.02118647395447696    0.02205124812757565    
  0.02277577504941467    0.02305892966411532    0.021941843227773247    0.02171953242927909    0.021158254383794543    
  0.02051940918104171    0.0200708266906485    0.019982371175108524    0.020273510893692226    0.02077002745768517    
  0.021220016254380476    0.021401231253409238    0.021220029688959547    0.020770043624959884    0.020273492522491308    
  0.019982376845243056    0.020070837468582518    0.020519417191783504    0.021158239728812325    0.021719533582315    
  0.021941843227773247    0.02305892574000742    0.022775784548819535    0.02205126867659404    0.021186479720822604    
  0.020499284006324538    0.020198989231979454    0.02030997099725533    0.02067698561296617    0.021056665432274718    
  0.021220006967285144    0.02105666990630707    0.020676995436554872    0.020309971500999346    0.0201989871610768    
  0.02049928931200233    0.021186475250988226    0.02205125483144147    0.022775796224409877    0.02305892574000742    
  0.026777033581312962    0.02628240667623485    0.025005415282826824    0.023397052635314036    0.021943660692188498    
  0.020966622371517727    0.020529902178370033    0.02051205406027803    0.02067698889073783    0.020770021413482137    
  0.02067699238382235    0.020512059957272195    0.020529896245905146    0.020966616110571577    0.02194366166069242    
  0.023397046108853622    0.025005393807412176    0.02628240719221019    0.026777033581312962    0.03424151880409181    
  0.03330541665532078    0.030868425359398186    0.027762151113870624    0.024825409959782323    0.022588895987920285    
  0.021198925572043854    0.020529897859652983    0.020309967378519193    0.02027350602291242    0.020309972730915744    
  0.0205298995947359    0.021198915497966337    0.022588894376531353    0.024825418770441404    0.027762159429221868    
  0.030868424688953598    0.03330543172481164    0.03424151880409181    0.04742381297021668    0.04565187657576521    
  0.04103938532329566    0.03521263321329423    0.02971860747812133    0.025437077206600742    0.022588883638622142    
  0.020966614237440524    0.020198989385951195    0.019982358669911448    0.020198984201227267    0.02096663370005527    
  0.022588900004836574    0.025437071990287413    0.029718605438820083    0.03521261274612538    0.04103934800220197    
  0.045651859361365045    0.04742381297021668    0.06858841680597269    0.06536378238149462    0.05701616814250943    
  0.046643242515833946    0.03706592870983194    0.029718626350598194    0.024825419878107817    0.02194367485668706    
  0.020499280057195934    0.020070842733803645    0.020499285621342556    0.02194367545130026    0.024825423734689857    
  0.02971861742278644    0.03706594539377109    0.04664325186914142    0.05701612876712436    0.06536375258764555    
  0.06858841680597269    0.09832527523224664    0.0928985200954709    0.07897489376613516    0.06196601965270781    
  0.0466432280200595    0.03521262388984974    0.027762164893776406    0.02339703753925623    0.021186474707269934    
  0.020519408732986844    0.021186471660759383    0.02339705143693515    0.02776214444176854    0.03521262018145833    
  0.04664323679503135    0.0619660162861286    0.07897489149838009    0.09289850036266821    0.09832527523224664    
  0.13266626978078866    0.12455184821194135    0.10386645014938098    0.07897486640658317    0.05701611239200304    
  0.04103936810703711    0.030868421192064437    0.025005401775384243    0.022051246017214723    0.021158249413520253    
  0.022051267222573306    0.02500541310974459    0.030868436590811222    0.04103936454223779    0.05701614489811072    
  0.07897485201805853    0.10386641302112719    0.12455180106273563    0.13266626978078866    0.16162527796539752    
  0.15112526668395196    0.12455184979045562    0.09289853887388917    0.06536376665069728    0.045651897727102875    
  0.03330543216159809    0.0262824019382939    0.022775800519736863    0.02171954088155895    0.02277580370336044    
  0.026282412361040317    0.03330543957918412    0.04565188420898988    0.06536379788317326    0.09289854591186693    
  0.12455184296510402    0.15112516614343294    0.16162527796539752    0.17309140218924876    0.16162532356498166    
  0.13266627233080866    0.0983252772607481    0.06858838735211875    0.04742381216299092    0.03424152139250732    
  0.026777021349888793    0.02305892079750352    0.021941830889468137    0.0230589211492402    0.026777028629104256    
  0.03424153131724565    0.04742379575334038    0.06858842443386255    0.09832523243301859    0.13266620826321762    
  0.16162524506226678    0.17309140218924876    0.2518689998813697    0.23454355642477148    0.1901283304708754    
  0.13671875474076187    0.09092574041106147    0.05921488380242696    0.04012695620607077    0.02978208508281837    
  0.024805545471111096    0.02331770405218083    0.02480554957292732    0.02978208668919122    0.04012696363619462    
  0.059214893252378505    0.09092577403473957    0.13671875764361627    0.1901282704486908    0.23454345937778023    
  0.2518689998813697    0.23454354336570504    0.21848984248440617    0.17747858296192973    0.12828478140380795    
  0.0860370249968087    0.05667281334243402    0.038901185347104905    0.029204693007436028    0.024514394453587822    
  0.023111025541397635    0.024514397161890807    0.029204693268492992    0.0389011950848989    0.05667276874316233    
  0.08603707259347908    0.1282847750340497    0.17747850886607733    0.21848982863522745    0.23454354336570504    
  0.19012829924318694    0.1774785690365609    0.14537165940973118    0.10690419354394476    0.07359837005332183    
  0.050140471645384314    0.03571828930212217    0.027708606644458445    0.02378874712713338    0.022612884929897513    
  0.0237887375062385    0.027708615448999004    0.03571831707739812    0.05014045337241193    0.07359837295014683    
  0.10690418938476287    0.145371628994233    0.17747853116258078    0.19012829924318694    0.13671871066276273    
  0.1282847298700973    0.10690422481393523    0.0811580629264901    0.05846025207462756    0.042078739129939834    
  0.03176454308576487    0.02591052794874685    0.02301126702534574    0.022144681454120997    0.0230112647358673    
  0.025910515105708486    0.031764541187034256    0.04207873358288839    0.058460275281822474    0.08115808486865832    
  0.10690421902884524    0.12828472345516015    0.13671871066276273    0.09092577340759331    0.08603706626681674    
  0.07359837623533351    0.05846027022063139    0.04481390004587747    0.03469100820863006    0.028183646134326886    
  0.024443374020172687    0.022600362770145436    0.022062001094370797    0.022600373979298816    0.024443383899982796    
  0.028183661569519496    0.034691016560545504    0.04481390964058079    0.05846027967385376    0.07359832682861023    
  0.08603701845945383    0.09092577340759331    0.05921491338988191    0.05667278472460722    0.05014048430800552    
  0.04207873335183214    0.03469100065035619    0.029138637463314843    0.025598568395161746    0.023649898317903487    
  0.022776014103695078    0.02254994162468377    0.022776033952075253    0.02364990613292759    0.025598572255730152    
  0.02913863063302253    0.03469101525156265    0.042078743954871045    0.050140451032412325    0.05667277625974125    
  0.05921491338988191    0.04012693969909807    0.03890118133260099    0.03571831655136057    0.03176453472579164    
  0.0281836314608899    0.025598566755663157    0.024146920044676317    0.02359311742634328    0.023523049040803837    
  0.023554827831855984    0.0235230490844196    0.02359312370101045    0.024146896691405892    0.025598568910090925    
  0.028183643846280186    0.03176454128564053    0.035718305950529265    0.03890116719839069    0.04012693969909807    
  0.029782103999206735    0.029204689901988972    0.027708625624825883    0.025910525093877455    0.024443364778379363    
  0.023649913359235664    0.023593122830626118    0.024052680003086545    0.024586886642315755    0.02481044963170431    
  0.024586891808445945    0.024052698119695116    0.02359313493500069    0.02364990479062515    0.024443374365213374    
  0.025910531472906513    0.027708599875546622    0.029204687317620777    0.029782103999206735    0.024805549025968564    
  0.02451438964976747    0.023788750858681335    0.023011268815050008    0.02260037102853724    0.022776033959937006    
  0.023523064320869206    0.024586897562970587    0.02551213817058793    0.02587496110863991    0.02551216455008252    
  0.02458690567951628    0.023523065712349595    0.022776010445445954    0.022600376228090746    0.02301127352372973    
  0.023788732469623722    0.0245143853741328    0.024805549025968564    0.023317710438123633    0.0231110204882765    
  0.022612883584955924    0.02214468385326738    0.022061991647372044    0.02254994548778463    0.023554843998594584    
  0.024810447640003737    0.02587497205103506    0.026293517916512105    0.025874977071613854    0.02481045480353349    
  0.023554832820635203    0.022549938750176295    0.02206200298453687    0.022144682354722514    0.022612872789003403    
  0.02311101137824813    0.023317710438123633    0.0248055526724192    0.024514390615505435    0.023788752033188563    
  0.023011275163046418    0.022600367115884933    0.022776017008168257    0.02352307058201848    0.02458689355377595    
  0.02551213656919791    0.02587496872218529    0.02551213827473066    0.02458689755078891    0.02352306626072728    
  0.022776023603043292    0.022600380214054888    0.02301128150287009    0.023788742349316074    0.0245143948617707    
  0.0248055526724192    0.02978210206823967    0.029204695485520876    0.027708619443586355    0.025910526915694683    
  0.024443362184657303    0.02364991207255153    0.023593124333607537    0.024052699871552743    0.024586884520665812    
  0.024810456227280363    0.02458689015633165    0.02405270356108496    0.023593131453536947    0.023649900524288087    
  0.024443376364416507    0.025910524676459514    0.027708599073345924    0.029204691633755712    0.02978210206823967    
  0.040126959516500825    0.038901152125644156    0.03571830281992438    0.031764537803766583    0.02818364302781226    
  0.025598562131700087    0.024146908490726288    0.02359313516691129    0.023523057954943426    0.02355483757388676    
  0.023523056944877097    0.023593139569325062    0.02414690482784908    0.025598573013672635    0.02818364261627247    
  0.03176454227311235    0.03571830194286474    0.03890116829475334    0.040126959516500825    0.05921489754000023    
  0.05667279036592115    0.05014047572744354    0.0420787348074661    0.03469100810440766    0.029138648362804463    
  0.025598565472795185    0.023649904713922476    0.02277601876757733    0.022549931102969087    0.022776013742196632    
  0.023649917918312342    0.025598574325390592    0.029138634809319417    0.034691010283449585    0.042078722087113635    
  0.050140442824475814    0.05667278079006437    0.05921489754000023    0.09092577115298127    0.08603703731318084    
  0.07359842187186548    0.05846027492247974    0.04481389879590496    0.03469101849965435    0.028183647062157046    
  0.02444336638393547    0.022600383847963337    0.022062013114746534    0.022600374857097844    0.024443383188237217    
  0.028183636272954407    0.0346910171866719    0.04481391466573502    0.058460274322249456    0.07359836886347898    
  0.08603704904757459    0.09092577115298127    0.13671874641193443    0.1282847524398656    0.10690422881949173    
  0.0811580621417395    0.058460262106769446    0.042078728824220514    0.03176454972673555    0.02591051155770429    
  0.02301127634104383    0.022144669663441672    0.023011266806713865    0.025910525431449578    0.031764531207937985    
  0.04207872825422161    0.058460255269603134    0.08115808496531238    0.10690421334587268    0.12828474353315622    
  0.13671874641193443    0.19012832414360945    0.1774785856157631    0.1453716841428623    0.1069042162430244    
  0.07359837146012663    0.05014045611915293    0.03571829315553769    0.027708603921777663    0.023788738147970487    
  0.022612881623418624    0.023788749420571423    0.027708619491913257    0.03571830980317912    0.05014044880744602    
  0.073598381543723    0.10690419340226501    0.14537163466759248    0.17747850816312746    0.19012832414360945    
  0.2345434841282976    0.21848981710503235    0.17747855744507932    0.12828477247187015    0.08603702787904707    
  0.05667281980807954    0.03890118318322564    0.029204690586138095    0.02451439870736331    0.023111022254743332    
  0.024514403180774497    0.029204700955953625    0.03890117790839742    0.056672791716012444    0.08603706704813213    
  0.1282847631366338    0.17747853840272737    0.21848976610088205    0.2345434841282976    0.2518689998813697    
  0.23454355642477148    0.1901283304708754    0.13671875474076187    0.09092574041106147    0.05921488380242696    
  0.04012695620607077    0.02978208508281837    0.024805545471111096    0.02331770405218083    0.02480554957292732    
  0.02978208668919122    0.04012696363619462    0.059214893252378505    0.09092577403473957    0.13671875764361627    
  0.1901282704486908    0.23454345937778023    0.2518689998813697    0.37160389210660033    0.35095399677339484    
  0.28994038406227907    0.20613618523129246    0.13080549355916207    0.07958620087554645    0.05000318066970272    
  0.03466618597167713    0.027596889116952898    0.025548305933557936    0.02759688052092642    0.03466619279139516    
  0.050003195091166186    0.07958618166648238    0.1308055378998584    0.2061361913717231    0.28994021464810377    
  0.35095391524314345    0.37160389210660033    0.3509540073642735    0.32998798568575793    0.2707586081928599    
  0.19241380733399616    0.12297036596691989    0.0757422881788732    0.0483080322831824    0.0339693303480656    
  0.02731696637903212    0.02538267101110108    0.027316967015538027    0.03396933216399475    0.04830804594389799    
  0.07574225912122275    0.1229704278011064    0.19241382318076802    0.27075852888152047    0.3299879481677403    
  0.3509540073642735    0.28994031326224345    0.27075853799389843    0.2202031356516596    0.15746671863143374    
  0.10309712835624504    0.06591194656543128    0.04393404889437537    0.03222031931544606    0.02670727931693312    
  0.025095903237157716    0.0267072801956885    0.03222032543845593    0.04393407916116648    0.06591192383602863    
  0.10309715075465603    0.1574667179482631    0.2202031077138085    0.2707585059365977    0.28994031326224345    
  0.2061361871780048    0.19241373749420268    0.1574667572328737    0.11547802748166171    0.07923961881982561    
  0.053976399852421614    0.0386570332673169    0.030290807817816873    0.02629018241326768    0.025113682354207603    
  0.026290185070667254    0.0302908215122883    0.03865703492124421    0.05397639804034192    0.07923964293633824    
  0.11547802248385719    0.1574667353027646    0.19241376952186828    0.2061361871780048    0.13080552705986992    
  0.12297040508029006    0.10309715611749977    0.07923966256956946    0.058333841615652485    0.04338403428634017    
  0.03413635833322492    0.029032202774228303    0.026601796625207366    0.025900635536925187    0.026601807677363105    
  0.029032209990616467    0.034136369395934826    0.04338402365672711    0.05833387999401658    0.0792396511962441    
  0.10309711082210779    0.12297044655693529    0.13080552705986992    0.07958621202849901    0.07574226027320728    
  0.06591198298283056    0.053976398705965156    0.04338400410218966    0.03577419305189727    0.03119958669367109    
  0.028883508231618123    0.02795724124734739    0.02774594788945129    0.027957249198069713    0.02888352398788366    
  0.031199580936596808    0.03577416226239465    0.04338401560662624    0.053976419406706035    0.06591192341658846    
  0.07574226654307037    0.07958621202849901    0.05000316791514199    0.048308022546672075    0.04393407816062927    
  0.038657037764029685    0.0341363449159644    0.031199592670358038    0.029933481812513575    0.02987249633561805    
  0.03029211802775822    0.030527029494123864    0.03029211240602271    0.02987250980052501    0.02993347440813586    