#     DFTpy    
  CRYSTAL 
    
  PRIMVEC    
  3.0473793103448275    0.0    0.0    
  0.0    3.0473793103448275    0.0    
  0.0    0.0    3.0473793103448275    
  PRIMCOORD    
  2    1    
  Si    0.0    0.0    0.0    
  Si    1.5236896551724137    1.5236896551724137    1.5236896551724137    
  BEGIN_BLOCK_DATAGRID_3D    
  3d_datagrid_density    
  BEGIN_DATAGRID_3D#0    
  13    13    13    
  0.0    0.0    0.0    
  3.0473793103448275    0.0    0.0    
  0.0    3.0473793103448275    0.0    
  0.0    0.0    3.0473793103448275    
  0.05318531386512268    0.10538151543803483    0.28077492610498866    0.38410869449903906    0.30691995451610143    
  0.22088502964920048    0.19188032889053822    0.22088503000188325    0.30692002189440076    0.3841086760167246    
  0.28077494816393433    0.10538149103392068    0.05318531386512268    0.10538145910521113    0.16702743289835179    
  0.3270267606710825    0.3857249172571467    0.29999591367801637    0.21885948769874963    0.19168229105863488    
  0.2188595149456336    0.2999958019106056    0.3857249238153222    0.32702679128886125    0.16702743727296573    
  0.10538145910521113    0.280774911891222    0.32702676197858627    0.395771326543442    0.3680608453676534    
  0.2798921823672352    0.21361858735889247    0.19134281859591334    0.21361849614875808    0.2798921851299062    
  0.36806080183415424    0.3957714431552737    0.3270267526411589    0.280774911891222    0.38410872265514145    
  0.3857249548771179    0.36806089500666395    0.3131455421346559    0.2498745891755439    0.20633515547313938    
  0.19118682213264507    0.20633521271977004    0.24987462417373144    0.3131455713434715    0.36806082250615185    
  0.38572495535258705    0.38410872265514145    0.3069199156439231    0.29999586131326467    0.27989210550829247    
  0.24987462983771522    0.2199559676824074    0.19902182956071826    0.19134276831289315    0.19902181258854623    
  0.21995595226804063    0.24987462246698827    0.2798921469149264    0.2999958742533935    0.3069199156439231    
  0.22088507222778034    0.21885948490883408    0.21361855350659814    0.20633511691528858    0.19902190452066673    
  0.19369589624509992    0.19168233966926104    0.19369596660937563    0.19902183322416186    0.20633517559850334    
  0.21361853756508772    0.21885955107944713    0.22088507222778034    0.19188028514001998    0.19168239630714493    
  0.19134276424416977    0.19118684794625515    0.1913427655638182    0.1916823361645335    0.19188026126938204    
  0.19168233348534425    0.19134277894795299    0.19118681959667932    0.19134273976463453    0.19168237681449107    
  0.19188028514001998    0.22088498106671384    0.2188595636815001    0.21361850427620835    0.20633517268943624    
  0.19902185452569593    0.19369588384656475    0.19168229851247018    0.19369596062496477    0.1990218110046033    
  0.20633520741839423    0.21361855719979272    0.218859517418922    0.22088498106671384    0.3069199284490152    
  0.29999585576635124    0.27989207746460887    0.249874589237963    0.21995598988287876    0.19902186532622368    
  0.19134277717413856    0.1990218626482014    0.21995592567673952    0.24987457789384415    0.2798921996338988    
  0.29999584220613623    0.3069199284490152    0.3841087405452008    0.3857249089770097    0.3680608293240489    
  0.3131455531446766    0.2498746309179062    0.20633515900186258    0.191186858433724    0.2063351831918401    
  0.2498746236458432    0.31314555031769803    0.3680608419590104    0.38572488457214615    0.3841087405452008    
  0.2807748708112008    0.3270267890303146    0.39577131466635534    0.36806082208923274    0.27989213674185276    
  0.21361848718725412    0.19134275964299027    0.2136185037766464    0.2798921352407359    0.36806082657098227    
  0.3957713313619988    0.32702680119857364    0.2807748708112008    0.1053814915125222    0.1670274225239584    
  0.32702680599839523    0.3857248866722821    0.29999591421390537    0.2188595026634294    0.191682368013214    
  0.21885958681790016    0.2999957861662904    0.38572485671794066    0.3270268124294313    0.16702744237209605    
  0.1053814915125222    0.05318531386512268    0.10538151543803483    0.28077492610498866    0.38410869449903906    
  0.30691995451610143    0.22088502964920048    0.19188032889053822    0.22088503000188325    0.30692002189440076    
  0.3841086760167246    0.28077494816393433    0.10538149103392068    0.05318531386512268    0.10538147605557394    
  0.16702745103572825    0.3270268187939916    0.3857248366661469    0.29999584142288194    0.21885957321253166    
  0.1916823498301355    0.21885954955330153    0.29999586730089667    0.3857248469088356    0.32702679184131755    
  0.16702746124701554    0.10538147605557394    0.16702739741676118    0.22960580717454557    0.36263890976707264    
  0.38491030905811585    0.29540880471726016    0.2191678400474696    0.19369588791475537    0.21916790522765323    
  0.29540869255249497    0.3849103375266127    0.3626389878734196    0.22960577610824356    0.16702739741676118    
  0.3270268103058473    0.36263889784876424    0.4055743472340673    0.3654863278335385    0.28131149037025394    
  0.21977232798669794    0.1990218676840864    0.21977231640882028    0.2813114349732698    0.3654863467261869    
  0.40557439546620877    0.36263891748462956    0.3270268103058473    0.3857248212535908    0.38491042419526633    
  0.3654863953844687    0.31555053762346813    0.2592092564752489    0.22005703874323967    0.2063351370650615    
  0.22005708059652432    0.2592093145656375    0.3155505599040667    0.3654863239190849    0.3849103817766374    
  0.3857248212535908    0.2999958396320707    0.29540874489497004    0.2813114277957624    0.25920926865494137    
  0.23630544588135866    0.21977227122679968    0.21361857394723055    0.21977230930239866    0.23630539680438886    
  0.2592092530398126    0.28131147290039893    0.29540869827721383    0.2999958396320707    0.21885953694798208    
  0.21916787328609172    0.2197722958419342    0.22005702772907718    0.21977234784842267    0.21916787906631885    
  0.2188595395330405    0.21916791199323551    0.21977232094213958    0.22005707081182457    0.21977229673280768    
  0.21916790098818478    0.21885953694798208    0.19168233353285058    0.19369592277697892    0.19902188437358    
  0.20633518131585324    0.21361853310300352    0.21885956264207385    0.22088501061223842    0.2188595515830721    
  0.21361854702014993    0.20633515134252972    0.19902183836115409    0.1936959095461746    0.19168233353285058    
  0.21885947899194896    0.21916795885101686    0.21977229328903483    0.2200571027786175    0.21977232701183105    
  0.21916786274699385    0.21885954401273658    0.2191678888998841    0.2197722812888171    0.22005704425819073    
  0.21977232296029528    0.2191679166095435    0.21885947899194896    0.29999587085044316    0.2954087155518394    
  0.28131142256361263    0.2592092210907894    0.23630544214871627    0.21977230261708255    0.21361853808520784    
  0.21977231259308883    0.23630539958516825    0.2592092664538172    0.2813115210074695    0.2954086878476453    
  0.29999587085044316    0.3857248257805827    0.3849103954917011    0.36548635783527006    0.3155505551617605    
  0.25920925082612034    0.22005709632140366    0.2063351457431119    0.2200570801067333    0.25920926943401723    
  0.31555056176184815    0.3654863340970734    0.3849104178445371    0.3857248257805827    0.3270267706028806    
  0.3626388975326105    0.4055743706957068    0.36548638624236196    0.281311459181649    0.21977229686932298    
  0.1990218735720858    0.2197723002115086    0.281311429693835    0.3654863283618033    0.40557431969821084    
  0.3626389680339949    0.3270267706028806    0.1670274398479055    0.2296057758402532    0.3626389555573136    
  0.3849102949015075    0.2954088020116983    0.2191678746970854    0.19369595761819464    0.2191679187483094    
  0.2954086931718004    0.38491025803677825    0.3626389743363252    0.2296057833132326    0.1670274398479055    
  0.10538147605557394    0.16702745103572825    0.3270268187939916    0.3857248366661469    0.29999584142288194    
  0.21885957321253166    0.1916823498301355    0.21885954955330153    0.29999586730089667    0.3857248469088356    
  0.32702679184131755    0.16702746124701554    0.10538147605557394    0.28077488415627466    0.3270268464318901    
  0.39577135790114676    0.36806079098007743    0.2798921728052963    0.2136185113608411    0.19134280049863361    
  0.2136185035427596    0.2798921667044098    0.3680607999494932    0.39577134724988877    0.3270268436032734    
  0.28077488415627466    0.32702674328017245    0.36263897095602055    0.40557431234841435    0.3654863850960765    
  0.28131147926756234    0.2197722653795139    0.19902180081028797    0.21977230997096944    0.28131137010164337    
  0.3654864399693877    0.4055743338161546    0.36263892234748796    0.32702674328017245    0.3957713378539985    
  0.4055742950628744    0.4013116670133424    0.35057844325524423    0.2837408726141058    0.23630540522406046    
  0.21995598300417693    0.2363054174389956    0.28374086958430744    0.3505784711323583    0.40131173922442326    
  0.40557432441075647    0.3957713378539985    0.36806083180564014    0.3654864517916329    0.3505785083293372    
  0.31954947089791    0.2847340370588243    0.25920929707763285    0.24987456528265284    0.2592093459307341    
  0.2847340273690134    0.31954952608324555    0.3505784675272776    0.36548642649907304    0.36806083180564014    
  0.2798920818229573    0.28131146854149564    0.28374078719301726    0.28473402977409173    0.283740861084161    
  0.2813113899723631    0.27989216251613225    0.2813114452569098    0.2837408476317731    0.2847339910816936    
  0.28374084490504314    0.28131144713904055    0.2798920818229573    0.21361857495224254    0.21977223830091328    
  0.2363054405955237    0.2592092380311975    0.28131152909800566    0.29540871676811353    0.299995823090916    
  0.2954087681550427    0.2813114412617722    0.25920930106861156    0.2363054369439965    0.21977229114751737    
  0.21361857495224254    0.19134273919506462    0.1990219046367907    0.21995596635206416    0.24987464120007757    
  0.27989214239815646    0.2999958487726967    0.30691995465625277    0.29999581997290636    0.279892200756252    
  0.24987461363827804    0.2199559508350117    0.1990218729230596    0.19134273919506462    0.213618514301796    
  0.21977231031765024    0.23630543253715575    0.25920930081036514    0.28131150300933533    0.2954086530992655    
  0.2999958560104355    0.2954087750044137    0.2813114095450805    0.2592093067288034    0.23630541039220188    
  0.21977230954209964    0.213618514301796    0.2798920887478459    0.28131148462938277    0.2837408142725925    
  0.28473397878637846    0.28374082919258964    0.28131148102794135    0.2798921722588564    0.2813114405142418    
  0.2837407929703774    0.2847340096091915    0.2837408832052246    0.28131146177115135    0.2798920887478459    
  0.36806084674149164    0.3654864258629799    0.3505784773261185    0.3195494796391584    0.28473404513226985    
  0.25920928593093384    0.24987459216039118    0.2592093175658392    0.2847340099228618    0.31954955108599314    
  0.3505784798253693    0.36548638436910624    0.36806084674149164    0.395771250192838    0.40557432663975884    
  0.4013117449849341    0.3505785104038433    0.28374080534542495    0.2363053863369776    0.21995597161803807    
  0.2363054091339932    0.2837408000413273    0.35057847949534165    0.401311705233283    0.40557434490574634    
  0.395771250192838    0.32702681932366623    0.3626389180522488    0.40557438363222986    0.36548633992486235    
  0.2813114967583207    0.2197722813569194    0.19902187244135494    0.21977235522090144    0.28131138571864395    
  0.36548633367524985    0.4055743286579625    0.3626389337927472    0.32702681932366623    0.28077488415627466    
  0.3270268464318901    0.39577135790114676    0.36806079098007743    0.2798921728052963    0.2136185113608411    
  0.19134280049863361    0.2136185035427596    0.2798921667044098    0.3680607999494932    0.39577134724988877    
  0.3270268436032734    0.28077488415627466    0.3841087308937269    0.38572494770381616    0.36806087851292324    
  0.3131455622810411    0.24987459539927673    0.20633516818928568    0.19118680489568746    0.20633517611539237    
  0.24987463140177021    0.31314556792550596    0.3680608392761739    0.3857249226833549    0.3841087308937269    
  0.38572479448257585    0.3849103179680379    0.3654863039307194    0.3155506113688526    0.25920933993907846    
  0.22005699846727933    0.20633517594867534    0.220057041354982    0.2592092506640409    0.31555059779091216    
  0.36548636736015533    0.3849102673560799    0.38572479448257585    0.36806085082857426    0.36548633718817136    
  0.35057851356791664    0.319549520623645    0.28473409623903495    0.25920934367334963    0.2498746245659228    
  0.2592092632735133    0.2847340566310399    0.31954953614598947    0.35057861940833834    0.36548638597196575    
  0.36806085082857426    0.3131455476955829    0.3155506831104867    0.3195495155420869    0.3211373921457952    
  0.3195494960737505    0.31555054660805804    0.31314559022333766    0.3155506165053722    0.3195495718389679    
  0.3211373858234748    0.31954951713367863    0.31555062010610996    0.3131455476955829    0.2498745718915467    
  0.25920928367094087    0.28473401006715265    0.31954953965230504    0.3505785141322891    0.36548635423203807    
  0.36806082661812645    0.3654863876141876    0.35057846212885824    0.3195495461444639    0.284734054219924    
  0.2592092920340912    0.2498745718915467    0.2063351765326892    0.22005705435244555    0.2592092827735088    
  0.31555053891842283    0.36548645503931315    0.38491025235719556    0.3857249457720124    0.38491030903013185    
  0.3654864060522393    0.3155505412573596    0.2592092905249128    0.2200570849226659    0.2063351765326892    
  0.19118685821978024    0.20633517525582662    0.2498746393792249    0.31314556067332083    0.36806079044788914    
  0.38572489084579736    0.38410865470907063    0.3857248822342693    0.36806086625997075    0.3131455522226908    
  0.24987459797364614    0.2063351554952539    0.19118685821978024    0.20633511894261683    0.22005708580875608    
  0.25920923572661103    0.31555063836124847    0.36548637487240715    0.3849102815283209    0.38572488655454057    
  0.3849103318155135    0.3654863580696456    0.3155505740054056    0.2592093032911381    0.2200570738770501    
  0.20633511894261683    0.24987461211062573    0.2592092411413167    0.2847340308864932    0.31954945053342015    
  0.3505785566560622    0.36548640870717664    0.3680608625585231    0.36548640621971124    0.3505784785622453    
  0.3195495070205673    0.28473411085713507    0.2592092498686607    0.24987461211062573    0.31314552441532356    
  0.3155506525098402    0.31954947175027143    0.3211374428827192    0.31954950529248033    0.3155505657940558    
  0.3131456076224356    0.3155505588904298    0.3195495555579846    0.3211374010301174    0.3195495085695522    
  0.31555061488368774    0.31314552441532356    0.3680608428869623    0.36548631758695    0.35057853091666075    
  0.31954952870846576    0.28473404783913747    0.2592092615235402    0.24987460562577304    0.2592092857409504    
  0.28473403731853747    0.31954953213840087    0.3505785246315669    0.36548639007339306    0.3680608428869623    
  0.38572491444049173    0.38491031697215033    0.3654863284938291    0.3155505687857834    0.25920934655701555    
  0.2200570296311627    0.20633521165039792    0.22005711612812429    0.25920926007510586    0.31555055653146624    
  0.36548638572683373    0.3849103561783465    0.38572491444049173    0.3841087308937269    0.38572494770381616    
  0.36806087851292324    0.3131455622810411    0.24987459539927673    0.20633516818928568    0.19118680489568746    
  0.20633517611539237    0.24987463140177021    0.31314556792550596    0.3680608392761739    0.3857249226833549    
  0.3841087308937269    0.30691993790736244    0.2999958740517777    0.2798921550005404    0.24987460456973515    
  0.21995597473924708    0.19902184738018194    0.19134280875218604    0.19902182982583663    0.2199559798816957    
  0.24987459093744635    0.27989213235633825    0.29999587162275587    0.30691993790736244    0.2999958073512174    
  0.2954087350672106    0.28131139459774823    0.25920927256726695    0.23630546808873937    0.21977224375408508    
  0.21361848644487172    0.21977236631452282    0.23630534833306846    0.2592093304649866    0.2813114558379992    
  0.2954087256587968    0.2999958073512174    0.2798921560394433    0.28131141908911994    0.2837408059067279    
  0.28473400002725086    0.2837409044057866    0.2813114158200957    0.2798921617745986    0.28131138932556976    
  0.28374085946002947    0.2847340016090817    0.2837408836589698    0.2813114124931607    0.2798921560394433    
  0.249874564204122    0.2592093473207839    0.284734077888976    0.31954948803675826    0.35057842814602214    
  0.36548637143087653    0.36806080065255575    0.3654864422670296    0.3505785197018598    0.3195495283230516    
  0.2847340049137543    0.2592093556932699    0.249874564204122    0.21995594283244668    0.23630541331001384    
  0.2837407999778164    0.3505784722316471    0.40131173186905467    0.4055742397445798    0.39577141267209076    
  0.40557428815227925    0.40131170148884404    0.35057844838500185    0.2837408243016825    0.236305418812683    
  0.21995594283244668    0.19902187548887904    0.21977226540050696    0.2813114734116996    0.36548633832757355    
  0.4055744093578661    0.3626389479341135    0.3270267573576985    0.3626389631126757    0.405574287361446    
  0.3654863926668795    0.2813114236130315    0.2197722920453542    0.19902187548887904    0.19134275702751738    
  0.21361857419291078    0.2798921465451265    0.3680608526718615    0.39577131172603974    0.32702676811472825    
  0.28077492823900707    0.327026721665472    0.3957714106125274    0.3680607944367481    0.2798921101613229    
  0.21361855204220448    0.19134275702751738    0.1990218096868306    0.21977233925936598    0.28131143279584864    
  0.36548638562108005    0.4055743516316543    0.3626389322506974    0.32702673502873386    0.36263896049444166    
  0.40557424468616143    0.36548637413009033    0.28131142648886465    0.2197722946296967    0.1990218096868306    
  0.21995593172709707    0.2363054808997063    0.2837408050735191    0.35057846983488583    0.4013117129410899    
  0.4055743243511092    0.3957713452197285    0.4055743104553324    0.40131167299143583    0.3505784972986702    
  0.28374088338184716    0.23630542255764547    0.21995593172709707    0.24987459141137286    0.25920934190573997    
  0.284734049649364    0.3195494775950425    0.35057849393463797    0.36548642877144505    0.36806080568447663    
  0.3654864290273118    0.350578467077501    0.31954951242373547    0.28473399384746834    0.25920933594654466    
  0.24987459141137286    0.27989205932773203    0.28131141206467497    0.28374081653855204    0.284734060498559    
  0.28374080337817004    0.28131141142858884    0.2798921724420249    0.28131140839698027    0.2837408067234907    
  0.2847340063820825    0.28374081521209654    0.2813114510665845    0.27989205932773203    0.29999587941736505    
  0.2954087249454415    0.28131149340029427    0.2592092490860465    0.23630548382972122    0.219772300026345    
  0.21361856502863155    0.2197723391829238    0.2363053751965852    0.2592092354688859    0.28131144190638424    
  0.29540871557847    0.29999587941736505    0.30691993790736244    0.2999958740517777    0.2798921550005404    
  0.24987460456973515    0.21995597473924708    0.19902184738018194    0.19134280875218604    0.19902182982583663    
  0.2199559798816957    0.24987459093744635    0.27989213235633825    0.29999587162275587    0.30691993790736244    
  0.22088504261668415    0.21885958031073213    0.21361856794168427    0.20633514367682043    0.19902185789106908    
  0.1936959303027986    0.1916823488686516    0.19369593606619373    0.19902184942444576    0.20633516382870992    
  0.21361852305539877    0.21885956254512884    0.22088504261668415    0.21885952802804895    0.21916789833430514    
  0.21977226515307471    0.22005705635505515    0.21977233866906476    0.21916781330864873    0.21885952566154973    
  0.2191678684824027    0.21977226837782793    0.2200570814570446    0.21977234216858837    0.21916789273055964    
  0.21885952802804895    0.21361855179127104    0.21977226011974474    0.23630542815504524    0.2592092306633381    
  0.2813114687819316    0.2954087773412935    0.29999583021858733    0.2954087680831423    0.28131146901818493    
  0.2592092821227896    0.2363054742597906    0.2197722915336975    0.21361855179127104    0.20633514592394409    
  0.2200571368696651    0.25920929981593055    0.31555055084352185    0.365486392172094    0.384910324442442    
  0.3857249277543641    0.3849103354646348    0.3654864057352976    0.31555053000310257    0.2592092807770386    
  0.22005710789158867    0.20633514592394409    0.19902182342211916    0.21977230008915774    0.2813113934135192    
  0.36548636859190076    0.4055743274053019    0.3626389561274959    0.3270267874830334    0.36263896017349156    
  0.4055742895911632    0.3654863841953645    0.28131146338464424    0.21977229527233225    0.19902182342211916    
  0.19369593265092516    0.21916787117180392    0.2954087534102173    0.3849102287743777    0.3626391003500363    
  0.22960572679121938    0.1670274692922976    0.22960578837666976    0.362638947745644    0.38491029257705955    
  0.29540877111313674    0.21916790061977628    0.19369593265092516    0.1916823517883737    0.21885957899957828    
  0.2999958485669352    0.38572490356731765    0.32702677950283554    0.16702746597457935    0.10538145570393698    
  0.1670274888299982    0.32702678483685776    0.38572489404974536    0.2999958256072598    0.218859550344531    
  0.1916823517883737    0.1936958340369584    0.21916793654749758    0.29540875806995026    0.38491034815635333    
  0.362639052631854    0.22960570170225325    0.16702747363530987    0.22960577908832916    0.36263893623145166    
  0.38491032646001644    0.2954087426975586    0.21916790554903476    0.1936958340369584    0.1990218445582388    
  0.2197723194627151    0.28131148007123985    0.36548631151620986    0.40557434425123134    0.3626390146665219    
  0.32702678519131806    0.36263900672108396    0.4055742486113059    0.3654863562257209    0.2813114981176677    
  0.21977230795080027    0.1990218445582388    0.2063351507678702    0.22005708891562917    0.25920922728168394    
  0.3155505759432231    0.3654863810985767    0.38491031025865974    0.38572488549105716    0.3849103440354303    
  0.3654863945736011    0.3155505581373119    0.2592092656280526    0.2200570931455309    0.2063351507678702    
  0.21361853329518202    0.21977227821228354    0.23630547040096186    0.2592092645708921    0.2813114368013007    
  0.2954087178033439    0.29999583888942927    0.2954087428112043    0.2813114316495986    0.2592092885627615    
  0.2363054127827205    0.2197722972501142    0.21361853329518202    0.2188595547303995    0.21916788120582448    
  0.21977230397221112    0.22005707645920294    0.21977237917286854    0.21916784592414537    0.21885959376876363    
  0.21916792230875504    0.21977227572727093    0.22005705912329074    0.21977230377192697    0.21916788285925312    
  0.2188595547303995    0.22088504261668415    0.21885958031073213    0.21361856794168427    0.20633514367682043    
  0.19902185789106908    0.1936959303027986    0.1916823488686516    0.19369593606619373    0.19902184942444576    
  0.20633516382870992    0.21361852305539877    0.21885956254512884    0.22088504261668415    0.19188030417176527    
  0.19168239030144596    0.19134277749063897    0.19118681412586494    0.19134275769787257    0.19168230850092033    
  0.19188033995112122    0.1916823109404312    0.19134280166255102    0.19118680421292109    0.19134280482892632    
  0.1916823450711331    0.19188030417176527    0.1916822847188576    0.19369590031522307    0.1990218250529234    
  0.2063351994540533    0.21361856843943067    0.21885949978393715    0.22088497448008118    0.21885952716952065    
  0.21361848404280426    0.20633519614549986    0.19902183820077735    0.19369590510955    0.1916822847188576    
  0.1913427793287686    0.19902182131006754    0.21995596131850603    0.24987460410367274    0.2798921926848415    
  0.29999589784002856    0.3069200652878001    0.2999957963601551    0.27989219735009646    0.24987456744241557    
  0.2199560469369099    0.19902180868706118    0.1913427793287686    0.1911868210387356    0.2063351991039515    
  0.24987463639821061    0.31314555717594256    0.3680607853727193    0.3857248849227369    0.3841086943677729    
  0.3857249750535087    0.3680608212604667    0.313145585415692    0.24987458848153127    0.20633521392222387    
  0.1911868210387356    0.1913427286192239    0.21361853545725382    0.2798921302269483    0.36806085294299595    
  0.39577135952752013    0.32702674743123006    0.280774929560975    0.32702672410638456    0.39577130746724776    
  0.36806083325499206    0.2798921508393974    0.21361854885086737    0.1913427286192239    0.19168235556835078    
  0.21885950232486392    0.29999584597276374    0.3857248311763644    0.3270268428389674    0.1670274544240082    
  0.10538146275873657    0.16702751951626726    0.3270267453379863    0.3857248859785776    0.2999958410065908    
  0.21885956109448662    0.19168235556835078    0.19188029509078847    0.22088508504639345    0.30692000224891763    
  0.38410870880196946    0.2807749233662027    0.10538145553875267    0.05318531103150513    0.105381452044912    
  0.2807749558857941    0.38410867378512237    0.30691996711305614    0.22088506704919278    0.19188029509078847    
  0.19168226844161437    0.21885958081986198    0.29999580543583265    0.38572490707317214    0.3270267734319921    
  0.16702743631312003    0.10538143201916352    0.167027497468982    0.32702672709818925    0.38572495072020296    
  0.2999958663881067    0.21885953287307175    0.19168226844161437    0.1913427469734721    0.2136185372101342    
  0.2798920796142528    0.3680607914705615    0.3957713830594221    0.3270267941409178    0.2807749519871233    
  0.32702680889397573    0.39577130350338147    0.3680607721450507    0.279892222737265    0.21361852260332187    
  0.1913427469734721    0.19118685349983414    0.2063352027523465    0.24987458958841666    0.31314556483151856    
  0.36806082409358165    0.3857249090954447    0.38410873125364936    0.3857249328674222    0.36806082226605774    
  0.3131455565081641    0.24987461067622171    0.20633517684243308    0.19118685349983414    0.19134273378896668    
  0.1990218387634498    0.2199559498060189    0.24987459618583707    0.27989214408028174    0.2999957727260391    
  0.30691999341270615    0.299995805104715    0.2798921500436383    0.24987459928030892    0.21995597320382834    
  0.19902185511562484    0.19134273378896668    0.19168234480277607    0.19369589032263093    0.1990218481662864    
  0.2063351672460467    0.21361857341060686    0.21885951601530174    0.22088505173474013    0.21885960021744189    
  0.2136184857797475    0.2063351565847213    0.19902185821812562    0.1936959161797356    0.19168234480277607    
  0.19188030417176527    0.19168239030144596    0.19134277749063897    0.19118681412586494    0.19134275769787257    
  0.19168230850092033    0.19188033995112122    0.1916823109404312    0.19134280166255102    0.19118680421292109    
  0.19134280482892632    0.1916823450711331    0.19188030417176527    0.2208850196066765    0.21885954069059532    
  0.21361854641457792    0.20633513982413684    0.1990218413696034    0.19369595184804997    0.1916823426941507    
  0.19369592559909812    0.199021853229937    0.20633514234645808    0.21361851790097766    0.21885955802721763    
  0.2208850196066765    0.21885948309921366    0.21916790248401466    0.21977226822969884    0.22005704910248863    
  0.21977237855228424    0.2191678249054263    0.2188595089202019    0.21916789861618063    0.2197722880379634    
  0.22005706275441503    0.2197723386592572    0.2191678729285004    0.21885948309921366    0.213618540730886    
  0.2197722747565795    0.23630543091181    0.2592092596431919    0.28131147870462503    0.295408784575711    
  0.2999958627029447    0.2954087597806918    0.2813114331332793    0.25920926020844504    0.23630547296748627    
  0.21977228802864618    0.213618540730886    0.2063351140815795    0.22005713746696992    0.25920929992089414    
  0.3155505051801588    0.3654863454876895    0.38491026401314915    0.3857248760136139    0.384910336806236    
  0.36548642661614344    0.3155505430803314    0.25920926928804483    0.2200571134408221    0.2063351140815795    
  0.19902183457289493    0.21977231937933242    0.28131142450817265    0.365486388438634    0.40557431580087044    
  0.36263893304001715    0.32702682421109824    0.36263898686518226    0.405574248605578    0.36548635314138483    
  0.28131144267569425    0.21977228790112321    0.19902183457289493    0.193695930928816    0.21916786031450436    
  0.29540874319467014    0.38491024659966383    0.3626390629032728    0.22960574744860215    0.16702746285244677    
  0.2296057775170292    0.3626389952949219    0.3849102896344464    0.2954087369571837    0.2191679031155401    
  0.193695930928816    0.19168232597375837    0.21885955854023714    0.29999585818789004    0.3857249371013407    
  0.3270267404892477    0.16702748636674836    0.10538145077132484    0.16702747328158352    0.32702678509208843    