#     DFTpy    
  CRYSTAL 
    
  PRIMVEC    
  3.675529233145004    1.537705227471724e-05    -3.8553103448275867e-13    
  -1.8377512996538228    3.1831094688291324    -7.543103448275862e-12    
  -6.339586206896552e-13    -1.4687544827586206e-11    6.043141156285051    
  PRIMCOORD    
  4    1    
  Si    9.14980533373493e-06    2.1220779545614428    3.398504438278968    
  Si    1.8377687836815404    1.0610468912939277    0.3769338155124789    
  Si    9.149806714607928e-06    2.1220779545605666    5.666207296145649    
  Si    1.837768783687505    1.0610468913175017    2.644636762617149    
  BEGIN_BLOCK_DATAGRID_3D    
  3d_datagrid_density    
  BEGIN_DATAGRID_3D#0    
  17    17    27    
  0.0    0.0    0.0    
  3.675529233145004    1.537705227471724e-05    -3.8553103448275867e-13    
  -1.8377512996538228    3.1831094688291324    -7.543103448275862e-12    
  -6.339586206896552e-13    -1.4687544827586206e-11    6.043141156285051    
  0.055702111808649486    0.06124684842180407    0.08042249550528041    0.12029994268855053    0.19108082709014634    
  0.3008559559456991    0.4394130870169807    0.5639671109633146    0.6153432074158613    0.5639670401105222    
  0.4394131694128222    0.30085597451761764    0.19108076989104292    0.12029993464365557    0.08042247915984124    
  0.061246845417573456    0.055702111808649486    0.061246855221064246    0.061247500341776846    0.07361091138886293    
  0.10325103754301672    0.15924533256489923    0.25145516840243404    0.3788492741069447    0.5121404959047773    
  0.599007305169747    0.5989854622001286    0.5120824608683479    0.3788838315253118    0.25148191134957726    
  0.15922625572475332    0.10325184771771277    0.07361243507009155    0.061246855221064246    0.08042250096827996    
  0.07361091290500638    0.08042328110268876    0.10325334288080144    0.14935358390103498    0.22836165602517672    
  0.34085681766553    0.4592596011527    0.5382560388881021    0.5625238852973982    0.5383233376194059    
  0.45926627059208897    0.3407955877035853    0.2283656480391392    0.14937110205090237    0.10325184795419787    
  0.08042250096827996    0.12029995725001245    0.10325103561604042    0.10325333941169518    0.12029470550699739    
  0.15924845720839945    0.22835975068484982    0.327378992599488    0.4214355550029928    0.45280905746480904    
  0.4346466900297878    0.43462198465906515    0.45278889633723196    0.42148348809942143    0.32738558240674176    
  0.22836565726084648    0.15922627344038023    0.12029995725001245    0.19108078555791463    0.1592453494607809    
  0.14935356882032244    0.1592484577886897    0.1910617978188425    0.25148321625809805    0.34082050691820204    
  0.4214683691576442    0.41228566627457025    0.3249513748480055    0.2785872164052234    0.3249476838935267    
  0.41226897815289126    0.4214834957767745    0.34079549280957094    0.25148193240074085    0.19108078555791463    
  0.30085594924450937    0.25145522864536973    0.22836160484053358    0.2283597557013908    0.25148324605761563    
  0.3008649072200729    0.378856015388807    0.4592950460307061    0.45281411805389776    0.3249274939543281    
  0.21555786967175233    0.21557246196768862    0.3249477087214725    0.45278890525985915    0.45926623974348085    
  0.3788837314960168    0.30085594924450937    0.43941316188949703    0.37884924111245266    0.3408567674054886    
  0.32737900368768913    0.3408205118820042    0.37885608068859733    0.4394474164010291    0.5120995579166903    
  0.5383060318945009    0.4346011676163525    0.2786383972891816    0.21555786676278188    0.2785872194025614    
  0.4346221140125033    0.5383233550775359    0.5120824800645458    0.43941316188949703    0.5639670642229094    
  0.5121405546124929    0.45925952167846457    0.42143553788324767    0.42146831824523884    0.4592949411835924    
  0.5120994871441802    0.5639949588744191    0.5990233420784378    0.562550920904188    0.4346011709515097    
  0.32492749619444317    0.3249513529341782    0.43464667187021333    0.562523929305178    0.5989855767386125    
  0.5639670642229094    0.6153431905041511    0.5990073036101499    0.5382560981862438    0.45280901973801196    
  0.41228572103730593    0.4528141284693538    0.5383060249695242    0.5990235017045313    0.615341447601325    
  0.5990233491477314    0.5383060691178297    0.4528142094475411    0.4122856544528328    0.452809071699561    
  0.5382560102640693    0.599007217495772    0.6153431905041511    0.5639670970482562    0.5989855442977996    
  0.5625240394073362    0.43464665617716924    0.3249513958753614    0.3249275247793562    0.43460124837308733    
  0.5625508938554077    0.5990234620230579    0.5639948675266542    0.5120995946046405    0.45929502099881614    
  0.421468435215375    0.4214356487828105    0.4592595882530256    0.5121404085999436    0.5639670970482562    
  0.4394131656579065    0.5120824871747556    0.538323376270203    0.43462197224478405    0.2785872413137592    
  0.2155578627381217    0.27863835018276967    0.4346011666792489    0.5383062194314817    0.5120995677489115    
  0.4394474280870422    0.3788560534972016    0.3408205360895601    0.327379011327173    0.3408568057590912    
  0.3788492489517335    0.4394131656579065    0.3008559716032892    0.3788838211226686    0.4592662374356529    
  0.4527889089886413    0.32494767725562834    0.21557243697755193    0.21555789072667855    0.32492751731575575    
  0.45281417435910243    0.45929495942241116    0.3788560495718978    0.3008649666030572    0.2514832881494783    
  0.2283597123484687    0.22836163118230351    0.2514551737918016    0.3008559716032892    0.19108081135576102    
  0.25148191036166334    0.3407955651682041    0.42148343372054    0.41226899824372953    0.3249476997131134    
  0.2785872099515741    0.3249514780369102    0.41228567154215456    0.4214682840561695    0.34082044928913996    
  0.2514832506749427    0.19106178542473562    0.15924848094229463    0.1493535474499928    0.15924531612939294    
  0.19108081135576102    0.12029994405304727    0.15922627723317817    0.22836564203357151    0.3273855979746078    
  0.42148342405416517    0.45278879446666226    0.4346220105766479    0.43464659712449527    0.4528090086234659    
  0.42143554556941254    0.3273789728093508    0.22835974586203164    0.1592484925186337    0.12029472765660508    
  0.10325335107296515    0.10325102323845384    0.12029994405304727    0.08042249692024307    0.10325187238528385    
  0.1493711136886749    0.2283656380429249    0.3407955644346035    0.45926622536124095    0.5383233559014352    
  0.5625239880718034    0.5382559687786486    0.45925956293410614    0.3408568151479692    0.22836162318939293    
  0.14935359589031777    0.10325337117451869    0.08042327413584313    0.07361090251497104    0.08042249692024307    
  0.061246852952703455    0.07361245589837898    0.10325185724706833    0.15922625834628343    0.2514819125252452    
  0.37888368377891424    0.5120823730743996    0.5989854563708635    0.5990072469602064    0.5121404812745488    
  0.37884926004023417    0.2514552055177766    0.15924530742181356    0.1032510266207311    0.07361089411656103    
  0.06124749448618614    0.061246852952703455    0.055702111808649486    0.06124684842180407    0.08042249550528041    
  0.12029994268855053    0.19108082709014634    0.3008559559456991    0.4394130870169807    0.5639671109633146    
  0.6153432074158613    0.5639670401105222    0.4394131694128222    0.30085597451761764    0.19108076989104292    
  0.12029993464365557    0.08042247915984124    0.061246845417573456    0.055702111808649486    0.054890399075846724    
  0.06016249184322156    0.07830351395155227    0.11581737368196053    0.18201368081065689    0.2837234069709737    
  0.4106080925702558    0.5236336314040316    0.5700393724469619    0.5236094251049247    0.41064211278387414    
  0.28373491717570437    0.18198618215183426    0.11582243276122925    0.07830627729143404    0.06016223633832051    
  0.054890399075846724    0.060162250729608055    0.060162087936484435    0.07261339879301278    0.102392840235918    
  0.15864193680148772    0.25089529546522316    0.375741020337967    0.5008535258192235    0.5783503720219386    
  0.5783527724276124    0.5007997569827954    0.37574260596789677    0.2509371410469824    0.15863485438621067    
  0.10239034302787675    0.07261406086453186    0.060162250729608055    0.07830628810687516    0.07113511505860452    
  0.07830642136288841    0.10238925218765606    0.15136279995116467    0.23517963860758945    0.3502294673635347    
  0.4569552515498279    0.509193641463988    0.5184573916897487    0.5092459325109727    0.4569670391760846    
  0.350168998217588    0.23518842808513138    0.15137051873704221    0.10239035729475165    0.07830628810687516    
  0.11582244137376563    0.09725957989274946    0.0972674237681621    0.11581365896354519    0.15864955745047174    
  0.23517780724813958    0.3402079483748037    0.4165107539327042    0.3958407454633784    0.3359157351590306    
  0.3359008664446061    0.3958205124688498    0.4165943107881116    0.34018261872673694    0.23518843099162962    
  0.15863487704144993    0.11582244137376563    0.18198620443011965    0.14609091143987096    0.13501014053161736    
  0.14609019362259712    0.18198463182469427    0.25093279600142354    0.350176598109058    0.41656952231712624    
  0.3434147488378733    0.20470684394446523    0.14977404889106483    0.20471221888256722    0.34337414685152845    
  0.4165943111666772    0.35016893629849394    0.25093714580331233    0.18198620443011965    0.2837348671765152    
  0.22560682570855783    0.19904001659947027    0.19903524462173566    0.2256195132578331    0.2837360401128131    
  0.3757392739859328    0.4569913997694931    0.39585063517313396    0.20467466774719772    0.09276826424268228    
  0.0927618047087031    0.20471222236764183    0.39582046330647774    0.4569669973150699    0.3757425788515181    
  0.2837348671765152    0.4106422056434833    0.33531608073706737    0.2917698063537783    0.2773686792493006    
  0.29176138950168656    0.335326966344703    0.41064903219768356    0.5008190409679577    0.5092249276546157    
  0.33588211107650745    0.14980723279468766    0.09276827431133532    0.14977411310019292    0.3359009225897978    
  0.5092459922307476    0.5007997940403575    0.4106422056434833    0.5236093898331375    0.45214528002810483    
  0.39802969479891187    0.3677026931131711    0.3676984495410705    0.39805651579452295    0.4521305386987822    
  0.5236358270764061    0.5783921711275443    0.518468902846475    0.3358820969213939    0.2046747315425622    
  0.20470686590647766    0.33591572270380105    0.5184574626001963    0.5783528544629202    0.5236093898331375    
  0.570039423444136    0.5306863355092697    0.4830470431852983    0.43656571601258387    0.4158187213474077    
  0.43656993366418545    0.48307034283086275    0.5307014508227941    0.5700295245531959    0.5783921049576338    
  0.5092249595990088    0.39585064864766045    0.3434147785231343    0.3958407939938483    0.5091935957788624    
  0.5783503556205722    0.570039423444136    0.5236336637998635    0.5306547909646802    0.5150024067536104    
  0.4650203954709573    0.4155670043966888    0.41555373790173966    0.4650175751567949    0.515007544513716    
  0.5307014251347801    0.523635764354872    0.5008189938194035    0.45699147481499286    0.41656960336327004    
  0.4165108455291316    0.4569551523561775    0.5008534935468608    0.5236336637998635    0.41060819935792214    
  0.45211204250086956    0.4830854315049506    0.46501664150369354    0.4051746299687043    0.3728799159298628    
  0.40519566545333346    0.4650175441699911    0.483070473739433    0.4521306081191313    0.41064905504485333    
  0.37573928632494363    0.35017666243632783    0.34020795839930346    0.3502294120419039    0.37574098238690296    
  0.41060819935792214    0.2837234398617911    0.3353546940061932    0.3980422349116102    0.4365453350067123    
  0.41556070423214864    0.3728842360711133    0.3728799235482504    0.4155537626827006    0.4365699986729975    
  0.39805654211336994    0.33532694234756905    0.2837360775729005    0.2509328399213918    0.2351777427823773    
  0.23517961954526426    0.25089533500902494    0.2837234398617911    0.18201366403194574    0.22561967761556276    
  0.2917270855748083    0.36770574720515564    0.4158269538180801    0.4155606362679925    0.4051746401212195    
  0.4155670249170291    0.4158187154359518    0.36769839532274573    0.2917613396548575    0.2256194964518163    
  0.18198460127413427    0.1586495624646483    0.15136276568520932    0.1586419247466362    0.18201366403194574    
  0.11581737636962858    0.14606240715471652    0.19903687613023793    0.2773971823504536    0.3677057161620482    
  0.43654526193809357    0.46501664010920113    0.46502042253307163    0.4365657119367744    0.3677027258183937    
  0.27736865178558956    0.1990352509797625    0.14609023137981644    0.11581367573757591    0.10238926269463033    
  0.10239281347568503    0.11581737636962858    0.07830350636949368    0.09726441770462935    0.13503429440233344    
  0.19903683725199467    0.29172708478443055    0.3980421938428039    0.48308538087373776    0.515002413979913    
  0.48304691683480677    0.3980296657301934    0.29176981478408637    0.19904003161278028    0.1350101594367252    
  0.09726744316543434    0.0783064201854471    0.07261339266046772    0.07830350636949368    0.06016249201372413    
  0.0711363974876874    0.09726439219583889    0.14606236521191723    0.22561968325332507    0.3353546200089452    
  0.45211194914878544    0.5306547586280939    0.5306862942834603    0.45214525366533176    0.33531610906814324    
  0.2256068305860558    0.14609087182193822    0.09725958916953681    0.07113509841681252    0.06016207967945856    
  0.06016249201372413    0.054890399075846724    0.06016249184322156    0.07830351395155227    0.11581737368196053    
  0.18201368081065689    0.2837234069709737    0.4106080925702558    0.5236336314040316    0.5700393724469619    
  0.5236094251049247    0.41064211278387414    0.28373491717570437    0.18198618215183426    0.11582243276122925    
  0.07830627729143404    0.06016223633832051    0.054890399075846724    0.052596753920314404    0.05718660643589198    
  0.07272880665792744    0.10419619856778192    0.15856709325223628    0.24017008471906873    0.3395010907165247    
  0.4262342325523226    0.4614493315101671    0.426211820605846    0.3395456299224222    0.2401818462988376    
  0.15853581357657454    0.10420267970578233    0.07273170209784562    0.05718640986302925    0.052596753920314404    
  0.05718642041620401    0.05718620608693784    0.06855730755181856    0.09543099363450348    0.145392066680759    
  0.22592524122038427    0.33251330889789327    0.4361540884534918    0.49838725002505385    0.49839561278461686    
  0.43610280315768113    0.3325068326924104    0.2259665860361116    0.14538930027974306    0.09542788745016444    
  0.06855862558016046    0.05718642041620401    0.07273172012177763    0.06597716376704438    0.07273234294948415    
  0.0954261428938533    0.14143342845418827    0.21950019286259595    0.3247872925775259    0.41822438913871934    
  0.45874435693000437    0.4636246690233314    0.4587960903523246    0.41823535773067555    0.3247355421774653    
  0.21951105333419504    0.14143821046541774    0.09542789774567033    0.07273172012177763    0.10420268999153576    
  0.08648020704359259    0.08648714181987677    0.1041939215239956    0.14539909860502426    0.21950087145823333    
  0.32107008484283234    0.3918108303427803    0.3652771926007382    0.3035059473505881    0.3034885063269243    
  0.36526037265603434    0.39189735164516454    0.32103920565957816    0.21951105245761157    0.14538931073769    
  0.10420268999153576    0.1585358325675303    0.12395726982625475    0.11338285909155181    0.12395606613210618    
  0.15853928781782103    0.2259605738444898    0.3247348843136676    0.3918720179407373    0.3193480020499735    
  0.1839461250999213    0.13162720772597483    0.1839523490435202    0.319306571975275    0.3918973743553204    
  0.3247354873300279    0.22596660241590494    0.1585358325675303    0.2401818293536476    0.18345185094342545    
  0.15805289574701126    0.15805195813638281    0.1834541043585608    0.24018264840526007    0.3325083569380758    
  0.41825709717917164    0.36528615811480036    0.18391559675983152    0.07971617752491393    0.0797109924518914    
  0.18395234656029483    0.3652603036855282    0.4182354101264548    0.33250677184390137    0.2401818293536476    
  0.33954565004419995    0.26357987111970826    0.22186625424035686    0.20860423251559743    0.2218662469366789    
  0.26358934399586315    0.3395414795336046    0.4361194244187538    0.458772092423356    0.3034700087632421    
  0.13165861358039002    0.07971617159658873    0.1316272187231137    0.30348853254998753    0.4587961063561017    
  0.43610283462151084    0.33954565004419995    0.42621177660596227    0.34795815878207587    0.29630349620208696    
  0.2712640514936356    0.27124841693836416    0.2963247358621044    0.34795290461724593    0.4262337329242667    
  0.49842549021896176    0.46363636802978164    0.30347002083261526    0.1839156465469004    0.1839461697221437    
  0.30350593784091096    0.46362465916290846    0.498395678923885    0.42621177660596227    0.46144933455642734    
  0.4047931786395663    0.3594658155212956    0.3301851717537198    0.31957537613219866    0.33018814917072437    
  0.35947068044255875    0.4048072616361355    0.46143662492145815    0.49842545968498053    0.4587721226648286    
  0.36528617670544056    0.3193479901854192    0.3652771937672716    0.4587442989314013    0.4983872661645651    
  0.46144933455642734    0.42623420556368463    0.40477072988858553    0.384658394720827    0.36518215629129164    
  0.3509322861182336    0.3509265096924152    0.36519672260718455    0.38465661833119913    0.4048071804788789    
  0.4262337280025664    0.436119378750931    0.4182571825454758    0.3918720957075281    0.3918108619520561    
  0.4182243474338486    0.43615403506790695    0.42623420556368463    0.33950108204034374    0.3479402801706299    
  0.3594824732395492    0.3651873163297406    0.3606941056721595    0.3566057637622091    0.3606953438652597    
  0.3651966981702129    0.35947070904673345    0.34795292483194923    0.33954147759723413    0.33250834269167406    
  0.32473490442160113    0.3210701436334909    0.32478725598481323    0.33251325924250485    0.33950108204034374    
  0.24017008716488775    0.2636163021772565    0.2963153246387959    0.33016924528207914    0.350928600397596    
  0.3566028686625642    0.3566057793459147    0.3509264762369286    0.33018820977725616    0.2963247705211098    
  0.26358928683469246    0.24018267115164457    0.22596059385663028    0.21950083384135577    0.2195001417975154    
  0.22592522638569523    0.24017008716488775    0.1585670661873099    0.18345507429573357    0.22183301802452365    
  0.27125345193563394    0.319586745402407    0.3509285995445193    0.3606940993398391    0.3509323138183676    
  0.31957535545756677    0.27124840943087103    0.22186618148233525    0.18345410596359743    0.15853925145979053    
  0.1453990977971138    0.14143339560730436    0.14539206876485725    0.1585670661873099    0.10419620286488832    
  0.1239309203398432    0.15805003363913092    0.20863560300759332    0.27125345482620306    0.33016919742444434    
  0.3651873263275858    0.3651821984782406    0.3301850980033564    0.27126401391369753    0.20860424750718806    
  0.15805195844182754    0.12395608366820389    0.10419395126883779    0.09542613991989304    0.0954309679398551    
  0.10419620286488832    0.07272881056874454    0.0864843069794244    0.1134051955507031    0.1580500219814809    
  0.2218329952577248    0.2963153470200472    0.35948242485962184    0.384658410936138    0.35946577674651936    
  0.29630350714887277    0.22186621293230693    0.15805289888721727    0.11338287294557403    0.08648716500251817    
  0.0727323311844953    0.06855730622841505    0.07272881056874454    0.05718661742939715    0.06597860788010831    
  0.08648428339655119    0.12393088229151744    0.18345503559336201    0.2636162630777253    0.3479402371425252    
  0.40477067289191354    0.4047930985929974    0.34795811930490345    0.2635798559442804    0.1834518744456483    
  0.12395725345807128    0.08648020139856205    0.06597715339588511    0.057186185063090846    0.05718661742939715    
  0.052596753920314404    0.05718660643589198    0.07272880665792744    0.10419619856778192    0.15856709325223628    
  0.24017008471906873    0.3395010907165247    0.4262342325523226    0.4614493315101671    0.426211820605846    
  0.3395456299224222    0.2401818462988376    0.15853581357657454    0.10420267970578233    0.07273170209784562    
  0.05718640986302925    0.052596753920314404    0.049466695734366156    0.053160050431455955    0.06543199853702973    
  0.08955170333956122    0.12987745220838587    0.1885086304323653    0.25809590231352    0.3177020898511109    
  0.34157400811118477    0.3176926895007751    0.2581347530665045    0.18851255337606043    0.12985794807145815    
  0.0895573615374366    0.0654333065922895    0.05316028970117582    0.049466695734366156    0.05316029092874385    
  0.053159831843337765    0.06273269573958258    0.08505019550403185    0.1254801228297155    0.18903680239577342    
  0.2722193285757217    0.35353362089921375    0.40302743890072906    0.40302408231748377    0.35348957863195457    
  0.27222108475886647    0.18906683565309484    0.12547646239844024    0.08505027088829328    0.06273328687666138    
  0.05316029092874385    0.06543332768979604    0.05960714258984483    0.06543343080402968    0.08504920127266255    
  0.12444887893085568    0.1906507087152164    0.28157996735680224    0.3701778696715977    0.4208841197412496    
  0.43356036631811395    0.4209488179181465    0.3701768846476172    0.2815480919129041    0.19065935607189208    
  0.12445274332648915    0.0850502785282122    0.06543332768979604    0.08955737598927889    0.07417793960219375    
  0.07418282404427887    0.08955041640782478    0.1254835161805666    0.1906482041673448    0.28472166217344286    
  0.369936431919717    0.38803786780648475    0.3611525385902147    0.3611206719880666    0.38802699651988126    
  0.3700043023660357    0.2846999788265985    0.19065931780387385    0.1254764663093676    0.08955737598927889    
  0.12985796139568337    0.10003219798471459    0.09100080528176314    0.10003194160881872    0.1298583096190094    
  0.1890655855758346    0.28154387228069827    0.3699912931215704    0.36460271665418775    0.2772721561494949    
  0.23179296983495581    0.27727004721946946    0.36458031249231637    0.3700043613488437    0.2815480000405205    
  0.18906684568405724    0.12985796139568337    0.1885125463978266    0.13977582311377731    0.1183810752409862    
  0.11838337726574838    0.13977464921997632    0.18851455799696853    0.27221714620452847    0.3701917374856135    
  0.38804103898479836    0.2772480539534117    0.17722455098936118    0.17724595888048622    0.27727001253515604    
  0.38802703288850093    0.3701768686153796    0.27222104328207486    0.1885125463978266    0.2581348103212992    
  0.19154306080109718    0.15649188033070485    0.14559631765558137    0.1564910048047553    0.19154828625131634    
  0.2581335290139767    0.3534993823264738    0.42093391499068317    0.36109096660654905    0.23184940782085905    
  0.17722453919305434    0.23179296922914702    0.3611207346188072    0.4209488819233918    0.35348960594517576    
  0.2581348103212992    0.3176926286847179    0.24473451242032834    0.2001700463264261    0.17978099212237336    
  0.17977053637802287    0.20018518847872607    0.24472790950374668    0.3177105611153965    0.4030334868642149    
  0.433589385645532    0.36109095217174614    0.27724811774650443    0.27727219447287016    0.361152580766954    
  0.4335603398143429    0.40302414740977155    0.3176926286847179    0.3415740191494006    0.2799857279535422    
  0.23714339603780513    0.21336717377066675    0.20576736918190636    0.21336779106942258    0.23714740264861103    
  0.2799913773324693    0.3415732777011921    0.4030334988750681    0.4209338807625279    0.38804102629130166    
  0.3646027321705132    0.3880378815659337    0.42088405376609556    0.4030274374791732    0.3415740191494006    
  0.3177020781692558    0.27997264572848646    0.25192452403898863    0.23451750042286498    0.22641303156433107    
  0.2264118521266694    0.2345242952083052    0.2519257124750439    0.27999136325062407    0.3177105427917889    
  0.3534992859325116    0.37019181183578775    0.3699912425723543    0.369936462573839    0.3701777903133517    
  0.3535336106058183    0.3177020781692558    0.2580958851202017    0.24472583855089186    0.2371513055362447    
  0.23451962805750004    0.2342134390933551    0.23444891255872058    0.23421570373488657    0.23452431304604326    
  0.23714743369792687    0.24472794910001042    0.2581335014239592    0.2722171600394219    0.28154389978956973    
  0.28472172058876344    0.2815799508885546    0.27221925444476025    0.2580958851202017    0.18850862314357414    
  0.1915726171078293    0.20017574278483213    0.21335843472996202    0.22641156977043933    0.23444975225555278    
  0.23444891566975    0.2264118131828055    0.21336779480360485    0.20018522511818138    0.1915482622850496    
  0.18851459369951334    0.1890655999223931    0.19064820265041718    0.19065065352603017    0.18903677114968345    
  0.18850862314357414    0.12987744267360024    0.13977313869968352    0.1564657883623677    0.17977432368961982    
  0.20577240907501967    0.22641152026311526    0.23421342602632975    0.2264131118571463    0.20576739091098412    
  0.17977052044492306    0.15649094457650564    0.13977464565816658    0.12985827802649244    0.1254835123297633    
  0.12444885888979054    0.1254801471190309    0.12987744267360024    0.08955170866990547    0.10001562604568046    
  0.11838098094810444    0.14561945784495628    0.1797743277297125    0.21335839912005095    0.23451967289135564    
  0.2345175347791266    0.21336714859188394    0.17978096488210218    0.145596280084313    0.11838339545045926    
  0.10003194677561153    0.0895504249842804    0.08504919874670433    0.08505017435188475    0.08955170866990547    
  0.06543200632088242    0.0741803332406177    0.09101493484203503    0.1183809873158958    0.15646577663099678    
  0.20017575947055338    0.2371512774826814    0.25192459981754783    0.23714339698900555    0.20017002342680834    
  0.15649186214965596    0.1183810790182082    0.09100083779531735    0.07418283861682597    0.06543341480184506    
  0.06273270158909118    0.06543200632088242    0.05316006260443406    0.059607521281761035    0.07418031881467248    
  0.10001559242704502    0.13977313096941069    0.19157256099692618    0.24472580047563955    0.2799726785437794    
  0.2799856898662278    0.24473448268206383    0.19154303396917602    0.13977583158253726    0.10003218150289842    
  0.07417794591835905    0.059607135056139265    0.05315982058051623    0.05316006260443406    0.049466695734366156    
  0.053160050431455955    0.06543199853702973    0.08955170333956122    0.12987745220838587    0.1885086304323653    
  0.25809590231352    0.3177020898511109    0.34157400811118477    0.3176926895007751    0.2581347530665045    
  0.18851255337606043    0.12985794807145815    0.0895573615374366    0.0654333065922895    0.05316028970117582    
  0.049466695734366156    0.0463777196633874    0.04915863008023289    0.05831740941341645    0.07592751278208783    
  0.10438903704235496    0.14427693136883135    0.19040813147260421    0.22930173762066347    0.24471872305274964    
  0.22930105941111478    0.19042266844924696    0.14427895745457134    0.10438393943698379    0.07593027446014744    
  0.05831811068111226    0.04915897475246762    0.0463777196633874    0.049158973244758354    0.04915935958887396    
  0.0567664039675168    0.07433928357505616    0.10548663771522591    0.15323566967093857    0.21516223897979073    
  0.2768057339861748    0.31556441232056226    0.3155609960236444    0.2767905812919921    0.21516521935563251    
  0.15324739307871238    0.10548727197152982    0.07433971156470406    0.05676740757429031    0.049158973244758354    
  0.058318130749937816    0.05355041923376602    0.058317563264903685    0.07433901575527577    0.10618626158023244    
  0.15934284463559723    0.23453473582349083    0.3168843236794333    0.3778902306963612    0.3992128436494833    
  0.37792238201977213    0.316885618587087    0.23452828703713927    0.15934596770047585    0.10618879869552346    
  0.07433970769635583    0.058318130749937816    0.07593028822068426    0.06325879718095209    0.06325957089482291    
  0.07592813046274435    0.1054879711345594    0.1593405430383727    0.24184908883230768    0.3379056504164104    
  0.4083148900866843    0.43438423325692804    0.43436687426543585    0.408314533718098    0.33793160258815613    
  0.2418458820994778    0.15934598354849633    0.10548726185635855    0.07593028822068426    0.10438396605459285    
  0.08001933648112285    0.0727007887382263    0.08001965736865918    0.10438311094079512    0.15324675662158244    
  0.23452471562772123    0.3379269500105374    0.41402899842506097    0.4266401409327702    0.4181089292276852    
  0.4266366826376407    0.41402830117186257    0.33793162175965313    0.23452820755420686    0.15324739393880715    
  0.10438396605459285    0.14427894121049942    0.104977456505449    0.08799294561778918    0.08799340982824136    
  0.10497660713482343    0.1442797191553023    0.21516277265943964    0.31688986600185065    0.4083160678585725    