#     DFTpy    
  CRYSTAL 
    
  PRIMVEC    
  1.8383293168011556    -3.184079777742984    0.0    
  1.8383293168011556    3.184079777742984    0.0    
  0.0    0.0    6.215543820689656    
  PRIMCOORD    
  2    1    
  Si    1.8383293168011556    1.061359925914328    1.553885955172414    
  Si    1.8383293168011559    -1.061359925914328    4.661657865517241    
  BEGIN_BLOCK_DATAGRID_3D    
  3d_datagrid_density    
  BEGIN_DATAGRID_3D#0    
  17    17    27    
  0.0    0.0    0.0    
  1.8383293168011556    -3.184079777742984    0.0    
  1.8383293168011556    3.184079777742984    0.0    
  0.0    0.0    6.215543820689656    
  0.02825647691403192    0.028912907366608075    0.030935622710340352    0.03441691063836049    0.03929153978651822    
  0.045140994996497    0.051056616900198526    0.05558729627771369    0.05728580563825442    0.05558731896078234    
  0.05105662290007797    0.04514100696667084    0.03929154476092016    0.034416904432227675    0.030935625484472425    
  0.02891290974387619    0.02825647691403192    0.02891292427944144    0.028912987498569097    0.03025571480981092    
  0.03303673233069649    0.03731489218115295    0.042897215713285614    0.049119341949036256    0.05470596919572144    
  0.058042259115299845    0.05804145412600155    0.05470627531057299    0.04911910689573107    0.04289760127403323    
  0.037314689631316185    0.03303640168034339    0.030256220037495684    0.02891292427944144    0.03093562931628639    
  0.030255715377053263    0.030935836147316036    0.033036992397723106    0.03668614453294953    0.041913383877822404    
  0.04834747893609532    0.05492079121586142    0.059937647430490015    0.06181539460245259    0.05993807537081754    
  0.054920559168090306    0.04834772628672758    0.041912913466148    0.03668714922077088    0.03303640477455347    
  0.03093562931628639    0.03441691964163245    0.03303672867610929    0.033036989070309886    0.03441603411939349    
  0.037315235149207884    0.041912803856081204    0.04815056803890697    0.055314836914336876    0.06186318901542019    
  0.06582995717915589    0.06582974629617959    0.06186313939998141    0.055315129694249954    0.0481504168454708    
  0.04191289966301609    0.03731469673069874    0.03441691964163245    0.03929154572061513    0.03731488496940429    
  0.03668613263137808    0.03731522694558702    0.039291431140847786    0.0428977628423337    0.04834757925131767    
  0.05531529588454193    0.0626474887475436    0.06841658619228405    0.07062527055419444    0.06841653355734183    
  0.06264770963615096    0.05531509326047199    0.04834770166830249    0.042897584368195255    0.03929154572061513    
  0.045141017903495874    0.042897239120910105    0.04191341038834062    0.04191279814123325    0.04289778408034896    
  0.04514084377845757    0.0491186877424385    0.054920654710234065    0.06186331163880786    0.06841625801001577    
  0.07247402819237629    0.07247357050562539    0.06841656074687986    0.061863135072631255    0.054920559942878956    
  0.04911912262965796    0.045141017903495874    0.051056623174619564    0.04911936175117956    0.048347482278793916    
  0.04815058035722307    0.04834758832225148    0.04911868451230616    0.05105762965713452    0.05470621806126617    
  0.05993784229847342    0.06582993952958248    0.07062536184479908    0.07247401976483732    0.0706252801551357    
  0.06582978489331065    0.059938073602562585    0.05470630778999221    0.051056623174619564    0.055587299502447896    
  0.054705985298427934    0.054920780759605804    0.05531484149982639    0.05531528434765993    0.054920677834807474    
  0.054706205223282386    0.05558654437963486    0.058042528196766835    0.06181496394303007    0.0658299320040969    
  0.06841624432787814    0.06841661301000486    0.06582994943826606    0.06181537893156379    0.05804146131153334    
  0.055587299502447896    0.05728576514353313    0.058042264687455124    0.059937651096191695    0.061863160280735685    
  0.06264748940921662    0.06186328983007884    0.05993783601276396    0.05804252773443281    0.05728530643477308    
  0.05804252568796539    0.05993785031992996    0.06186328117158245    0.06264747263488252    0.06186315844784101    
  0.05993765518097017    0.05804226430734172    0.05728576514353313    0.055587312647027556    0.05804144834830635    
  0.06181539043626836    0.06582995887455963    0.06841661310863398    0.06841624576154064    0.06582994142335756    
  0.061814972003687456    0.05804252448410603    0.05558655817145753    0.05470622500479437    0.054920659480805566    
  0.055315307935603956    0.05531485754772726    0.054920751182302864    0.05470599596998768    0.055587312647027556    
  0.05105663707548058    0.0547063010195048    0.05993807946851543    0.06582977758753608    0.07062529483748392    
  0.07247400574762407    0.07062537005708343    0.06582992954317184    0.059937842225166765    0.054706204034822126    
  0.05105764887419859    0.049118680372965795    0.048347590503680905    0.048150591634069664    0.04834747295633961    
  0.0491193680201553    0.05105663707548058    0.045141022197670216    0.04911912255150364    0.054920558786255666    
  0.061863152040923956    0.0684165554949026    0.07247360603386328    0.0724740372697407    0.06841624930373658    
  0.0618633032290392    0.05492067054479291    0.04911869001143065    0.04514083984063138    0.04289779426991439    
  0.04191280934095001    0.041913388271887425    0.04289723554363349    0.045141022197670216    0.03929153355498964    
  0.04289759310430472    0.04834768879986762    0.05531511105403299    0.06264770901237482    0.06841652392424755    
  0.07062528717354244    0.06841660327996059    0.06264748722889943    0.05531529195892344    0.04834756268428544    
  0.042897756844300756    0.039291433724213655    0.037315229454315445    0.03668613491847976    0.037314887904602245    
  0.03929153355498964    0.03441691079728491    0.03731468332453039    0.04191293822241933    0.04815042341402743    
  0.055315125049301264    0.0618631451656786    0.06582975052340595    0.06582995790345791    0.061863179244808435    
  0.05531484086273652    0.04815057318162346    0.0419127941767878    0.03731523770773179    0.034416030756536715    
  0.03303699129961132    0.03303674436273005    0.03441691079728491    0.030935630805660287    0.03303641367705938    
  0.03668713504774071    0.04191291356314152    0.048347719343731006    0.054920557172703305    0.05993805943310273    
  0.06181539330593681    0.05993766654903697    0.054920795230670824    0.04834747717626383    0.04191339520547296    
  0.0366861427269055    0.03303699615012146    0.030935823289992795    0.030255724886551386    0.030935630805660287    
  0.028912918220067696    0.030256201379937727    0.033036403670212024    0.03731468457808877    0.042897604609285746    
  0.04911911371020594    0.05470627648647427    0.058041450341570336    0.058042282395746124    0.054705990199750774    
  0.049119339735662286    0.04289723702004381    0.03731490513657515    0.033036728392852585    0.030255707902215646    
  0.02891300006187627    0.028912918220067696    0.02825647691403192    0.028912907366608075    0.030935622710340352    
  0.03441691063836049    0.03929153978651822    0.045140994996497    0.051056616900198526    0.05558729627771369    
  0.05728580563825442    0.05558731896078234    0.05105662290007797    0.04514100696667084    0.03929154476092016    
  0.034416904432227675    0.030935625484472425    0.02891290974387619    0.02825647691403192    0.028992138310317262    
  0.02975274707033168    0.032081160517812735    0.03609659660289902    0.04181334429710952    0.04878674465647197    
  0.055890373258965925    0.06134247886086884    0.0633967380299062    0.061342655050952107    0.05589036516574907    
  0.04878710468781779    0.0418138473174586    0.03609672361326965    0.032080840200321675    0.029752822907907164    
  0.028992138310317262    0.0297528409622602    0.029752645654483614    0.030900610894932193    0.03331660646085692    
  0.037054676555150885    0.04196636926981068    0.047484181542556014    0.05243868731974061    0.055375158700966376    
  0.0553758108125718    0.05243788280860378    0.04748452571579708    0.041965787291829273    0.03705434096722275    
  0.03331697688511304    0.030900497423812158    0.0297528409622602    0.03208084619517536    0.03170613182395535    
  0.03208101123355879    0.03331668381667402    0.03556099772298413    0.0388321739942244    0.04291602952948191    
  0.04712326947125072    0.050332193887077416    0.051528557593180674    0.050332004481239506    0.047123995428144085    
  0.0429156715863087    0.038833063419032414    0.035560509183352976    0.03331698354048424    0.03208084619517536    
  0.03609672763230229    0.0357266057075962    0.0357262934469281    0.036096883081688985    0.03705440227173123    
  0.03883287301209264    0.04148741413945679    0.04470408042389415    0.047722291587532766    0.04957815965015515    
  0.04957836759709689    0.047721932493672584    0.04470391532902908    0.041487313000116155    0.038833046829709825    
  0.03705435416679149    0.03609672763230229    0.04181383890486415    0.04203047658326543    0.042160168326086274    
  0.04203062698638119    0.04181367157811079    0.041965609018032535    0.04291624911997438    0.0447035344991749    
  0.04692113582851485    0.048805233874891316    0.04954999565685495    0.048805363850062    0.04692134588388599    
  0.04470389382073909    0.042915642132268846    0.041965768473505825    0.04181383890486415    0.04878713007408189    
  0.050468223114989774    0.05161203298686579    0.051612119018409564    0.050468228803889695    0.04878738958622323    
  0.047484466305245714    0.04712332449352956    0.047722778769624496    0.04880482910639769    0.04960508787345722    
  0.049604068381056576    0.04880538629629799    0.047721938720673415    0.04712399666912832    0.04748453595831416    
  0.04878713007408189    0.05589036264578298    0.06001800249497998    0.06347806930864179    0.0648269658445512    
  0.06347803414381883    0.060017792303973555    0.055890339125291864    0.0524380972618182    0.050332314859744216    
  0.04957822958710915    0.04954994629500854    0.04960508846009696    0.04954998158295288    0.049578387228788566    
  0.0503319919030182    0.05243790327549653    0.05589036264578298    0.061342642361651066    0.06871011035292682    
  0.07580445393749517    0.08026121250868595    0.08026162701679397    0.07580464406671418    0.0687101258699184    
  0.06134316168814472    0.05537562696554098    0.05152846579839962    0.049578219532015765    0.04880482464984931    
  0.04880524962021222    0.049578141986011307    0.05152855829907316    0.05537581740767106    0.061342642361651066    
  0.06339669894276727    0.07400350116982508    0.08543216493666171    0.09459970960320034    0.09815973837626844    
  0.09459941086184498    0.08543241180406974    0.07400336652163338    0.0633962827401918    0.05537561793809127    
  0.05033231676764321    0.04772274984606319    0.04692112433211195    0.047722249568000655    0.05033218917874231    
  0.0553751568734859    0.06339669894276727    0.06134249300161    0.07400358233576881    0.08911432751944691    
  0.103412493277484    0.11234507277173637    0.11234634398307218    0.10341144008000783    0.08911515169135159    
  0.07400335973307991    0.061343158393148356    0.05243810356340997    0.047123339319576685    0.044703539669760796    
  0.04470409824735805    0.04712324354444976    0.05243871023151465    0.06134249300161    0.05589037805142142    
  0.06870996816518492    0.08543245718197894    0.10341166801142754    0.11779633543358785    0.12336748955526307    
  0.11779652179984645    0.10341141339879498    0.08543241324281031    0.0687101290677807    0.0558903536227319    
  0.04748445077234626    0.04291625450198642    0.04148742617564571    0.042916028822353056    0.04748419450195125    
  0.05589037805142142    0.04878676233774104    0.060018595228818146    0.07580419633490669    0.0946002920278796    
  0.11234510455423373    0.12336922127483725    0.12336750987698843    0.11234634024252693    0.09459943806343638    
  0.07580462881858406    0.060017781048423535    0.04878739014058334    0.04196563427990885    0.03883288030668317    
  0.03883216395578451    0.04196639129551272    0.04878676233774104    0.04181333338269876    0.05046814601695129    
  0.06347805989443016    0.08026126836878264    0.09816008116447493    0.1123450784671224    0.11779632284028577    
  0.11234506148546727    0.098159756092001    0.08026162106869714    0.0634780123197459    0.0504682015829839    
  0.0418136752220435    0.037054387155233036    0.03556098796852652    0.03705467449301485    0.04181333338269876    
  0.03609660042802393    0.04203113147867809    0.051611998527315205    0.06482722294034549    0.08026127638395068    
  0.09460028265027039    0.10341165970923273    0.10341250766323076    0.0945997248120684    0.08026124076201661    
  0.06482697417418294    0.051612106280168685    0.04203064002723684    0.03609687234279089    0.03331668234571185    
  0.03331660932153343    0.03609660042802393    0.0320811769678758    0.035726410851715    0.042159787303198804    
  0.05161197664013473    0.06347808203035846    0.07580418557503682    0.08543244072416027    0.08911433272595956    
  0.08543220697576408    0.0758044609792333    0.06347806737146383    0.051612037973701806    0.04216019038008159    
  0.03572629160194594    0.032081004566941185    0.03090060991447674    0.0320811769678758    0.029752756526766913    
  0.031705915176170024    0.03572640544886353    0.04203114079558357    0.05046815696399097    0.06001858598517871    
  0.06870995084080411    0.07400359340871922    0.07400351697770234    0.06871011172254626    0.06001798055301034    
  0.050468203605543466    0.04203049342456197    0.03572660326815825    0.03170613101528911    0.029752658901673147    
  0.029752756526766913    0.028992138310317262    0.02975274707033168    0.032081160517812735    0.03609659660289902    
  0.04181334429710952    0.04878674465647197    0.055890373258965925    0.06134247886086884    0.0633967380299062    
  0.061342655050952107    0.05589036516574907    0.04878710468781779    0.0418138473174586    0.03609672361326965    
  0.032080840200321675    0.029752822907907164    0.028992138310317262    0.031100994969133832    0.03215639320152767    
  0.03541337090949941    0.041136260231119014    0.04950858822181348    0.06001107425183966    0.07091027697487534    
  0.07938058822181857    0.08260121008388671    0.07938069004688583    0.07091017191961561    0.06001056193875954    
  0.049508683079857514    0.04113634753068453    0.03541314323732335    0.03215675030915815    0.031100994969133832    
  0.03215676705799702    0.03215612597378161    0.033487448048548356    0.0362740037870955    0.04066778599835924    
  0.04659779420088742    0.053396663251242774    0.05959125240538201    0.06332933867358813    0.06332883868142168    
  0.059591660154694685    0.053396450201439474    0.046598671294233306    0.040667019898489816    0.03627501408462979    
  0.033486481408375714    0.03215676705799702    0.03541315319038242    0.035164093893391514    0.03541322371014489    
  0.036274455556238185    0.03797075656054415    0.04065120660281781    0.04417336837966964    0.047919325836943236    
  0.05085538984843432    0.051975325982827454    0.05085562418244548    0.047919242585787565    0.04417307611077436    
  0.04065123105277223    0.037970299897451466    0.036275025260694226    0.03541315319038242    0.04113635929206581    
  0.04155948628388955    0.04155937176617159    0.04113636281251284    0.0406675545319098    0.04065036327255845    
  0.041367067805313615    0.042695963332684515    0.04416157280535761    0.0451312558076623    0.04513140346339055    
  0.04416111199063885    0.04269634201219773    0.04136707860186676    0.04065120581445579    0.040667023672963536    
  0.04113635929206581    0.04950867426713047    0.05192426498971591    0.052859887087779237    0.05192443760108139    
  0.049508354647374894    0.04659889086175279    0.04417358034573172    0.04269647137335466    0.042094859035450544    
  0.04199842771244403    0.042021480734705574    0.04199844407986928    0.04209515670550541    0.04269632703343191    
  0.04417306284283188    0.046598652791965754    0.04950867426713047    0.060010577409111296    0.06626037814807195    
  0.07010815400509912    0.07010891298041161    0.0662598938164395    0.06001052084624479    0.0533964046261905    
  0.04791879350234996    0.044161315882003574    0.04199880890586257    0.04104471465307988    0.04104501822851805    
  0.04199847157250036    0.04416112389339621    0.04791923687927808    0.053396465880339014    0.060010577409111296    
  0.07091018323527891    0.08297608366899872    0.09256476080565708    0.09626276438447844    0.09256439244246316    
  0.08297712106339379    0.07090989185263503    0.059591849693190306    0.05085597170298282    0.04513114774329995    
  0.04202148902799633    0.04104471508474981    0.042021481019665456    0.04513141735469883    0.050855619759925676    
  0.05959168338121568    0.07091018323527891    0.07938068700461619    0.09851574899608155    0.11660455769166445    
  0.1278945224972586    0.1278959513076574    0.11660378412833197    0.09851607273807754    0.07938101058646603    
  0.06332874852121113    0.05197547987494116    0.04513113731452185    0.04199880612394428    0.04199843523773684    
  0.04513123908518506    0.05197530984796723    0.06332885297743573    0.07938068700461619    0.08260118607612087    
  0.10812153228003502    0.13577118749406938    0.15786988797383497    0.16641860750021886    0.15786917564294065    
  0.1357715864580188    0.10812115456612602    0.08260179724163516    0.06332875007786684    0.050855967586753405    
  0.04416130076469185    0.04209484347230159    0.04416154157468146    0.05085537907498953    0.06332932400999867    
  0.08260118607612087    0.07938059509923628    0.10812126102006844    0.14319509125039417    0.17643322580678844    
  0.19695823211502997    0.19695749934551354    0.17643402634682212    0.14319500308202943    0.10812116289637803    
  0.07938101394539694    0.05959186189580723    0.04791881571160457    0.0426964781446539    0.042695973404456966    
  0.04791929492256227    0.05959127045201381    0.07938059509923628    0.07091028715275724    0.09851615498877793    
  0.13577166510489636    0.17643444606632028    0.20861654682199113    0.22090077962776866    0.20861706727951554    
  0.1764340088757731    0.13577158537984746    0.09851607293439106    0.07090990342131819    0.05339639417840516    
  0.04417357695299673    0.041367063430064376    0.04417337467162824    0.05339667768690746    0.07091028715275724    
  0.060011087081136415    0.08297592941160442    0.11660482087044165    0.1578683965173806    0.19695845679553023    
  0.2209021034348854    0.22090077359257687    0.19695749179888827    0.15786919433115784    0.11660377495655562    
  0.08297712574606435    0.06001051917767758    0.04659891113050705    0.04065036806498409    0.040651193964477104    
  0.046597818755255684    0.060011087081136415    0.04950857292497076    0.06625977193616103    0.09256507361362043    
  0.12789586775283138    0.16641921384854044    0.19695841790388416    0.20861651255953664    0.1969582103062809    
  0.16641862271720728    0.1278959558557561    0.09256437517951524    0.06625986411320688    0.049508359664276545    
  0.04066754627226072    0.037970738720512924    0.04066778306424241    0.04950857292497076    0.0411362717833194    
  0.051924540257010356    0.07010902809314566    0.09626205767465272    0.1278959060977112    0.15786837522943212    
  0.17643445875542557    0.17643324389871226    0.1578698722606273    0.1278945443641382    0.09626279315595482    
  0.07010889705091418    0.05192445986819095    0.04113636385962582    0.03627445429494126    0.03627401339330859    
  0.0411362717833194    0.035413385271129506    0.04155956682695425    0.05285923023498781    0.0701089991897932    
  0.09256508928839002    0.11660480399023285    0.1357716521757399    0.14319508908705628    0.13577124619629286    
  0.11660455605418685    0.09256476045962812    0.07010813471983578    0.05285990813531393    0.04155937971100223    
  0.035413214043148344    0.03348744883142448    0.035413385271129506    0.03215639907223351    0.03516388449717414    
  0.04155954898245881    0.05192454259587354    0.06625979046585198    0.0829759167928058    0.09851613826660528    
  0.10812128914998231    0.10812155950252954    0.09851573498756831    0.08297607025018065    0.06626036494053889    
  0.05192428595538555    0.041559492072756284    0.0351640891264364    0.03215613944529143    0.03215639907223351    
  0.031100994969133832    0.03215639320152767    0.03541337090949941    0.041136260231119014    0.04950858822181348    
  0.06001107425183966    0.07091027697487534    0.07938058822181857    0.08260121008388671    0.07938069004688583    
  0.07091017191961561    0.06001056193875954    0.049508683079857514    0.04113634753068453    0.03541314323732335    
  0.03215675030915815    0.031100994969133832    0.03429685052796409    0.035792036401633726    0.040546951795755126    
  0.0491814913698731    0.062152068995223124    0.07885703302897194    0.09662478183745533    0.11067664335583108    
  0.1160731896325423    0.11067723440774477    0.09662421707928869    0.07885768357502022    0.06215164202737047    
  0.04918196882861198    0.04054681550818622    0.03579178503297142    0.03429685052796409    0.03579179333641346    
  0.03579222621730726    0.037564609576449866    0.0413440387668027    0.04746517699985707    0.05590553131919066    
  0.06572756376132605    0.07484806590146878    0.08046087681535925    0.08046121741346965    0.07484742472924728    
  0.06572802272947792    0.05590511487539346    0.04746571459236964    0.04134298145157475    0.03756590836740918    
  0.03579179333641346    0.040546829416256286    0.040319789957085565    0.04054718958613125    0.04134336247197679    
  0.04307722916036093    0.0460701997339886    0.050173297485980525    0.05465213313457446    0.05825466733324628    
  0.05964818146394983    0.05825509266815336    0.05465194089140638    0.05017347657983256    0.04606982470829066    
  0.04307822093531513    0.04134299598239267    0.040546829416256286    0.0491819756678502    0.050337690185766566    
  0.050337596661228806    0.049181767226465445    0.047465517877802677    0.04607072458958646    0.04554595633148745    
  0.04591037814239159    0.046738165326088536    0.047382671586503985    0.047381812635361654    0.04673860466048269    
  0.045910052353610654    0.04554670230855263    0.046069809316857814    0.047465707125928215    0.0491819756678502    
  0.0621516314685172    0.06713826971536813    0.06904875441306774    0.06713789476296601    0.06215193743211097    
  0.05590498534610852    0.050173312687548    0.04590984781364231    0.04325855556911721    0.04190251981925748    
  0.041495484076506384    0.04190274369767181    0.04325807450766115    0.0459100395736439    0.05017345037143861    
  0.05590510798118233    0.0621516314685172    0.07885769727836858    0.09116985612876224    0.09875757604363743    
  0.09875869046907368    0.09116983465996785    0.07885768053344505    0.06572773299885037    0.05465271829020055    
  0.046738410958923275    0.041902530775262695    0.03967532087838055    0.039675449524234595    0.04190276897487797    
  0.04673861683210696    0.05465193006426511    0.0657280453900197    0.07885769727836858    0.09662424195835582    
  0.12013176400108964    0.13887794550641105    0.14610408532098357    0.13887707560332058    0.12013202101945417    
  0.09662467076361587    0.07484740382235565    0.05825483052482812    0.04738223870768804    0.04149584199158073    
  0.03967533263431506    0.04149546144289244    0.04738184635414922    0.05825510469687274    0.07484742366589013    
  0.09662424195835582    0.11067724222797634    0.14755711490135398    0.1825402062969705    0.20410733263346204    
  0.2041079442217502    0.18254211589796032    0.1475569861924247    0.11067745176163821    0.0804612394034836    
  0.059648363256890095    0.047382227182821736    0.04190249982927973    0.04190252098814584    0.04738267065663306    
  0.05964815608967303    0.08046122313382903    0.11067724222797634    0.1160731649767051    0.1645593365770253    
  0.21695436782931776    0.2571168274798565    0.27195416761856567    0.25711541258808984    0.21695436681548974    
  0.16455934227379093    0.11607412134108248    0.08046123725224458    0.05825481705674481    0.04673840064821995    
  0.043258519872086454    0.046738134039768967    0.05825465943923366    0.08046086444211796    0.1160731649767051    
  0.1106766451773987    0.16456055524577265    0.23002880096408165    0.2878112044996701    0.3194672692401954    
  0.3194663924837503    0.2878106980302837    0.23003016786857752    0.16455936406960922    0.11067746031072916    
  0.07484740577768255    0.054652733071355195    0.0459098518358124    0.0459103932328808    0.054652127631685185    
  0.07484808914232553    0.1106766451773987    0.09662479434834434    0.1475566817636935    0.2169558032192707    
  0.2878118446394544    0.3354326996507339    0.35070276176019277    0.3354340652971629    0.2878107164192837    
  0.21695436806386575    0.1475569825709908    0.09662470679623038    0.06572772176228026    0.050173305640800046    
  0.045545965971825676    0.050173301955835796    0.06572757278156136    0.09662479434834434    0.07885705094785271    
  0.12013247311598436    0.18254072094320312    0.2571174115795983    0.31946680634960767    0.35070658132915683    
  0.3507027898342765    0.31946636976252585    0.25711541895831874    0.18254207118931237    0.12013204291598811    
  0.07885767166117758    0.05590501286121899    0.04607073701001079    0.04607018552635482    0.055905552818808726    
  0.07885705094785271    0.062152054225477954    0.09117013361542439    0.13887746137592355    0.204108856916272    
  0.27195451638646934    0.31946679032573627    0.335432606122119    0.3194672606716399    0.2719542021958388    
  0.20410792847435333    0.13887705504630965    0.09116982337632185    0.06215193742888066    0.047465499521058066    
  0.043077217580207064    0.04746516885345986    0.062152054225477954    0.04918149067831294    0.06713831688299303    
  0.09875791501786609    0.14610559271849866    0.20410889255174267    0.25711739919553134    0.287811885873945    
  0.2878112689406311    0.2571168153055606    0.2041073021429811    0.14610409930131324    0.09875869282905046    
  0.06713791902885594    0.049181781252632346    0.04134337544224504    0.04134405218249549    0.04918149067831294    
  0.040546965698781856    0.050337671709104616    0.06904870470487322    0.09875785363166302    0.1388775008564639    
  0.182540719465522    0.21695580440706333    0.23002881442227036    0.2169544809266858    0.18254020969987383    
  0.13887794320984698    0.09875755367076716    0.06904878044972106    0.050337604093408594    0.04054719384094143    
  0.03756461245179497    0.040546965698781856    0.035792044754130004    0.04031985804856596    0.05033765994479687    
  0.06713831504114079    0.09117013929191688    0.12013248160779008    0.14755667256108151    0.1645605748925501    
  0.1645593809495982    0.14755713574516593    0.12013173255231704    0.09116984149594272    0.06713829897066818    
  0.05033768973710724    0.04031979161719625    0.035792238929551155    0.035792044754130004    0.03429685052796409    
  0.035792036401633726    0.040546951795755126    0.0491814913698731    0.062152068995223124    0.07885703302897194    
  0.09662478183745533    0.11067664335583108    0.1160731896325423    0.11067723440774477    0.09662421707928869    
  0.07885768357502022    0.06215164202737047    0.04918196882861198    0.04054681550818622    0.03579178503297142    
  0.03429685052796409    0.03794495478231025    0.039992676065329504    0.046633018234816095    0.0589945331230863    
  0.07802265997463038    0.10318543093038732    0.13049135598805062    0.15228914860712325    0.16069487252984427    
  0.15229062889128137    0.1304831430741335    0.10318628166443336    0.07802590218237727    0.058993419184840454    
  0.046633186765939964    0.0399922787161982    0.03794495478231025    0.03999229616607656    0.039992254319166046    
  0.04237718255536559    0.04755744092046901    0.05612415434287833    0.06814073353010959    0.08234677113388891    
  0.09571329079628489    0.10400020115513554    0.10399930851546464    0.09571198161721428    0.08235259795289258    
  0.06813986755464087    0.05612235627731706    0.04755723518838537    0.04237816354984652    0.03999229616607656    
  0.04663318374951268    0.046379290617112434    0.04663362932249228    0.04755797300171017    0.04969741307796115    
  0.053551361166635544    0.05895052463915373    0.06493210607568757    0.06977283490813668    0.07163626527189614    
  0.06977351628528466    0.06493289963033622    0.058946318578525336    0.05355141802575823    0.04970042257854962    
  0.047557250295454156    0.04663318374951268    0.05899342517987791    0.060882468942205115    0.06088212569676441    
  0.058993255191341    0.05612408905913482    0.05355277688712082    0.052100691609145176    0.05195354003571478    
  0.05261077901234105    0.05320180562344164    0.05320159459980071    0.0526106135126277    0.0519525322646931    
  0.05210521538112854    0.05355141017511609    0.056122348642314794    0.05899342517987791    0.07802588783989223    
  0.08594231253553927    0.08900668854175685    0.08594232714459075    0.07802285105731016    0.0681401536420353    
  0.058949508494717806    0.05195165144013972    0.04749995099882444    0.045156086201851464    0.04442641843088406    