#     DFTpy    
  CRYSTAL 
    
  PRIMVEC    
  1.8072709068352877    -3.1302850336797974    0.0    
  1.8072709068352877    3.1302850336797974    0.0    
  0.0    0.0    3.401868124137931    
  PRIMCOORD    
  1    1    
  Si    0.0    0.0    0.0    
  BEGIN_BLOCK_DATAGRID_3D    
  3d_datagrid_density    
  BEGIN_DATAGRID_3D#0    
  17    17    15    
  0.0    0.0    0.0    
  1.8072709068352877    -3.1302850336797974    0.0    
  1.8072709068352877    3.1302850336797974    0.0    
  0.0    0.0    3.401868124137931    
  0.07049040309646683    0.11897196322978786    0.2779645282223195    0.39949324484992693    0.3287881294392251    
  0.20186673201818037    0.11796958492930788    0.07804783224515686    0.06660990941751925    0.07804782667032199    
  0.11796958874925778    0.20186676838982487    0.3287881554198361    0.3994931719860986    0.2779645097792308    
  0.11897194710179332    0.07049040309646683    0.11897198717475461    0.1189741634065669    0.22781840612555687    
  0.37775581417025406    0.3737470851077635    0.2516507058227212    0.147408086847656    0.09063602557431447    
  0.06755712195559208    0.06755451791396927    0.09063864303350885    0.1474043076651241    0.25165918769320056    
  0.373747852295571    0.37770672067640004    0.2278589466778771    0.11897198717475461    0.27796448293448245    
  0.2278183429264771    0.2779990678186274    0.37773476628331526    0.3856919561505008    0.28081712175073265    
  0.17077154973136252    0.10254399072611918    0.06984478476623959    0.06036653514567487    0.06984575693434178    
  0.10254259928269557    0.1707731037580285    0.28079879222805626    0.3857558282269592    0.377706775411356    
  0.27796448293448245    0.3994932185021133    0.37775572000108704    0.3777347236307998    0.39947253753505335    
  0.37372494847306315    0.2808491234826505    0.1797495585300059    0.10997267447308208    0.07211291120490883    
  0.05629704437010317    0.05629123194997513    0.07211921901267701    0.10996531963803874    0.1797691459373811    
  0.2807988363606199    0.373747865359831    0.3994932185021133    0.32878816740427025    0.37374715356381744    
  0.38569199592600306    0.3737250052462118    0.32882121923686797    0.25166823673048605    0.17074445382887152    
  0.10997251882306232    0.07304744672606049    0.054522807808411705    0.04901320375003133    0.05452235798474307    
  0.07304780231726306    0.10996531063304672    0.17077315100639434    0.2516592425854649    0.32878816740427025    
  0.20186675913089355    0.25165070818246377    0.28081716157656067    0.2808491928331714    0.2516682451199976    
  0.20183157041377223    0.14740194767171363    0.10256235027909703    0.07211528106261846    0.054521764224895    
  0.04676249556474429    0.046762868556838685    0.05452233702596563    0.07211918830681287    0.10254257158607051    
  0.14740427909904769    0.20186675913089355    0.1179695784211397    0.1474080713840666    0.17077156913813604    
  0.1797496121486421    0.17074443448669618    0.14740195000571835    0.11799622991756219    0.09063931078423021    
  0.06982946840040645    0.05629453208099719    0.0490139758874574    0.046762524104141376    0.04901319573263841    
  0.05629122864833926    0.06984576817372294    0.0906386363839268    0.1179695784211397    0.07804782936737245    
  0.0906360128930344    0.10254397766510502    0.10997269134540355    0.1099724952408775    0.1025623380439579    
  0.09063928678033357    0.07802570406730401    0.06755576140950095    0.06038057968126063    0.05629454527970784    
  0.05452177750307562    0.05452280160321488    0.05629704531563273    0.06036653744600763    0.06755453644603868    
  0.07804782936737245    0.06660990290765834    0.06755712137842286    0.06984477667211808    0.07211290991055376    
  0.07304742612504915    0.07211528388470591    0.06982946347421023    0.06755576117359118    0.06662945473659439    
  0.06755576334742448    0.06982944731025971    0.07211528518775062    0.07304741640625184    0.07211288180555553    
  0.06984478657632096    0.0675571245960338    0.06660990290765834    0.07804782995043828    0.06755453190086191    
  0.060366549316842474    0.05629705195094492    0.05452279815952946    0.054521756109624495    0.05629453960800138    
  0.06038059186571261    0.06755575043395454    0.07802569783832389    0.09063929487470994    0.10256235341321512    
  0.10997249203651648    0.10997268331333136    0.10254398097716286    0.09063600138912103    0.07804782995043828    
  0.11796957927979208    0.09063861945098198    0.06984577744734398    0.05629125484102803    0.04901319674890417    
  0.046762488101387195    0.04901398379390348    0.05629454460883405    0.06982946013273846    0.09063928696061892    
  0.11799621420703292    0.14740198721136927    0.17074444533440966    0.1797495594708555    0.17077153475022072    
  0.14740810597618662    0.11796957927979208    0.20186671157086913    0.14740425002504198    0.10254257519254106    
  0.07211920741384224    0.0545223358640185    0.04676285456408332    0.04676249474944344    0.05452177263565705    
  0.07211528728556808    0.10256232363044351    0.14740194986144967    0.2018316313973827    0.2516682669473988    
  0.2808491437121318    0.2808171193563223    0.25165073762606116    0.20186671157086913    0.3287881679101837    
  0.25165918315349245    0.17077314301540175    0.10996535219791222    0.07304781459709773    0.05452233968482043    
  0.049013195692789994    0.05452281589868571    0.07304744275688312    0.10997251265762041    0.17074443699715738    
  0.2516682846050388    0.32882117186820065    0.37372492645991584    0.3856919682692468    0.37374717453024625    
  0.3287881679101837    0.3994932261222028    0.37374781319804795    0.28079884266989324    0.17976920924043271    
  0.10996530129826952    0.07211918724521185    0.05629123348581861    0.05629705670330558    0.07211290472754243    
  0.10997266625841608    0.1797495892604644    0.2808491628431565    0.3737249365077078    0.39947253538017735    
  0.3777347589349355    0.37775575855707905    0.3994932261222028    0.27796445072221265    0.3777067457563324    
  0.3857558721904758    0.2807988803623502    0.17077313132717872    0.1025425745723692    0.06984576105649408    
  0.060366558043698997    0.0698447769597361    0.10254396706493354    0.17077155726360144    0.280817168629469    
  0.3856919367547299    0.37773467224708385    0.2779990484228944    0.22781838354743697    0.27796445072221265    
  0.11897198104577816    0.22785896585017043    0.37770671511642384    0.3737478688501829    0.2516591620256076    
  0.14740426199685117    0.09063862057667801    0.06755453982056274    0.06755713642998358    0.09063600330702021    
  0.14740808935648067    0.25165078643898214    0.3737471388157864    0.3777557237295197    0.22781839894067585    
  0.11897419886539189    0.11897198104577816    0.07049040309646683    0.11897196322978786    0.2779645282223195    
  0.39949324484992693    0.3287881294392251    0.20186673201818037    0.11796958492930788    0.07804783224515686    
  0.06660990941751925    0.07804782667032199    0.11796958874925778    0.20186676838982487    0.3287881554198361    
  0.3994931719860986    0.2779645097792308    0.11897194710179332    0.07049040309646683    0.12677991820892678    
  0.18148550691120321    0.32583430574464006    0.39880317958914785    0.30970709875845287    0.18889801067958786    
  0.11141588877790862    0.07447062564844492    0.06383472182242615    0.07447061771660103    0.11141589050725838    
  0.1888980544174297    0.3097070923484252    0.3988030885348519    0.3258343379380554    0.18148552401120852    
  0.12677991820892678    0.18148552398589837    0.18146105308801858    0.2846553594749145    0.39365246210799654    
  0.35699903103220637    0.23533062024242515    0.13855671760361712    0.08613111682857223    0.06470760203492325    
  0.06470284427498145    0.08613600768805578    0.13855026243248927    0.2353410012288061    0.3569944416832887    
  0.39362061573425794    0.2846769344039294    0.18148552398589837    0.3258343196718279    0.28465532004800054    
  0.3258907281708066    0.3936261542820245    0.37120977699247415    0.26296419982640257    0.16010368799702265    
  0.0971463093758722    0.0668295907644042    0.058010402946339634    0.06683040408163647    0.09714570420705408    
  0.1601042374358994    0.26295287138958495    0.37125233528837526    0.39362061722510233    0.3258343196718279    
  0.39880309061744496    0.39365244741977307    0.39362614593977274    0.3987714599410176    0.35698529390032707    
  0.26298941138794557    0.16841512062198563    0.10403294951053842    0.06896426140586714    0.05423422377900556    
  0.054229818181869664    0.06896875132522612    0.10402725682385966    0.16842938690715298    0.26295292359585964    
  0.35699446091778303    0.39880309061744496    0.3097071478721918    0.35699908145335824    0.37120978293298446    
  0.3569853285015674    0.3097454117730369    0.23534105613018527    0.16008364405213582    0.10403248320486236    
  0.06984834828723259    0.05259478030739761    0.047448723703551896    0.052594451925742906    0.06984903232870397    
  0.1040272646727099    0.16010427582357395    0.23534104555912908    0.3097071478721918    0.18889802207438453    
  0.23533063966855503    0.2629642647745136    0.2629894549821527    0.23534106540491892    0.18886347922052346    
  0.13855258525832873    0.09716013802036409    0.06896588469796688    0.05259442250866313    0.04534604415961693    
  0.04534666542239762    0.052594422728360284    0.06896872075478643    0.09714569670521767    0.13855023259049784    
  0.18889802207438453    0.11141588852658561    0.13855670491664204    0.16010368027512617    0.16841517415425444    
  0.16008363654242874    0.1385525625162601    0.11144179948254505    0.08613361987755527    0.0668186073908994    
  0.05423208662072501    0.04744923208301122    0.045346062275387206    0.0474487136794083    0.054229801798099296    
  0.06683040562767897    0.08613600062298449    0.11141588852658561    0.0744706112990617    0.0861311038304171    
  0.09714630980547198    0.10403297491724178    0.10403246155180122    0.09716011668843737    0.086133603137284    
  0.07444995738535541    0.06470534308932614    0.05802087516426723    0.05423210238588654    0.0525944452610165    
  0.052594778170171684    0.05423422171607612    0.058010399230523625    0.0647028527350352    0.0744706112990617    
  0.06383471104529963    0.06470760596924686    0.06682958597152695    0.06896426796341015    0.06984833004736342    
  0.06896588384183357    0.06681859101830805    0.06470534605746883    0.0638533976508877    0.06470534860895258    
  0.0668185861130118    0.06896588582295185    0.0698483277332717    0.06896424455456841    0.06682959230602349    
  0.06470761827566046    0.06383471104529963    0.07447062685792705    0.06470285207509945    0.05801041296782616    
  0.054234234741858116    0.05259477407018223    0.052594413979352966    0.054232089559993264    0.05802089037778088    
  0.06470533655466201    0.07444995276483901    0.08613361752520471    0.09716014521056648    0.10403247026866988    
  0.10403295418350397    0.09714630556553602    0.08613109879442359    0.07447062685792705    0.11141587836165756    
  0.08613599947553544    0.06683041678074943    0.054229825074606434    0.047448722089758665    0.045346033123613565    
  0.04744923649018596    0.05423209689498719    0.0668185965137272    0.08613361367179342    0.11144178564157974    
  0.1385526133931467    0.1600836196489096    0.16841511846425983    0.16010367556996258    0.13855673757769954    
  0.11141587836165756    0.18889800530147824    0.13855022936548655    0.09714568354000372    0.06896873187555451    
  0.05259441643259916    0.04534663836552533    0.045346037281251285    0.05259443561939162    0.06896588224778784    
  0.09716011320247558    0.13855258604446483    0.18886351962244988    0.23534110348255083    0.26298941547500154    
  0.2629641958531086    0.23533066260155605    0.18889800530147824    0.3097071363466911    0.23534104177982945    
  0.16010427561937665    0.1040272937007622    0.06984903994046687    0.05259441730499351    0.04744871717352629    
  0.05259479034910432    0.06984835397309239    0.1040324853616894    0.160083639129963    0.23534109003434328    
  0.30974540621435537    0.3569853069183269    0.37120980754307015    0.3569990817468753    0.3097071363466911    
  0.3988030925667156    0.3569944676641769    0.26295294784729256    0.16842942312980907    0.10402725673323902    
  0.06896872265697511    0.0542298012665863    0.05423423358310848    0.06896426120842067    0.10403294497373579    
  0.1684151505741266    0.26298945719474076    0.35698528880978747    0.3987714922112256    0.39362617961145274    
  0.39365246855649205    0.3988030925667156    0.32583429002937375    0.39362059868041277    0.37125236566422576    
  0.26295295222647364    0.16010423591173628    0.09714568767291579    0.0668304100093057    0.05801041755649218    
  0.06682958768815625    0.09714628043374975    0.16010366968865233    0.26296424550494324    0.3712097655873642    
  0.39362609698502743    0.3258907386500292    0.28465534220018096    0.32583429002937375    0.18148554254276666    
  0.28467695795870146    0.3936206041283273    0.35699446101568044    0.23534097198605844    0.13855022014747764    
  0.08613599069508253    0.06470286277464794    0.0647076222663581    0.08613109205148177    0.13855671085400942    
  0.23533070265440573    0.35699907285133153    0.3936524394424346    0.284655337720471    0.18146107744309467    
  0.18148554254276666    0.12677991820892678    0.18148550691120321    0.32583430574464006    0.39880317958914785    
  0.30970709875845287    0.18889801067958786    0.11141588877790862    0.07447062564844492    0.06383472182242615    
  0.07447061771660103    0.11141589050725838    0.1888980544174297    0.3097070923484252    0.3988030885348519    
  0.3258343379380554    0.18148552401120852    0.12677991820892678    0.3026179550592212    0.33960700871818367    
  0.3949445422577648    0.3628655152409491    0.2549012938437413    0.15533347000722572    0.09453247551631463    
  0.06519916620663804    0.056668352370181814    0.06519916273960485    0.09453247174256704    0.1553334885883066    
  0.25490132033546525    0.3628654348796243    0.3949445078611102    0.33960701276125105    0.3026179550592212    
  0.33960696613816177    0.3395720155616855    0.38517140411356465    0.3870226067811755    0.30048277149278957    
  0.19232316381046208    0.1158558299100463    0.07451585333997751    0.05735832807843528    0.057355477608573145    
  0.07451862084554152    0.11585223042363738    0.1923281642598682    0.30047927827882376    0.3870145419068976    
  0.38517062138350433    0.33960696613816177    0.39494452338682434    0.38517137781097915    0.3949858405331676    
  0.38700564488260664    0.3165051022683155    0.21491053627831294    0.13278025527514806    0.08329325378212443    
  0.05906339949079765    0.051945010197738825    0.05906378823736972    0.08329345630004015    0.132779888275532    
  0.2149083230681019    0.31651520125550203    0.387014585382662    0.39494452338682434    0.3628654479193084    
  0.3870226412457326    0.387005635866679    0.36284709689426176    0.3004805767604186    0.21491903780713983    
  0.13933108608801348    0.08877781889718431    0.060804348195808135    0.048867539364385246    0.0488660886312103    
  0.060805459694747814    0.08877597674069429    0.1393353535303285    0.21490833304287407    0.30047930251727667    
  0.3628654479193084    0.25490130887718826    0.30048283898254846    0.31650512002027914    0.3004806517095599    
  0.2549197580454245    0.19232518262571788    0.13277373777494222    0.08877759549481104    0.061525191950250996    
  0.04752132160884658    0.043307009604009766    0.04752131001021848    0.061525709960537786    0.08877598248385578    
  0.1327799264378921    0.1923282130001924    0.25490130887718826    0.15533347521736923    0.19232317573670404    
  0.2149105760395405    0.21491911426061855    0.19232517340932678    0.15531808499714128    0.115855063219698    
  0.08329777105961751    0.060804646689377066    0.047521593175247505    0.041567420241087547    0.04156782779674993    
  0.04752129702620681    0.060805429196543886    0.08329344783860465    0.1158522157257035    0.15533347521736923    
  0.0945324721630215    0.11585582661573204    0.13278024268537802    0.1393311053514092    0.13277372639298765    
  0.11585506167141442    0.09454374306609825    0.07451640569618154    0.05906025940051876    0.04886651195539072    
  0.043307249477035244    0.041567439712147145    0.0433070039782112    0.048866079059064094    0.05906379388005946    
  0.07451861418952754    0.0945324721630215    0.06519915542738948    0.07451584155116668    0.0832932486271106    
  0.0887778269551477    0.08877758490705662    0.08329776313769564    0.0745163892612808    0.06519057395469954    
  0.05735684028016142    0.05194867828832654    0.04886652611190608    0.04752162229013058    0.04752131428603381    
  0.048867546131983575    0.05194501587060133    0.05735548562204212    0.06519915542738948    0.05666833712650876    
  0.05735833481219676    0.05906339659167475    0.060804360972610494    0.06152516934887794    0.06080464576026346    
  0.05906024758036928    0.05735683351682798    0.05667667695284928    0.05735684550870736    0.05906024312341602    
  0.06080464782023532    0.06152516986308268    0.060804322741793246    0.05906340292283304    0.05735835016869936    
  0.05666833712650876    0.0651991812116494    0.05735548931734589    0.05194502367544538    0.04886755445572779    
  0.0475213047676403    0.04752160237071741    0.04886651235702765    0.05194869326380075    0.05735682480934261    
  0.06519057894908592    0.07451639410462096    0.08329778971012093    0.0887775831474746    0.08877781441350198    
  0.08329324187461216    0.07451584343865308    0.0651991812116494    0.09453247731759347    0.07451861175207408    
  0.059063803768394985    0.04886610792170524    0.043307010829001305    0.04156742368185052    0.043307251650620306    
  0.04886652038737215    0.059060251418173    0.07451638961253129    0.09454372972588215    0.11585509402171469    
  0.13277372524678982    0.13933106641313237    0.13278024781847728    0.11585586036663277    0.09453247731759347    
  0.15533346106025528    0.1158522014832089    0.0832934456668203    0.0608054500529472    0.04752128711134417    
  0.041567804706248296    0.041567422429577026    0.04752161399754075    0.060804648948150956    0.08329775602523791    
  0.11585507537865083    0.15531813895287935    0.1923251960780924    0.2149190445137507    0.21491049528567002    
  0.19232319529916875    0.15533346106025528    0.25490135510183615    0.19232823187761314    0.1327799194959622    
  0.08877601377975088    0.06152571703858312    0.04752128462525365    0.04330700301526227    0.04752132090930345    
  0.061525190626961004    0.08877760614909501    0.132773752462558    0.1923251975788252    0.2549197671823058    
  0.300480609086155    0.3165051160184146    0.3004828397056151    0.25490135510183615    0.36286546953013676    
  0.3004792551371784    0.21490836865564442    0.13933538049583413    0.08877595797345113    0.06080543275535953    
  0.04886608683944657    0.048867548515125994    0.06080433545579227    0.08877780867366054    0.1393310711759569    
  0.21491910518733723    0.3004805894749886    0.3628470200556798    0.38700561934473865    0.38702258575985793    
  0.36286546953013676    0.3949444835295357    0.38701454816772196    0.3165152254513843    0.2149084015119564    
  0.13277989921012584    0.08329344660804615    0.059063796617715894    0.051945033065084606    0.05906339296497599    
  0.08329323729381385    0.1327802454595231    0.21491058378880457    0.3165051135528929    0.38700559268595164    
  0.39498579806777123    0.3851713907709131    0.3949444835295357    0.3396070009671484    0.38517061923122836    
  0.3870145563531971    0.3004793149879865    0.19232817555519466    0.11585220183250046    0.07451860633707473    
  0.05735549976537623    0.057358345002238756    0.07451583410729129    0.11585584466789169    0.19232321475387323    
  0.30048281220604484    0.38702257898046405    0.3851713760410934    0.3395720441720604    0.3396070009671484    
  0.3026179550592212    0.33960700871818367    0.3949445422577648    0.3628655152409491    0.2549012938437413    
  0.15533347000722572    0.09453247551631463    0.06519916620663804    0.056668352370181814    0.06519916273960485    
  0.09453247174256704    0.1553334885883066    0.25490132033546525    0.3628654348796243    0.3949445078611102    
  0.33960701276125105    0.3026179550592212    0.3921964949986906    0.3856666545373448    0.34873310733613744    
  0.27074541081612524    0.18238490047486994    0.11471272393498849    0.07384098441213524    0.05358942357521597    
  0.04761171601945126    0.053589422747864573    0.07384098489339065    0.1147127421774059    0.18238492538604142    
  0.2707453786926914    0.34873312502734544    0.3856666089641389    0.3921964949986906    0.38566664947298196    
  0.3856607202812001    0.36304734757683405    0.3018099137648835    0.21593292736531722    0.13948224527987035    
  0.08831315785033962    0.060092183101761676    0.048089932285676436    0.04808977788318061    0.060092164386633735    
  0.08831279863316026    0.13948244256058534    0.215933266975107    0.3018083130231649    0.36304769687791383    
  0.38566664947298196    0.3487331477266455    0.3630474078351125    0.3487404652708681    0.3018064026682621    
  0.22862379028120852    0.1547633482501574    0.09971440057464184    0.06618684424020946    0.04928601721317945    
  0.04424271999949939    0.04928608126101978    0.0661873425243361    0.09971441084342478    0.1547631525480541    
  0.22862418302179657    0.3018083120274809    0.3487331477266455    0.2707453879954887    0.30180989596559776    
  0.3018063850675134    0.27074245645022277    0.21593389030861126    0.1547634158167734    0.10410174202544299    
  0.06995930179692543    0.050498027912212605    0.04200273409487314    0.042002790663858244    0.05049754270544752    
  0.06995908043934673    0.10410167821833838    0.15476315804759214    0.21593330670949654    0.2707453879954887    
  0.18238493811664194    0.21593296033985657    0.2286238238523638    0.2159339515451919    0.18238693664294806    
  0.13948255610039711    0.09971384035514817    0.06995884725831526    0.050991201879519346    0.04099113659729964    
  0.03794247847944373    0.040991470256292635    0.05099143090581807    0.06995908235490977    0.09971443875381085    
  0.13948247335439865    0.18238493811664194    0.11471273111524742    0.13948223228811962    0.1547633926065627    
  0.1547634686555329    0.13948254211036354    0.11471027224116209    0.08831322428278958    0.06618757962834798    
  0.0504982276310246    0.0409911037271619    0.03665328946155415    0.036652499992595705    0.04099145215119538    
  0.050497520205327925    0.06618733853060615    0.08831277939663904    0.11471273111524742    0.07384098957116693    
  0.08831315525659016    0.09971440514038672    0.10410175330129438    0.09971383721287623    0.08831324792935323    
  0.0738424419842436    0.06009211293290889    0.04928523395730054    0.04200289127141382    0.037942161342377705    
  0.03665330063085466    0.03794247215627709    0.04200276893250793    0.04928608748074966    0.06009216938261064    
  0.07384098957116693    0.05358941677213157    0.060092177746936634    0.06618684523358927    0.069959308248721    
  0.06995883025968    0.06618756854096351    0.060092096425286054    0.05358823800256927    0.048090184384952425    
  0.04424308310488265    0.04200290674815267    0.04099112438226364    0.04099112422871163    0.04200273118896361    
  0.04424272105830593    0.048089789435214046    0.05358941677213157    0.04761171305794111    0.04808994172818307    
  0.049286001473979234    0.05049803680409969    0.05099118849132024    0.050498227617671365    0.04928522264230066    
  0.04809017999158286    0.04761226630457136    0.04809018561303348    0.049285218116616784    0.05049823449379308    
  0.05099117912927037    0.050498001100498784    0.04928601399174296    0.048089952881985566    0.04761171305794111    
  0.05358943019591572    0.048089781395413075    0.044242728298741076    0.04200273340840193    0.04099111130842789    
  0.04099110460297169    0.0420028936682676    0.04424308784603327    0.04809016568536658    0.05358823578132445    
  0.060092102545831354    0.06618758260117169    0.0699588358022696    0.06995930271215427    0.06618682956985225    
  0.0600921610269072    0.05358943019591572    0.07384099118083344    0.06009216030098704    0.04928608839138225    
  0.042002801459350196    0.03794247912386466    0.036653286298515254    0.03794216317853741    0.042002905375508486    
  0.049285231760059924    0.060092094358088086    0.07384242054964583    0.08831326369541667    0.09971383341750199    
  0.10410172707106614    0.09971440912948792    0.08831317692322728    0.07384099118083344    0.11471271692249627    
  0.08831276742840789    0.06618733069955615    0.05049752507604374    0.040991445320291864    0.03665248825243542    
  0.03665328671401144    0.04099111724769872    0.05049822858957302    0.06618756333510985    0.08831324844120352    
  0.11471030271808558    0.1394825545862646    0.15476344650763713    0.15476335100917202    0.13948227077884548    
  0.11471271692249627    0.18238494853560758    0.1394824684751928    0.09971442697779306    0.06995910441809154    
  0.05099143412336021    0.040991457694689426    0.03794247128390621    0.040991132547150394    0.05099120307530648    
  0.06995885086114292    0.09971385962221607    0.13948255298557036    0.18238695800778845    0.2159339207749158    
  0.22862381077951655    0.2159329541543376    0.18238494853560758    0.2707453932145646    0.2159332434435231    
  0.15476316405745344    0.10410169534264228    0.06995906394942722    0.050497509340334555    0.042002787009804816    
  0.04200274367269405    0.05049802672221809    0.0699592924357478    0.10410172824722302    0.15476342562716444    
  0.21593385850944005    0.2707424031430624    0.3018063456167507    0.301809861466263    0.2707453932145646    
  0.3487330748991084    0.3018083566437695    0.22862421380467093    0.15476319944542005    0.09971442335058495    
  0.06618732966300715    0.04928608426309974    0.04424274448283695    0.049286012334254295    0.06618682854392612    
  0.09971439529789727    0.15476340581117576    0.22862376517996352    0.30180632135713986    0.34874043112011194    
  0.36304740559467247    0.3487330748991084    0.3856666606751027    0.36304770187422913    0.30180833639649485    
  0.2159333177741079    0.13948244584143693    0.08831276690399441    0.060092152893952464    0.048089795955155105    
  0.04808995685699072    0.06009217149286402    0.0883131667108227    0.1394822791484054    0.21593290133497317    
  0.301809877736428    0.3630473860167658    0.38566072781987015    0.3856666606751027    0.3921964949986906    
  0.3856666545373448    0.34873310733613744    0.27074541081612524    0.18238490047486994    0.11471272393498849    
  0.07384098441213524    0.05358942357521597    0.04761171601945126    0.053589422747864573    0.07384098489339065    
  0.1147127421774059    0.18238492538604142    0.2707453786926914    0.34873312502734544    0.3856666089641389    
  0.3921964949986906    0.2848142476935362    0.26935434204774555    0.22716583904049278    0.17126908508221508    
  0.1186972404714731    0.07972320855510535    0.055415065190731395    0.042858796405500554    0.039071984689311265    
  0.042858795150423595    0.055415062037436486    0.07972321644265036    0.11869727874761213    0.1712690484630669    
  0.22716586065245684    0.2693543119269251    0.2848142476935362    0.2693543080513394    0.26935404901252985    
  0.24053945858574546    0.19162678472118289    0.1381873149163844    0.0940721131871334    0.06415423345946869    
  0.046937557873097606    0.03936664825895148    0.03936666533439172    0.046937498505681165    0.0641542453336853    
  0.09407174836673823    0.13818772339614782    0.19162648171254779    0.2405395317117355    0.2693543080513394    
  0.2271658567129843    0.24053951657361067    0.2271665977602494    0.19162595833230944    0.14571571895823007    
  0.10286947894512288    0.07090965157207842    0.050711862145902314    0.04011261205476954    0.036877147253831406    
  0.040112665718654385    0.05071185991614699    0.07091003766440653    0.10286947782324168    0.1457154611858397    
  0.19162648874574617    0.2271658567129843    0.17126905996998823    0.19162677985631246    0.19162596637097803    
  0.17126884320848162    0.1381881245596145    0.10286923226663444    0.07347344172590048    0.05300843391635204    
  0.04086912345341833    0.035402972649593516    0.035402996132536814    0.04086898631323744    0.05300829601831532    
  0.07347307947489894    0.10286949574235729    0.13818774454866445    0.17126905996998823    0.11869729559531667    
  0.13818735486795505    0.1457157340945921    0.13818817312731493    0.11869707148662728    0.09407162097016365    
  0.07090986739415332    0.053008168450409524    0.04117563438286318    0.03472792707774188    0.032720731933012476    
  0.03472801503660191    0.04117582303086779    0.05300830019571499    0.07091006432291633    0.09407176309429839    
  0.11869729559531667    0.07972320756421417    0.09407210548147715    0.10286951334686183    0.10286925056841961    
  0.0940716201398378    0.07972349088872194    0.06415433046762059    0.05071210361942565    0.040868971312551974    
  0.03472833164530941    0.0318540523844734    0.03185414466706487    0.03472799107919666    0.04086897130827721    