#     DFTpy    
  CRYSTAL 
    
  PRIMVEC    
  6.335931034482758    0.0    0.0    
  0.0    6.335931034482758    0.0    
  0.0    0.0    3.4906896551724134    
  PRIMCOORD    
  4    1    
  Si    0.0    0.0    0.0    
  Si    3.167965517241379    3.167965517241379    1.7453448275862067    
  Si    0.0    3.167965517241379    0.8726724137931033    
  Si    3.167965517241379    0.0    2.61801724137931    
  BEGIN_BLOCK_DATAGRID_3D    
  3d_datagrid_density    
  BEGIN_DATAGRID_3D#0    
  27    27    15    
  0.0    0.0    0.0    
  6.335931034482758    0.0    0.0    
  0.0    6.335931034482758    0.0    
  0.0    0.0    3.4906896551724134    
  0.06952240582323492    0.12578184366632505    0.302194574558317    0.39263029711525077    0.28726965187139164    
  0.1693008976413178    0.10714509860585295    0.08739496623862927    0.09715388860987256    0.1342390238767913    
  0.19745891904774165    0.2718489896333616    0.3271852035933811    0.3460622390519227    0.32718530911892973    
  0.27184901077387397    0.1974589210639788    0.13423898100001064    0.0971538825875002    0.08739496438283015    
  0.10714509194512649    0.16930091208966105    0.2872696686931525    0.39263028669951244    0.3021945532796038    
  0.12578186995549256    0.06952240582323492    0.1257818505137467    0.18855209368079326    0.3434069766679273    
  0.38431913317334204    0.269437618632565    0.15904042384842157    0.10162940415850888    0.08328458087073576    
  0.09230961143179392    0.1266134689853773    0.18510554418981312    0.2548054210761886    0.3086716481207672    
  0.3279535978683713    0.30867162440995277    0.25480539117009904    0.18510558072956448    0.12661349106795938    
  0.09230961230854215    0.08328458168808239    0.10162940300615057    0.15904043055665879    0.26943761010446005    
  0.384319183256664    0.34340695346791367    0.18855209456537347    0.1257818505137467    0.3021945796332931    
  0.34340697671268544    0.39464277378312107    0.33851909325346    0.22118121768323468    0.1325554197838688    
  0.08738319956660431    0.07277820931396896    0.08003409493960216    0.10723849473079596    0.1533754027628973    
  0.20943028639115224    0.25546726253417823    0.2731146219008045    0.25546728188514517    0.20943026692541955    
  0.15337542631383486    0.10723849989481578    0.08003408817760178    0.0727782135736738    0.08738318575329028    
  0.13255542553732597    0.22118120378194547    0.33851909349981835    0.39464270847818256    0.3434069772261331    
  0.3021945796332931    0.39263025322607137    0.3843191542584135    0.33851909246672207    0.2496858875881173    
  0.16035956343066457    0.10052073613687651    0.06987070744252338    0.05976592222949451    0.06488625960025275    
  0.08360590710408924    0.11477782681330445    0.15261953393658237    0.18448321690512084    0.1970349532573091    
  0.18448322261621558    0.15261952584465155    0.11477783383498788    0.08360592137620317    0.06488624894789245    
  0.05976592231082246    0.06987071175296108    0.10052073674719779    0.160359549789467    0.24968591513858523    
  0.3385190840630461    0.38431916138903993    0.39263025322607137    0.2872696383608861    0.26943757979669697    
  0.22118120662212756    0.16035953730101835    0.10769845975488812    0.0726746535350921    0.054109382006081154    
  0.04780303007314548    0.05097920801435206    0.06246804800220855    0.0810432510788418    0.1030065065029988    
  0.12133636088595154    0.12855546827657025    0.1213363901527083    0.10300650818248637    0.08104324500930538    
  0.062468038556963944    0.050979210534605614    0.04780303803782233    0.05410937676384571    0.07267464909648876    
  0.1076984695543685    0.16035953227514466    0.22118118183118596    0.2694376279461206    0.2872696383608861    
  0.1693008888637417    0.15904041744352482    0.13255543798306207    0.1005207390024039    0.07267466073310484    
  0.0533457421774166    0.042610972525912165    0.038828696279397605    0.040606295942098074    0.047152645270874934    
  0.05740529711753537    0.06907930939908209    0.07859416191199697    0.08229960844633526    0.07859414645546839    
  0.06907931466769315    0.05740530218624675    0.047152640249099036    0.04060629980922263    0.03882868982206559    
  0.042610977836195774    0.053345733642974257    0.0726746682858053    0.10052074299738871    0.13255542720495742    
  0.15904044017412286    0.1693008888637417    0.10714508200474689    0.1016293982283599    0.08738319756204951    
  0.06987070483290118    0.05410938005620148    0.04261096441130491    0.035846680607208706    0.03327528763077263    
  0.034160313411841156    0.037861566659333296    0.043530837089024485    0.04979324234140956    0.054770734394291636    
  0.05667187454575539    0.054770749476492166    0.04979323752748493    0.04353083804676312    0.037861560000873984    
  0.03416031132152356    0.03327527730329862    0.03584668598007317    0.042610959120651486    0.054109388339145977    
  0.06987069331362403    0.0873831905203442    0.10162940391043931    0.10714508200474689    0.08739496460690833    
  0.08328457914173726    0.07277822746827695    0.059765923560764996    0.047803043407250535    0.038828691197574906    
  0.033275278450417174    0.03088821054737623    0.03116036715281244    0.03349400723348951    0.03714408756880445    
  0.04112190624921127    0.04422149485718201    0.04538582550472223    0.04422151002599557    0.04112190399398447    
  0.037144089542819315    0.03349401522730373    0.03116036387060137    0.030888205751884633    0.033275283708054784    
  0.03882869328839831    0.047803044327090365    0.059765915410310386    0.07277821487814357    0.08328458419856258    
  0.08739496460690833    0.09715386737577525    0.09230960774224196    0.08003408539781949    0.06488625631685059    
  0.05097921035635822    0.040606292920240775    0.03416031164017505    0.031160364822440507    0.030941124045239434    
  0.03284650869255606    0.03607878244239971    0.03962795456693983    0.04239042882495801    0.043428549748661394    
  0.04239042494917749    0.0396279526431686    0.03607877961424164    0.03284651015082307    0.03094112032405612    
  0.03116035919920292    0.03416031630738051    0.040606285587103934    0.050979216260171704    0.06488625067870496    
  0.08003409400311534    0.09230960643032703    0.09715386737577525    0.13423899378237703    0.12661346627466477    
  0.10723850013757373    0.08360590078000447    0.06246805207047218    0.04715264858241034    0.03786156442157311    
  0.03349400153713895    0.0328465098462838    0.034945863655365915    0.03878401227946551    0.043117457463213764    
  0.04654184377313785    0.04783838104856106    0.04654184347662853    0.043117448017289985    0.038784013459402474    
  0.034945855845361085    0.032846511375793565    0.03349400611708987    0.03786156419224131    0.04715264172041714    
  0.06246806186485145    0.08360589457722219    0.10723847130015517    0.12661349598668112    0.13423899378237703    
  0.19745891285041717    0.18510558813119551    0.15337542517096542    0.11477781111747806    0.08104324433103972    
  0.0574053102271168    0.04353084633565177    0.03714408960487489    0.036078790871110336    0.03878401718145376    
  0.043953962179667905    0.0499820677420337    0.05482913231035737    0.05667866479042542    0.05482913571574789    
  0.04998205321572948    0.04395395661128476    0.0387840207101814    0.03607878291762588    0.037144091756934706    
  0.04353084880169126    0.05740530910184627    0.08104325113788372    0.11477783491714742    0.15337541600559623    
  0.1851055814066563    0.19745891285041717    0.2718489710184047    0.2548054033524227    0.2094302588522993    
  0.15261952804527884    0.10300650091208934    0.06907930520989305    0.049793238391156035    0.04112189400831104    
  0.03962795390599286    0.043117467231887766    0.04998204408988707    0.05814126159122028    0.06480087158633746    
  0.06738399600643978    0.06480089039874509    0.05814125959057123    0.049982064553891266    0.04311746255311769    
  0.03962795086828744    0.04112190088473393    0.049793237483654496    0.06907930828742208    0.10300650524103323    
  0.15261951285112993    0.20943027645964513    0.2548054089808478    0.2718489710184047    0.327185194008443    
  0.30867160913782465    0.2554672522986905    0.18448319182404838    0.12133637919420051    0.07859415928106311    
  0.05477073606472731    0.044221491965161196    0.04239043090842882    0.046541841065247946    0.05482913486307655    
  0.06480087925263438    0.07301863207940751    0.0762271623056467    0.07301862259450556    0.06480086474042149    
  0.0548291291324061    0.046541843246782844    0.04239042133438408    0.044221501293222845    0.0547707339022596    
  0.07859413915753437    0.12133637983557201    0.18448321807493903    0.255467253093281    0.30867163836560774    
  0.327185194008443    0.3460622433893119    0.327953606057929    0.27311465537036106    0.1970349494539966    
  0.12855545759210588    0.0822996120455085    0.056671894325214536    0.045385834164421435    0.04342855416395794    
  0.04783839719175032    0.056678667037731174    0.067384006231064    0.07622715108411199    0.0796891984848522    
  0.07622715102372984    0.06738402019752167    0.056678660147052265    0.04783839603842341    0.04342855174964051    
  0.045385827291877075    0.05667189064151081    0.08229960568501904    0.12855547453889846    0.1970349499911103    
  0.2731146165929017    0.32795363686910706    0.3460622433893119    0.3271852404638475    0.3086716237792895    
  0.2554672884532125    0.18448319633618604    0.12133637010888526    0.07859416161567685    0.054770739367842776    
  0.04422148630753632    0.04239042269981812    0.04654183257854122    0.05482912381512233    0.06480088106672766    
  0.07301863564049081    0.07622715071609946    0.07301862642332829    0.06480086559188332    0.054829127705638456    
  0.04654184541900568    0.04239042116198509    0.044221499428253    0.05477073807170662    0.07859414032724292    
  0.12133637457235998    0.18448323429501062    0.25546725695850475    0.30867161176666325    0.3271852404638475    
  0.271849011750572    0.254805407016482    0.20943027750593546    0.1526195005458966    0.10300650977556264    
  0.06907931046875516    0.049793242900935474    0.04112189990547311    0.03962795487491923    0.04311746416258122    
  0.0499820542821743    0.05814124966036878    0.06480086687896847    0.0673840237107016    0.06480088428211746    
  0.058141261709103324    0.049982050493104446    0.043117454743509344    0.03962794679172253    0.04112189629610561    
  0.04979323588129154    0.069079313886829    0.10300649825948927    0.15261952080039334    0.20943027684100307    
  0.2548054210816471    0.271849011750572    0.19745891044427055    0.18510559429075543    0.15337543939396803    
  0.1147778123169975    0.08104323591726448    0.057405302843072825    0.0435308541366594    0.03714409406715016    
  0.03607878288236772    0.03878401110488716    0.04395395927660005    0.04998207285348187    0.054829133723302566    
  0.05667865975276269    0.054829130267387    0.04998205790709053    0.0439539511604995    0.03878401492806018    
  0.03607878352392634    0.03714409644742918    0.04353084512542064    0.05740530388761925    0.08104325189037151    
  0.11477782431425883    0.15337541663040283    0.18510556634838277    0.19745891044427055    0.13423897819241576    
  0.1266134588687595    0.10723849035889384    0.08360590783182083    0.0624680452643002    0.047152647683554955    
  0.03786156208932104    0.033494001607628804    0.03284651270888767    0.03494586434096907    0.03878401411668983    
  0.04311745357434959    0.04654183941153686    0.047838394145358856    0.04654185200397407    0.04311746105056424    
  0.038784020094286185    0.034945854136479125    0.03284650965099411    0.03349400647514363    0.03786156539848519    
  0.04715264761913927    0.062468049477667285    0.0836058957208755    0.1072384872916007    0.12661350409613872    
  0.13423897819241576    0.09715386438260012    0.09230961066859794    0.08003409331234305    0.06488625479215161    
  0.050979202485584026    0.040606296605252376    0.034160311931054496    0.031160361159603196    0.030941123715794345    
  0.03284650967882074    0.0360787840558224    0.039627954216799786    0.04239042081909281    0.04342854991112134    
  0.04239042392219302    0.03962795218996864    0.036078787855334096    0.03284650192064479    0.030941126574617075    
  0.03116036242911324    0.03416032092972598    0.040606285230208594    0.05097921775659676    0.0648862422600106    
  0.08003409772191532    0.09230960915614522    0.09715386438260012    0.08739496166473167    0.08328457973884443    
  0.0727782205854709    0.05976592423192388    0.0478030437563088    0.038828698780865145    0.033275282288205574    
  0.03088821250152859    0.03116036227604933    0.03349401335391066    0.03714407760116654    0.041121902726734334    
  0.04422149392254503    0.045385824188371275    0.044221505041044475    0.04112190502205353    0.03714408507610267    
  0.033494010697187035    0.031160367126967237    0.030888207292703855    0.03327528433064183    0.0388286908900588    
  0.04780304852345344    0.059765917984234786    0.07277821292265729    0.08328459364106536    0.08739496166473167    
  0.10714508440545446    0.10162939230695797    0.08738318931189351    0.06987069878223444    0.05410937206122842    
  0.04261096613377712    0.0358466791108251    0.033275289623195016    0.0341603042893629    0.03786155329560334    
  0.04353084361300332    0.049793232001543425    0.05477073983567841    0.0566718706679864    0.05477075293088017    
  0.04979323600363557    0.043530839869159156    0.037861557535095555    0.034160311778183274    0.033275276840949504    
  0.03584668428056418    0.04261095838226797    0.05410938077070296    0.06987070540390661    0.08738318255161882    
  0.10162939609237595    0.10714508440545446    0.16930087583202622    0.15904041710082248    0.1325554082435045    
  0.10052074185833723    0.07267464978880966    0.05334573964883067    0.04261096002159754    0.03882869242968486    
  0.040606291869263816    0.047152648309324814    0.05740530437153067    0.06907930962844784    0.0785941608955805    
  0.08229960316202573    0.07859415892615003    0.06907931556212349    0.057405297442028616    0.04715264364886058    
  0.04060629856981087    0.03882869048727658    0.042610968182350925    0.0533457328015646    0.07267466019406364    
  0.10052074150073814    0.1325554142795312    0.15904043820320546    0.16930087583202622    0.2872696046059455    
  0.26943757451705386    0.22118120971333166    0.16035953828555496    0.10769844559281076    0.0726746585784186    
  0.054109383071312044    0.0478030345786706    0.050979204230461164    0.06246805735853861    0.08104324533230578    
  0.10300649369837174    0.12133638269614415    0.12855546049267247    0.12133639770592329    0.10300650760737794    
  0.08104324706530038    0.06246803908096091    0.05097920595016707    0.047803046270439964    0.05410937914450043    
  0.0726746433012941    0.10769847138752522    0.16035952734814454    0.22118118025874822    0.26943763857226194    
  0.2872696046059455    0.3926303281864888    0.38431917192363996    0.3385191224198063    0.2496858757483456    
  0.16035953518149657    0.10052073487100203    0.06987070822503096    0.05976592436907307    0.06488624779666972    
  0.08360590456155295    0.1147778298617009    0.15261954174623035    0.1844832188640699    0.1970349444365908    
  0.18448324338794367    0.15261953283261961    0.11477781919669079    0.08360590575739166    0.06488624885953286    
  0.05976593268198231    0.06987070174648533    0.10052075191076656    0.16035954145562017    0.249685923292874    
  0.3385191020157321    0.3843191663796883    0.3926303281864888    0.30219454568345694    0.34340696420040867    
  0.39464273075085654    0.3385190841566776    0.22118121521860465    0.13255542845002383    0.0873831860950525    
  0.07277821442854522    0.08003409551465039    0.10723849650112074    0.15337539002272274    0.2094302532929418    
  0.25546728157399407    0.27311463375209216    0.2554672420886767    0.20943029563016063    0.15337539132407185    
  0.10723849322100484    0.08003408947434155    0.07277820565285062    0.08738318922525028    0.132555429760109    
  0.22118122129427856    0.3385191093452148    0.39464273362993296    0.3434069812817662    0.30219454568345694    
  0.125781827654979    0.18855211151825757    0.34340695868144555    0.38431917407722493    0.2694375792197793    
  0.15904043897180797    0.10162940421452495    0.08328457506355694    0.09230960671216569    0.1266134766450876    
  0.1851055800625813    0.25480542200211503    0.308671621114011    0.327953635761393    0.3086716259819827    
  0.25480541616756885    0.18510556457903377    0.12661350902521049    0.0923096126395444    0.08328458202029931    
  0.10162941366793878    0.15904041063317625    0.26943759971024955    0.38431916488533885    0.343406935671059    
  0.18855208975514323    0.125781827654979    0.06952240582323492    0.12578184366632505    0.302194574558317    
  0.39263029711525077    0.28726965187139164    0.1693008976413178    0.10714509860585295    0.08739496623862927    
  0.09715388860987256    0.1342390238767913    0.19745891904774165    0.2718489896333616    0.3271852035933811    
  0.3460622390519227    0.32718530911892973    0.27184901077387397    0.1974589210639788    0.13423898100001064    
  0.0971538825875002    0.08739496438283015    0.10714509194512649    0.16930091208966105    0.2872696686931525    
  0.39263028669951244    0.3021945532796038    0.12578186995549256    0.06952240582323492    0.12912758829399207    
  0.19217929901682312    0.34602804492323536    0.38457546749534355    0.2677265671563085    0.15525532164976205    
  0.09510328554175686    0.07205172095584522    0.07200996955840315    0.0893507479501262    0.1213038645390965    
  0.1612868864876594    0.1952600324534064    0.2087221543974494    0.1952600867566551    0.16128692221182128    
  0.12130388066435979    0.08935072047452483    0.07200997467355422    0.07205171869996146    0.09510329148186265    
  0.15525535057325623    0.26772657013975804    0.38457545278024274    0.3460280399960585    0.19217931350613363    
  0.12912758829399207    0.19192740782536974    0.2527431688853799    0.3737133178185238    0.37142511227271685    
  0.25077025357756916    0.14606381550034578    0.09051431611575388    0.06909478154232772    0.06904101023871248    
  0.08515932712074624    0.11476744181237432    0.151697312133609    0.18315148499457526    0.19566899818095046    
  0.18315144542383158    0.15169731584472732    0.11476745742916959    0.08515932484737437    0.06904100790107441    
  0.06909478368348368    0.09051432302597275    0.14606381674937124    0.25077023688841504    0.3714251573633393    
  0.3737132851814856    0.25274314959372407    0.19192740782536974    0.3453780838134355    0.3734738354406371    
  0.39284884441193363    0.31969192249475015    0.20577901932186882    0.12240107289690329    0.07858678676699257    
  0.061429904253504815    0.061418511298276295    0.07439401577743618    0.09798099051709729    0.1271350251538988    
  0.15195001474101338    0.1618557014309162    0.15195003208159952    0.12713501924979326    0.0979809780939587    
  0.07439402069279039    0.06141850329339042    0.061429911417746445    0.07858677855876137    0.1224010721946875    
  0.20577902807943896    0.3196919146964759    0.3928488283114749    0.37347386102753116    0.3453780838134355    
  0.384635521339526    0.37185837389459836    0.3201670154502351    0.23344208461302846    0.14999812353455472    
  0.09379359402795066    0.06381942923511556    0.051795310447066936    0.05183559966349207    0.06102506135831767    
  0.07742157428710729    0.09732249980397929    0.11405572873915186    0.12067864280947863    0.11405572263609112    
  0.09732250672953796    0.07742157191096967    0.061025077471793185    0.05183558987611496    0.05179531414625137    
  0.06381942369169648    0.09379359950845073    0.1499981282363644    0.2334421089603011    0.3201670344061595    
  0.3718583644513582    0.384635521339526    0.2710572623248066    0.2539803363927806    0.20824314826984414    
  0.15135479158682838    0.10220914516287775    0.068941976076555    0.05048924806787462    0.04284827803537069    
  0.042870540765296054    0.0487565004262166    0.05902688981763992    0.07112230360555052    0.08108478517399141    
  0.08498590904139651    0.08108480041243994    0.0711223058852769    0.05902688395943216    0.04875649648827129    
  0.04287054501330567    0.042848282227427426    0.050489250164138556    0.06894197231267496    0.10220915672934686    
  0.15135478904614735    0.20824313298580857    0.25398035201873237    0.2710572623248066    0.16385757623808458    
  0.15397800357251634    0.12854973452792426    0.09778234649526522    0.07088522885376733    0.051907528589155046    
  0.040881031153996876    0.03615321544753774    0.03611421757600285    0.03968394539703107    0.04578589839640982    
  0.05275238428764964    0.058357240608348834    0.06051323828792506    0.058357234770704106    0.052752392917052957    
  0.04578590094208224    0.03968393342313181    0.036114222349869926    0.03615321239744343    0.04088103845439849    
  0.051907513483908624    0.07088523721241899    0.09778234883788255    0.12854972498759493    0.15397802044655906    
  0.16385757623808458    0.11125715220968917    0.10537637739247205    0.09032277198610755    0.07185933028057521    
  0.0552192630896319    0.04302383587892831    0.035594995586723445    0.032230895360964566    0.03206834456554586    
  0.034331945435332446    0.03815987547513095    0.04243962447371716    0.04579905852045007    0.04705469160449731    
  0.04579907120541397    0.042439631635557265    0.038159875436368604    0.03433193709342713    0.03206835207526179    
  0.03223088754614057    0.03559499606835333    0.043023831539016406    0.055219282964163556    0.07185931435560979    
  0.09032275917674626    0.10537638589319248    0.11125715220968917    0.10131768681340961    0.09614271292516131    
  0.082996874821368    0.06684084000809601    0.05212006251588599    0.04118480569093358    0.03436434022448358    
  0.031115772540606552    0.03071734932587052    0.03242931415124315    0.035429671921534026    0.038774199233101624    
  0.04137555098012868    0.04233755389313377    0.041375551237912755    0.03877420037720824    0.03542967012851939    
  0.032429318146857865    0.03071735366128601    0.031115764401466694    0.03436434305009972    0.04118480769787358    
  0.052120071542633234    0.0668408332224492    0.08299687029478954    0.09614270669741343    0.10131768681340961    
  0.1272008938497834    0.1200660731456244    0.10196279714950018    0.07991802328312815    0.060138932671011565    
  0.0456851508645583    0.03683148381224318    0.0325931633274434    0.03180227287368303    0.033510435730990856    
  0.03677635096257536    0.04048245236969637    0.04341305616920348    0.04452613918904631    0.043413053043726196    
  0.040482452477010614    0.0367763525681758    0.033510427129985296    0.03180227035310965    0.03259315909513687    
  0.03683148834596686    0.0456851455464949    0.060138938838470546    0.0799180212928969    0.10196281142651958    
  0.12006608072123075    0.1272008938497834    0.19342265756627963    0.1812874536494821    0.15013049045854304    
  0.1124023251026232    0.07951339125013507    0.05637660355394084    0.042707155244567814    0.036271479803414775    
  0.03489596589544643    0.03706870929645713    0.04152780238349328    0.046751384879803425    0.05096217800813662    
  0.05258747794762753    0.050962195367759554    0.046751386487722396    0.04152779487739977    0.03706869958280507    
  0.03489597464818499    0.03627148359044541    0.042707157397105414    0.05637659742786494    0.07951340404331214    
  0.11240231752615626    0.15013046225549143    0.18128749763850838    0.19342265756627963    0.2944100209319727    
  0.2764799051400433    0.22739338534953038    0.16469645257868662    0.10978874626901033    0.07240306738937653    
  0.05120717709558554    0.041485677694748556    0.03933641441749612    0.042325479229890606    0.04874329047905767    
  0.05648999002007876    0.06283536827647003    0.06530331804504876    0.06283538035401741    0.056489979153240485    
  0.04874329796302833    0.04232547757494848    0.03933640246609808    0.04148567711254188    0.05120717383305166    
  0.07240307247241064    0.10978875488028    0.16469649510360534    0.22739340503418967    0.27647994607962884    
  0.2944100209319727    0.3796246013230571    0.3650739560401781    0.3118016634956259    0.2267389654208275    
  0.14573653770042302    0.09073160362294037    0.06054219848015002    0.047061712482372585    0.044076571536545914    
  0.04807055763020192    0.056810910183488876    0.06752758404982004    0.07642555936735211    0.07993189073583032    
  0.07642555391218585    0.06752759132038719    0.05681092952084028    0.04807056514514535    0.04407656587099483    
  0.047061712470573794    0.06054218874720448    0.09073161305857987    0.1457365338828799    0.22673893478649967    
  0.3118016380776202    0.36507398124096524    0.3796246013230571    0.3957709257359064    0.39727364678569393    
  0.365957704852128    0.2760922856047953    0.1757092241958116    0.10580304037242794    0.06799947090323565    
  0.05141420048918639    0.04776096097271033    0.0525942758480276    0.0632503714349745    0.07644979009683356    
  0.08750555525991904    0.09190117131359386    0.08750554961844371    0.076449780979463    0.06325037712390659    
  0.05259428744826503    0.047760953617513625    0.05141421249812876    0.06799947189014442    0.10580302239807159    
  0.17570920696554324    0.2760923136369414    0.36595764425412813    0.39727366596699026    0.3957709257359064    
  0.385753545694813    0.3966430665771097    0.38128352116858655    0.29435286732664    0.18741062044239437    
  0.111677645653773    0.07086637958463556    0.05306800661827123    0.04915575286481434    0.054298607229365144    
  0.06568231180501216    0.07987194207838684    0.09180590493460536    0.09654971320861767    0.09180593227236455    
  0.07987195312053814    0.06568233081698889    0.054298600973521766    0.04915575438963336    0.053068004243376224    
  0.07086638165524013    0.11167766172544422    0.187410632369277    0.29435286947103717    0.38128343223377914    
  0.396643092815975    0.385753545694813    0.39577095308499294    0.39727369983271904    0.3659577061414801    
  0.2760922909156858    0.1757092021231444    0.1058030318165816    0.0679994626694762    0.05141420099240152    
  0.04776096020104872    0.052594282089280686    0.06325036981031168    0.07644978617144726    0.08750555481376902    
  0.09190116680868657    0.08750554333285089    0.07644979162691282    0.06325037781927889    0.05259429382407775    
  0.04776096518960812    0.05141420871574989    0.06799947155680046    0.10580302533233639    0.17570921598877734    
  0.27609230948983926    0.36595766529567914    0.3972736544214011    0.39577095308499294    0.3796245802284928    
  0.3650739464389992    0.31180164467235455    0.22673895642580458    0.1457365461116186    0.09073160193884058    
  0.06054220127277918    0.04706171181126801    0.04407658000241599    0.04807056524603278    0.056810924149143655    
  0.06752758267793312    0.07642555372157725    0.07993189185676165    0.07642557352541003    0.06752759497236296    
  0.05681092346726654    0.04807056150295347    0.04407656926119771    0.04706171557358349    0.06054219129590119    
  0.09073161127054363    0.145736533309859    0.2267389368556099    0.31180164652242415    0.36507394443149394    
  0.3796245802284928    0.2944100181271251    0.2764799631972591    0.22739338769836911    0.16469645509781922    
  0.109788757283482    0.07240306731517017    0.05120717629833366    0.041485683343569224    0.039336406539056824    
  0.04232547263065595    0.04874329859237846    0.05648998579377493    0.06283535730189876    0.06530330455079061    
  0.06283537026021213    0.0564899686300247    0.048743298164583615    0.04232547816325192    0.03933640587035714    
  0.04148568229171226    0.05120716510584429    0.07240307276297328    0.10978875452831184    0.16469650149555073    
  0.227393376772456    0.27647993315839337    0.2944100181271251    0.19342264823665428    0.18128746511513613    
  0.15013049265209608    0.11240233756883397    0.07951339743437676    0.05637660574313289    0.04270715513358345    
  0.036271476092577505    0.034895968743668654    0.037068711036795744    0.04152779417106193    0.04675137746395773    
  0.05096216931598968    0.052587480473631966    0.05096218446454233    0.046751385543423674    0.04152779775564355    
  0.03706869968984359    0.0348959671244412    0.036271484025456    0.042707162153879735    0.05637659870321939    
  0.07951338866832808    0.11240232139676273    0.15013048432328707    0.1812875087205279    0.19342264823665428    
  0.1272009060882302    0.1200660706117374    0.10196281560474019    0.07991802416835839    0.06013892623528771    
  0.045685151500348985    0.03683148075879697    0.0325931602660309    0.03180227129624024    0.03351043393614915    
  0.03677635388036612    0.04048244990275267    0.04341305503348518    0.044526138510096853    0.043413048379809215    
  0.04048245170416217    0.03677635473333038    0.033510423853376846    0.0318022725583651    0.032593154728527265    
  0.036831488017827645    0.04568514034165405    0.0601389432780702    0.0799180112626694    0.10196281200574232    
  0.12006608601276123    0.1272009060882302    0.10131768279665514    0.0961426993773709    0.0829968669581794    