#     DFTpy    
  CRYSTAL 
    
  PRIMVEC    
  1.427744016399877    -2.4729251766070393    0.0    
  1.427744016399877    2.4729251766070393    0.0    
  0.0    0.0    2.687475818068965    
  PRIMCOORD    
  1    1    
  Si    0.0    0.0    0.0    
  BEGIN_BLOCK_DATAGRID_3D    
  3d_datagrid_density    
  BEGIN_DATAGRID_3D#0    
  13    13    13    
  0.0    0.0    0.0    
  1.427744016399877    -2.4729251766070393    0.0    
  1.427744016399877    2.4729251766070393    0.0    
  0.0    0.0    2.687475818068965    
  0.058764223194246824    0.10608857264602727    0.2647919450384488    0.38507050243964464    0.33508505044868064    
  0.25451475928336786    0.22460308114995142    0.25451479378304703    0.33508509707368667    0.38507048448299397    
  0.26479193205042095    0.10608857156136997    0.058764223194246824    0.10608858767218668    0.10602852228174114    
  0.21463664461688362    0.36244918208410537    0.3662760746511418    0.2807432704085514    0.22495573603697827    
  0.22493308930032438    0.2807704570332936    0.36625931768306047    0.36238103142802114    0.21466802540808624    
  0.10608858767218668    0.264791929115381    0.21463667720422813    0.26494108187770815    0.362375933631442    
  0.373729169132569    0.2953203177574    0.22518124623441882    0.20085490411172544    0.22518230824717372    
  0.29530195286188726    0.3738243278886893    0.3623810101673562    0.264791929115381    0.38507046327068095    
  0.36244928048991576    0.362375895475272    0.3849828002318378    0.3662353781625967    0.29540179319698034    
  0.2250503503856501    0.18773578023204057    0.18771349916652696    0.22508670584817098    0.2953019414241815    
  0.36625926306911843    0.38507046327068095    0.335085086918565    0.3662760764841295    0.3737292459549625    
  0.3662353705711714    0.3352016545525271    0.2807638127975419    0.2251198847558016    0.18772338843571126    
  0.17513163191047626    0.18771347290765972    0.22518233221409573    0.28077041586066553    0.335085086918565    
  0.25451479285316275    0.2807432871458197    0.2953203695453027    0.2954018405958091    0.28076375892678324    
  0.25441074170423    0.2249395883383459    0.2009167647768539    0.1877233624438179    0.1877358040482259    
  0.2008548940294155    0.2249330496611328    0.25451479285316275    0.2246030459531367    0.22495571383570806    
  0.22518127066594054    0.22505034461603513    0.22511987684725374    0.22493957528652586    0.22470557017055437    
  0.224939595516814    0.22511988201771727    0.22505033630426452    0.22518122102238058    0.22495572252465304    
  0.2246030459531367    0.25451480919221336    0.22493308152639815    0.20085489512991128    0.18773577144887382    
  0.18772334928080966    0.20091676032205788    0.22493959603789196    0.2544107532940107    0.28076377336336955    
  0.2954018344739169    0.2953202996291289    0.2807431999496035    0.25451480919221336    0.33508510428746147    
  0.2807705343563496    0.22518231125201388    0.18771351917706164    0.17513162438408045    0.18772336981303447    
  0.22511989072238997    0.2807637793869798    0.33520164687473525    0.3662354352798912    0.3737292259231518    
  0.36627610561904056    0.33508510428746147    0.3850704836813024    0.366259295356028    0.2953018892230241    
  0.22508676098506364    0.18771346021003393    0.18773577910432676    0.2250503502997884    0.29540178413758394    
  0.366235363593042    0.38498278152009774    0.3623759237103882    0.3624491659212068    0.3850704836813024    
  0.26479194300732034    0.36238099521711353    0.37382436892721044    0.29530192238971253    0.22518231410470788    
  0.20085489152740696    0.22518125757487298    0.2953203089706841    0.3737291673874514    0.3623759132536061    
  0.2649410637994616    0.2146365970060684    0.26479194300732034    0.10608857286271872    0.21466806696947308    
  0.3623810724055432    0.36625934549788697    0.2807704539193562    0.22493306515192024    0.22495575189204098    
  0.28074326790481835    0.366276086783265    0.36244925590549215    0.21463665219115768    0.10602850337181367    
  0.10608857286271872    0.058764223194246824    0.10608857264602727    0.2647919450384488    0.38507050243964464    
  0.33508505044868064    0.25451475928336786    0.22460308114995142    0.25451479378304703    0.33508509707368667    
  0.38507048448299397    0.26479193205042095    0.10608857156136997    0.058764223194246824    0.10124917370270521    
  0.1550711929763652    0.3026670600115657    0.38341169699355954    0.3187994379823133    0.24054020494832556    
  0.21249653846378616    0.24054024043896752    0.31879944483406275    0.38341167557030076    0.3026670470850957    
  0.15507117957522476    0.10124917370270521    0.15507119517492587    0.15498467762006898    0.2599444867359338    
  0.37405718746844785    0.35238429460632237    0.26564433827529677    0.21282093427918677    0.21279897970501516    
  0.2656702214718772    0.35236383183195763    0.37401414243218434    0.25995424171800924    0.15507119517492587    
  0.3026670393328738    0.2599445382006209    0.30281992216270864    0.3739941004093442    0.36185427038119516    
  0.2801530092093316    0.21315590123150954    0.1903066003717251    0.2131557242183368    0.2801427513207222    
  0.36191957880614606    0.37401412207655316    0.3026670393328738    0.38341168023748723    0.3740572487560516    
  0.37399405865280844    0.38332414191558206    0.3523541463063102    0.2802152573976951    0.21317923242502265    
  0.17804640784373987    0.17803028163748702    0.2132050401494334    0.28014275563512225    0.3523637287083121    
  0.38341168023748723    0.3187994355244917    0.3523842975469573    0.3618542821084474    0.35235421193147626    
  0.31890416191397764    0.26565833234282793    0.21311106914457    0.17803698455346964    0.16622551825884516    
  0.17803029348113664    0.21315574925454495    0.2656702234205011    0.3187994355244917    0.2405402456934663    
  0.26564437250208317    0.2801530457394029    0.2802152924909951    0.2656582789650995    0.24045111039945574    
  0.21280701149104614    0.1903519716849859    0.17803698022065173    0.1780464472872674    0.1903065939038403    
  0.21279894475287403    0.2405402456934663    0.21249653038363817    0.21282090193162687    0.21315593356742407    
  0.21317923816845988    0.21311106740365032    0.21280697898370463    0.2125840832505752    0.21280700718749804    
  0.2131110727690347    0.21317922309609688    0.21315589589051218    0.2128209016243272    0.21249653038363817    
  0.240540248055547    0.21279897287098468    0.19030659684825574    0.17804639746976794    0.17803696499099117    
  0.1903519468349983    0.2128070065751756    0.24045111223859764    0.2656582905252342    0.28021532340443844    
  0.2801529716275223    0.2656442955718005    0.240540248055547    0.3187994730454629    0.26567030642335776    
  0.21315574680778826    0.17803031649581216    0.16622550576570988    0.1780369814920635    0.2131110833317786    
  0.2656583009535026    0.3189041932877209    0.3523542303926999    0.3618542805834977    0.3523843223434496    
  0.3187994730454629    0.38341163322311306    0.35236378888694675    0.2801426917610159    0.213205104678227    
  0.17803027413496333    0.1780463976239039    0.21317920785835737    0.2802152382744752    0.3523541910794879    
  0.3833241400992375    0.3739940933442929    0.3740571732601386    0.38341163322311306    0.30266707206867033    
  0.3740141124412442    0.36191958250440104    0.28014271328276524    0.21315569271571264    0.1903065968753283    
  0.2131559012320979    0.2801530015762251    0.3618542513254732    0.3739941077927335    0.30281992535617613    
  0.25994444912776465    0.30266707206867033    0.15507120931178517    0.2599542759626558    0.3740141668101867    
  0.35236380378752313    0.26567025519665083    0.2127989648737973    0.21282094212834074    0.26564436942248676    
  0.3523843078265225    0.374057284988689    0.25994448362283995    0.1549846834683925    0.15507120931178517    
  0.10124917370270521    0.1550711929763652    0.3026670600115657    0.38341169699355954    0.3187994379823133    
  0.24054020494832556    0.21249653846378616    0.24054024043896752    0.31879944483406275    0.38341167557030076    
  0.3026670470850957    0.15507117957522476    0.10124917370270521    0.2519296143295255    0.29690056750196014    
  0.37310128205761284    0.361159982796935    0.27483951455048744    0.20509931218823027    0.1817538946040339    
  0.20509934599545113    0.2748395363845579    0.3611599584519366    0.37310126619339373    0.2969005537550865    
  0.2519296143295255    0.2969005674137611    0.2968193840246828    0.35712170277282196    0.3780815704744525    
  0.3101110106287177    0.2268239300148441    0.18203620052985708    0.18202449736839382    0.22683619111290074    
  0.3100985499615689    0.3780728443703479    0.3571102030386142    0.2969005674137611    0.3731012635997819    
  0.3571217621585526    0.3731942897376992    0.37805297692441936    0.3222147579184919    0.24015319012311226    
  0.1826104794740622    0.1635847196061771    0.18261106761701434    0.24015208796048462    0.3222329495067174    
  0.37807286785825384    0.3731012635997819    0.3611599307555858    0.37808161563519516    0.37805294024539826    
  0.3611100283370788    0.31010222685651223    0.24017440063804205    0.18292221037533843    0.15361699803635548    
  0.153611828517385    0.18292848747674278    0.24015206683683843    0.3100984499784145    0.3611599307555858    
  0.27483954658404003    0.31011101580295203    0.32221479701824685    0.31010226650595135    0.2748887396351872    
  0.22682721057617342    0.182596664462081    0.15361309209748425    0.14385330967720966    0.1536118549516095    
  0.18261109032234765    0.22683618564676075    0.27483954658404003    0.2050993451139356    0.22682396792566276    
  0.2401531856303702    0.2401743946168726    0.22682719794415565    0.20506043584817005    0.18202948012531928    
  0.16360025002921588    0.15361309671436654    0.15361701766779493    0.16358470354769306    0.18202448766866391    
  0.2050993451139356    0.18175389794193944    0.1820361840695279    0.1826104913803379    0.18292219142203298    
  0.18259665469098776    0.1820294713597585    0.1817923624002758    0.18202949577976932    0.1825966830823697    
  0.18292219731757856    0.18261047402540515    0.18203617254759774    0.18175389794193944    0.20509933538742509    
  0.18202449952510438    0.1635847080777166    0.15361697116099565    0.15361306900556165    0.1636002540637994    
  0.18202950104575222    0.20506043111410668    0.22682719662404463    0.24017442130697442    0.2401531380937731    
  0.22682388804850354    0.20509933538742509    0.27483954911224395    0.22683625357220746    0.18261107535620452    
  0.15361184197259353    0.14385328222804786    0.15361310420040483    0.1825966891905671    0.22682720683979937    
  0.2748887516073969    0.3101023358350611    0.32221478899929884    0.31011100928788143    0.27483954911224395    
  0.36115994494346315    0.31009853331562076    0.24015204464654136    0.18292850578625394    0.15361181756855627    
  0.1536169728492594    0.18292218816445358    0.24017435055654    0.3101022641916326    0.36111000545953065    
  0.378052968989407    0.37808157176786306    0.36115994494346315    0.3731012882843001    0.3780728492181739    
  0.3222329577707424    0.24015205014920182    0.1826110503795279    0.16358472181065267    0.18261047506400707    
  0.24015315425330921    0.3222147931927049    0.37805300151057053    0.3731942520464434    0.3571216717316376    
  0.3731012882843001    0.2969005882640282    0.35711024972295885    0.37807288398337496    0.3100985156080926    
  0.22683618799957983    0.18202449060698242    0.18203620923122035    0.22682394890261282    0.310111020275336    
  0.37808166415788863    0.3571217271949531    0.29681935905786705    0.2969005882640282    0.2519296143295255    
  0.29690056750196014    0.37310128205761284    0.361159982796935    0.27483951455048744    0.20509931218823027    
  0.1817538946040339    0.20509934599545113    0.2748395363845579    0.3611599584519366    0.37310126619339373    
  0.2969005537550865    0.2519296143295255    0.40557711376018524    0.40685897533429277    0.3801898958488714    
  0.30383960465339865    0.2183515553963167    0.1629479822824346    0.14512870999904276    0.16294799233638824    
  0.2183515800076929    0.3038395952640253    0.3801898788756951    0.40685894652301624    0.40557711376018524    
  0.40685901414349895    0.40684110865773776    0.3924524729759733    0.3343143236198401    0.24905898020339615    
  0.17985219630337138    0.14541467242838016    0.14541277596706184    0.17985255149765583    0.2490580003214728    
  0.33431446111307545    0.39244777205084863    0.40685901414349895    0.3801898766636853    0.3924525493368107    
  0.38020647105416866    0.33431062966174196    0.26054715716105054    0.190474804367587    0.14614096964736814    
  0.13169358324333982    0.14614276169884977    0.19047488585666522    0.2605476027311614    0.3343144725202859    
  0.3801898766636853    0.30383957999911726    0.33431436414240384    0.33431059498884347    0.30382992672713705    
  0.2490600562822746    0.1904758150268695    0.14659086334204388    0.12440834125494714    0.12440671480126443    
  0.14659034779905197    0.19047486752201925    0.2490579528749889    0.30383957999911726    0.2183515845594723    
  0.2490589778103119    0.2605472163330503    0.24906006732452576    0.21835836684637142    0.17985056185352857    
  0.14614161767408743    0.12440619235408884    0.11705866079833903    0.12440672043180954    0.14614278267416675    
  0.17985251190010945    0.2183515845594723    0.16294801720269933    0.17985222684664476    0.1904748359004349    
  0.1904758396620625    0.17985052084337297    0.16294448735423858    0.14541304814180975    0.13169587386660753    
  0.12440617418567786    0.12440838334784668    0.13169356284107323    0.14541273453303205    0.16294801720269933    
  0.14512868531560674    0.14541464851048122    0.14614097529164521    0.14659086384257292    0.14614162425371907    
  0.14541303788344292    0.14513333866409858    0.14541304398515248    0.14614162884401619    0.14659084980898754    
  0.14614096653737654    0.14541466886993443    0.14512868531560674    0.16294800585220945    0.145412752520195    
  0.13169356661426718    0.124408351235009    0.12440617915032909    0.13169586798110036    0.14541304238409378    
  0.16294449669591465    0.1798505306107945    0.19047584378959959    0.19047479857137797    0.17985214849114864    
  0.16294800585220945    0.21835161708316037    0.17985260940620862    0.14614277194237005    0.12440674205505439    
  0.11705863312659372    0.12440618056291405    0.14614165426250636    0.179850547880792    0.2183583615548095    
  0.24906009863801706    0.26054719973258644    0.24905899915395197    0.21835161708316037    0.3038395540391117    
  0.24905797812865488    0.19047484268062212    0.1465903711332568    0.12440669769561315    0.12440835893214282    
  0.14659087780307808    0.19047581076722067    0.2490600666024161    0.30382993211095904    0.3343106161781297    
  0.3343143005505755    0.3038395540391117    0.3801899185247918    0.3343144934867669    0.26054763659829894    
  0.1904748487017328    0.14614276920529115    0.13169357528314363    0.14614096764691628    0.19047478574608756    
  0.260547187176331    0.3343106265792214    0.3802064282685374    0.3924524344549759    0.3801899185247918    
  0.40685902199418444    0.3924478618045495    0.3343145301456036    0.24905801934099553    0.17985253815581204    
  0.14541274577404387    0.1454146714862592    0.17985220311189526    0.24905900920379034    0.3343143772932799    
  0.3924524854505908    0.4068410886751082    0.40685902199418444    0.40557711376018524    0.40685897533429277    
  0.3801898958488714    0.30383960465339865    0.2183515553963167    0.1629479822824346    0.14512870999904276    
  0.16294799233638824    0.2183515800076929    0.3038395952640253    0.3801898788756951    0.40685894652301624    
  0.40557711376018524    0.40386883361036763    0.38094859165861217    0.3172668153430246    0.23630524091221503    
  0.16816059522011503    0.12720743186356503    0.11408059603850465    0.12720745255365895    0.16816061206155533    
  0.2363052293933026    0.31726679081550646    0.38094861019613874    0.40386883361036763    0.3809486594371897    
  0.38095132947747123    0.33729677862539525    0.2645723531935297    0.19157784832036248    0.13965333675837796    
  0.11438737987078082    0.11438636879078051    0.13965331244190451    0.19157768234276074    0.26457223582674333    
  0.33729753249309125    0.3809486594371897    0.3172667921538981    0.33729681961898583    0.31726531630466837    
  0.26457375952206436    0.20064651322981567    0.14749009489698267    0.11508470850239791    0.10450460562199071    
  0.11508596570222353    0.14748962686704187    0.20064733515690458    0.26457224954659936    0.3172667921538981    
  0.23630521817441272    0.2645723878612296    0.2645736805175363    0.23630447344292652    0.1915786183298904    
  0.14748907617622564    0.11547919618617894    0.09927828723030233    0.09927788007920547    0.11547821485513117    
  0.14748961529673327    0.19157762752713745    0.23630521817441272    0.16816061418456682    0.1915778323615291    
  0.20064650572795223    0.19157864206064668    0.16815959144367396    0.13965315952826424    0.11508549346300696    
  0.09927760771274113    0.09388253540966926    0.09927788864121347    0.11508600766816465    0.13965331130336173    
  0.16816061418456682    0.12720745218088145    0.13965334354068992    0.14749010759474823    0.1474891017706662    
  0.13965312840486205    0.12720858137177182    0.11438674473212686    0.10450505577929622    0.09927760463393538    
  0.09927832237824456    0.10450458887683343    0.11438635746122089    0.12720745218088145    0.11408059711672341    
  0.11438736035927946    0.11508471668873434    0.11547921728980609    0.11508547547489516    0.11438673442357945    
  0.11407967762566777    0.11438674946169242    0.11508548316950969    0.11547920277611529    0.11508469143786695    
  0.11438735821748153    0.11408059711672341    0.1272074726329187    0.11438638330481829    0.10450460162880705    
  0.09927828044456691    0.09927760001106421    0.10450505287895502    0.11438675729703209    0.12720857252976936    
  0.13965313632760645    0.14748913050951634    0.1474900659603575    0.13965328149395756    0.1272074726329187    
  0.16816061848989802    0.13965335599490683    0.1150859896755446    0.09927790544648918    0.09388252987011315    
  0.09927762343758066    0.11508550287548315    0.1396531309201162    0.16815961929551798    0.19157868014088528    
  0.2006465099934512    0.19157786999270704    0.16816061848989802    0.23630519394612964    0.19157764208975328    
  0.14748957483825229    0.11547824228951836    0.09927785486558317    0.09927828433940314    0.11547919470449435    
  0.1474890668532774    0.19157865915960412    0.23630444970033165    0.2645737074660715    0.26457233619686316    
  0.23630519394612964    0.3172668236765955    0.2645722311626742    0.20064735177661785    0.14748959991828003    
  0.11508594642440176    0.10450460830782209    0.11508470433898577    0.14749007134251127    0.2006465173366119    
  0.26457374945071027    0.3172653285799586    0.33729672446646913    0.3172668236765955    0.3809486763923568    
  0.3372975646026932    0.26457227415073276    0.19157767148901408    0.13965331139144807    0.11438635735954315    
  0.11438737405449874    0.13965333236556166    0.1915778754153205    0.2645724334554858    0.337296769534754    
  0.3809513221135691    0.3809486763923568    0.40386883361036763    0.38094859165861217    0.3172668153430246    
  0.23630524091221503    0.16816059522011503    0.12720743186356503    0.11408059603850465    0.12720745255365895    
  0.16816061206155533    0.2363052293933026    0.31726679081550646    0.38094861019613874    0.40386883361036763    
  0.33846938772497337    0.314812645865484    0.25608205448498755    0.18920734435742417    0.13610056325766764    
  0.10465313738428192    0.09450678264690358    0.10465314089083794    0.13610059951480355    0.1892073264093193    
  0.2560820090592737    0.31481263407001736    0.33846938772497337    0.3148126594376667    0.3148137042900251    
  0.2738290410184274    0.2121447057964496    0.15425079518539736    0.11422515447414251    0.09480797307488083    
  0.094807833571725    0.11422494327117175    0.1542512022058794    0.21214345442640276    0.2738303951056082    
  0.3148126594376667    0.2560820202805991    0.27382908517253574    0.25608256330815615    0.21214323096901525    
  0.16143494654230875    0.12021303195927645    0.09537442506333892    0.08728586607268365    0.09537443372740023    
  0.12021333904826201    0.1614350411597103    0.21214346077209884    0.2560820202805991    0.1892073119573671    
  0.21214472519733596    0.21214318368636725    0.18920890020098738    0.1542502707910384    0.12021405908904763    
  0.09563515744745688    0.08327049976752429    0.08327088811935485    0.09563471994183782    0.12021331873790854    
  0.15425113048935257    0.1892073119573671    0.13610060363569637    0.1542508029836315    0.16143498656342162    
  0.15425028238291194    0.13610039039865693    0.11422531214355425    0.0953734710111466    0.08327110789679461    
  0.07913125340031728    0.08327091688672124    0.0953744546087684    0.11422494657403567    0.13610060363569637    
  0.10465314184398426    0.11422515747002243    0.12021302103754287    0.120214076328938    0.11422529112698715    
  0.10465295741552129    0.09480859300014294    0.0872857641001868    0.08327110753886395    0.08327052281974515    
  0.08728584514743956    0.09480781810371848    0.10465314184398426    0.09450677265642769    0.09480794551563627    
  0.09537443061093724    0.0956351497904569    0.09537346293496676    0.09480857791038946    0.09450570283306839    
  0.0948085819867888    0.09537348358833163    0.0956351556686168    0.0953744253356848    0.09480795453722254    
  0.09450677265642769    0.10465315693786383    0.09480782441316217    0.08728587018283038    0.0832704935071492    
  0.08327109706886926    0.08728576519722045    0.09480861075474625    0.10465295434530052    0.11422529306576562    
  0.12021409892284143    0.12021299799576608    0.11422511865113218    0.10465315693786383    0.13610060815054695    
  0.11422499176637989    0.09537443444542057    0.08327090786544947    0.07913123351250563    0.08327112181324303    
  0.0953734917190067    0.11422528719134901    0.13610039326567944    0.15425032294292276    0.16143495841958097    
  0.15425079880384113    0.13610060815054695    0.1892073023649785    0.15425115961140637    0.1202132964611063    
  0.09563474872242649    0.0832708858413618    0.08327049045227779    0.09563514821520826    0.12021404215412876    
  0.15425029411649493    0.1892088959053966    0.21214322685906378    0.21214468923303678    0.1892073023649785    
  0.2560820438200407    0.21214343656999907    0.16143507646617983    0.12021331281751228    0.09537442332395288    
  0.08728586026730678    0.09537443169030652    0.1202130011062993    0.16143498368517226    0.2121432533809004    
  0.2560825573004939    0.2738289902213052    0.2560820438200407    0.3148126937789898    0.2738304502485236    
  0.2121434854470877    0.1542511699127283    0.11422495050491749    0.09480783113649624    0.0948079799527644    
  0.11422516682097344    0.1542508079497601    0.2121447646455562    0.2738290492913785    0.3148136871770956    
  0.3148126937789898    0.33846938772497337    0.314812645865484    0.25608205448498755    0.18920734435742417    
  0.13610056325766764    0.10465313738428192    0.09450678264690358    0.10465314089083794    0.13610059951480355    
  0.1892073264093193    0.2560820090592737    0.31481263407001736    0.33846938772497337    0.30977580330952287    
  0.2876741550953011    0.23375188828865917    0.17320688014296787    0.12540041578654917    0.097118064494123    
  0.0879698119188487    0.09711806201744817    0.12540045027261107    0.17320687032590604    0.23375187176654375    
  0.2876741520646713    0.30977580330952287    0.2876742102419183    0.2876754262522599    0.24997866616494252    
  0.19402207404574268    0.14175882318986846    0.10572027136847491    0.08826163350897441    0.08826320612510198    
  0.10571888626280503    0.14176079773841252    0.19401899599031777    0.2499814554720611    0.2876742102419183    
  0.23375188176826206    0.2499787033756197    0.23375401702155046    0.19401771992917158    0.14829060076246364    
  0.1110628758657555    0.08875382827074649    0.08152925447628592    0.08875307685819213    0.11106317671412126    
  0.14829045443096195    0.19401899483312077    0.23375188176826206    0.17320684154222854    0.19402211825952084    
  0.1940176761192745    0.17321015019097458    0.1417581291256025    0.11106563900253108    0.08894345935466855    
  0.0779154603991636    0.07791502198126656    0.08894500131185067    0.11106317304104084    0.14176076497611942    
  0.17320684154222854    0.1254004437527989    0.14175881079256056    0.14829065448187354    0.14175813099154586    
  0.1254010054983478    0.10571921249147587    0.08875240055691236    0.07791555144359351    0.0742219491478522    
  0.07791501775376748    0.08875308842603447    0.10571886109535499    0.1254004437527989    0.09711808536228392    
  0.10572027402185151    0.11106289598292489    0.11106566370930285    0.10571918168593218    0.09711823725703525    
  0.08826279622436539    0.08152977849237972    0.07791553664509598    0.07791548752710703    0.08152925191692435    
  0.08826319679911009    0.09711808536228392    0.08796980547802134    0.08826162118239285    0.08875383139594684    
  0.08894345033422088    0.0887523775851652    0.08826279198321417    0.08796920009617329    0.08826279473365319    
  0.08875239734165934    0.08894344766780121    0.08875380715739027    0.08826162815616691    0.08796980547802134    
  0.09711809916511507    0.08826320930149709    0.08152925438020761    0.07791546618042502    0.07791553254674813    
  0.0815297818384601    0.08826280494107781    0.09711823644028907    0.10571918847194713    0.11106566544976347    
  0.1110628539964464    0.10572022135277642    0.09711809916511507    0.1254004551429845    0.10571892677649758    
  0.08875308090627285    0.07791503613760661    0.07422194345758401    0.07791555086297212    0.08875240569688425    
  0.10571919607298166    0.125400998877647    0.14175815502237604    0.14829063182649604    0.1417588429209915    
  0.1254004551429845    0.17320685519285114    0.14176078359817698    0.1110631428406063    0.08894503391004584    
  0.07791499518561565    0.07791547010311564    0.0889434579212283    0.11106562738725974    0.141758128549243    
  0.17321013791662965    0.1940176965099805    0.19402204685274435    0.17320685519285114    0.23375188585621412    
  0.19401897286255254    0.1482904869311195    0.11106315760208857    0.08875307900345718    0.0815292547044924    
  0.08875383043480971    0.11106286312472773    0.14829061439327704    0.1940177115783845    0.23375399254810114    
  0.24997862340745783    0.23375188585621412    0.287674175173284    0.24998149739128864    0.19401902675574006    
  0.14176081093285847    0.10571888081072825    0.0882632026624965    0.08826164079605882    0.10572025226050603    
  0.14175882963843997    0.1940221307645043    0.24997867457659648    0.2876753797195294    0.287674175173284    
  0.30977580330952287    0.2876741550953011    0.23375188828865917    0.17320688014296787    0.12540041578654917    
  0.097118064494123    0.0879698119188487    0.09711806201744817    0.12540045027261107    0.17320687032590604    
  0.23375187176654375    0.2876741520646713    0.30977580330952287    0.33846937124591053    0.3148126332083406    
  0.25608202580676465    0.18920735725440466    0.13610059028049046    0.10465312898253494    0.09450677592993816    
  0.10465313384369787    0.13610060060918822    0.18920733193304806    0.2560820176347414    0.3148126158774971    
  0.33846937124591053    0.31481266243222045    0.31481368059938597    0.273829020980242    0.2121447000094672    
  0.1542508054505044    0.1142251599661976    0.09480796822662287    0.0948078257848579    0.11422494899106246    
  0.15425119022715514    0.2121434538748806    0.27383041291968757    0.31481266243222045    0.2560820215982499    
  0.27382907314404914    0.25608256306545435    0.21214324192600967    0.16143497900609155    0.12021302807574631    
  0.09537442797959965    0.08728585769788706    0.09537444774700171    0.12021333414620106    0.16143505903933938    
  0.21214346282252874    0.2560820215982499    0.18920733333764184    0.21214472695279174    0.21214319161979597    
  0.1892089112995819    0.15425027232205443    0.12021405648262316    0.09563515237520014    0.08327049577336164    
  0.08327088732357667    0.09563470578926128    0.12021332982544691    0.15425111776708914    0.18920733333764184    
  0.1361005971617348    0.1542507879768034    0.16143498811312545    0.15425030952207652    0.13610037773689962    
  0.11422530441871821    0.09537346534048174    0.08327111293048295    0.0791312518785222    0.08327089819607741    
  0.09537446116289144    0.1142249465838205    0.1361005971617348    0.10465315491596631    0.11422517354731763    
  0.12021303944104068    0.12021407878927759    0.11422527358935863    0.1046529705013713    0.09480858643074197    
  0.08728578641384813    0.08327111475883232    0.08327053551070723    0.08728585884679901    0.09480780998902041    
  0.10465315491596631    0.09450677965853048    0.09480794385071468    0.09537443987883777    0.09563515549996596    