#     DFTpy    
  CRYSTAL 
    
  PRIMVEC    
  4.905724137931034    0.0    0.0    
  0.0    4.905724137931034    0.0    
  0.0    0.0    4.905724137931034    
  PRIMCOORD    
  8    1    
  Si    0.0    0.0    0.0    
  Si    1.2264310344827585    1.2264310344827585    1.2264310344827585    
  Si    0.0    2.452862068965517    2.452862068965517    
  Si    1.2264310344827585    3.679293103448275    3.679293103448275    
  Si    2.452862068965517    0.0    2.452862068965517    
  Si    3.679293103448275    1.2264310344827585    3.679293103448275    
  Si    2.452862068965517    2.452862068965517    0.0    
  Si    3.679293103448275    3.679293103448275    1.2264310344827585    
  BEGIN_BLOCK_DATAGRID_3D    
  3d_datagrid_density    
  BEGIN_DATAGRID_3D#0    
  21    21    21    
  0.0    0.0    0.0    
  4.905724137931034    0.0    0.0    
  0.0    4.905724137931034    0.0    
  0.0    0.0    4.905724137931034    
  0.05786492518300532    0.1128259978805532    0.3082655571017609    0.45636904190140054    0.3825694177071135    
  0.2511979120899915    0.1583423104648844    0.10438956361054924    0.07552298576119991    0.06177547311641763    
  0.057656346120446664    0.06177544504258707    0.07552303627460576    0.10438951612193806    0.1583423101792865    
  0.2511978619984396    0.38256957435800243    0.4563690091405486    0.30826550955378745    0.11282600889016277    
  0.05786492518300532    0.1128260214989622    0.1793490352894436    0.36708388901973055    0.46943303753730614    
  0.38012971380155336    0.252217936717866    0.16211890464202183    0.1090112456173159    0.08012225489474797    
  0.06606529485209231    0.061775464239100554    0.06606527371235592    0.08012228755915321    0.10901123015828063    
  0.16211889700351215    0.25221800161669616    0.380129666177282    0.4694330655571957    0.36708395907195146    
  0.17934903911605393    0.1128260214989622    0.3082655690080978    0.367083892837286    0.47276366275780374    
  0.4720787723074166    0.3663837071857986    0.25391351665608436    0.17338272705412905    0.12342732914875064    
  0.09481888689606134    0.08012225875014935    0.07552301505945504    0.08012225359472988    0.09481893409936536    
  0.12342723387158412    0.1733827638318876    0.2539134941844032    0.3663836547198234    0.4720787009031266    
  0.4727635352358915    0.36708394532772787    0.3082655690080978    0.45636902985121597    0.4694330469828647    
  0.4720787967008314    0.42068046786444774    0.33552543593266976    0.2539137410117173    0.19159368006392935    
  0.14959741302339638    0.12342725674218058    0.1090112612779042    0.10438953246956569    0.10901126891783026    
  0.12342729424042065    0.14959740245440728    0.19159368162091248    0.2539137901678725    0.33552546086707763    
  0.4206805138517323    0.47207867648425766    0.46943301990540354    0.45636902985121597    0.3825694823010175    
  0.3801296590029646    0.36638374248003835    0.33552545917640775    0.29399688182928757    0.25221771516590735    
  0.21738270174027935    0.1915936580709445    0.1733827624223873    0.16211892357109683    0.158342364879863    
  0.162118890676043    0.17338279520381925    0.1915936603392057    0.21738280493042242    0.25221771093351125    
  0.293996924168769    0.33552550346513105    0.36638370493741207    0.38012965395155435    0.3825694823010175    
  0.2511978448016666    0.2522179540983189    0.2539134916945343    0.2539137127921763    0.2522176777517299    
  0.2511981406247361    0.25221768474906286    0.253913797185806    0.25391349641524674    0.2522179993820059    
  0.2511978743430206    0.2522179382322298    0.2539134749318358    0.25391376675076016    0.25221765057873596    
  0.2511981145088909    0.252217647273375    0.25391380806490116    0.2539134593112691    0.2522179709287266    
  0.2511978448016666    0.15834238127868933    0.1621188986581461    0.1733827659210925    0.1915936617475241    
  0.21738276542526191    0.2522176749409616    0.2939968822494612    0.33552546669127054    0.36638367875644257    
  0.3801296887495563    0.3825695376000501    0.3801296075548666    0.3663837280853294    0.3355253988520649    
  0.2939969538606903    0.25221764977639916    0.21738271929065953    0.1915936922158567    0.17338279960326955    
  0.1621188877116893    0.15834238127868933    0.10438950537188375    0.10901123724779095    0.12342733194826984    
  0.14959744505415568    0.1915936419679077    0.2539137637502608    0.3355254133291656    0.42068060241613864    
  0.47207870341289376    0.46943307479012397    0.45636899852758034    0.46943307600804945    0.47207869635776334    
  0.42068053300422337    0.3355254360308446    0.2539138375049789    0.1915936432477787    0.14959743239039433    
  0.12342722477762672    0.10901126911858883    0.10438950537188375    0.07552304758047705    0.08012221091124128    
  0.09481900722956892    0.1234272472610611    0.17338276986763396    0.25391351645902005    0.3663837823290575    
  0.47207871682189523    0.472763588621852    0.3670838757389277    0.30826558503486234    0.36708389133141517    
  0.47276366383281043    0.47207871802920076    0.36638376151629254    0.25391346798191083    0.1733827740051436    
  0.12342725712945046    0.09481896339504972    0.08012222269584368    0.07552304758047705    0.061775422741117476    
  0.0660653093013843    0.08012225055371208    0.10901126313395974    0.16211890430009968    0.25221798539958135    
  0.3801296205554572    0.4694331097694863    0.3670838855359005    0.17934908193793217    0.11282595533191891    
  0.17934908380970824    0.3670838716182459    0.4694330902649327    0.38012964236138025    0.25221800734769323    
  0.16211883238513783    0.10901129697498436    0.08012223425778088    0.06606533830748985    0.061775422741117476    
  0.05765637641907961    0.061775421492605426    0.0755230546419823    0.10438947027635885    0.15834232185079147    
  0.25119785863576505    0.3825695651292675    0.45636900925595986    0.3082656494590534    0.11282596958183803    
  0.05786493990718584    0.11282593723130929    0.3082656476058891    0.45636890180869083    0.3825695439050484    
  0.25119783099912185    0.15834237978033985    0.1043895019622399    0.07552299784149451    0.061775427373758116    
  0.05765637641907961    0.061775431351969355    0.0660653080672573    0.08012225206882102    0.10901121003043315    
  0.16211889819217057    0.25221801320569065    0.38012960650865485    0.469433147585694    0.36708388819610804    
  0.17934907777777012    0.11282597557928757    0.1793490574575412    0.36708393884837703    0.46943309967908403    
  0.3801296401953448    0.25221797760495523    0.16211882289645416    0.10901129429102972    0.08012223807560846    
  0.06606531767186384    0.061775431351969355    0.07552303334520294    0.08012223781837    0.0948189884301235    
  0.1234272851945851    0.17338277628986012    0.25391348318611956    0.36638365248888516    0.47207880206165975    
  0.47276353813144556    0.3670839092425571    0.3082655860751374    0.36708390084309356    0.47276367104949213    
  0.47207875185786247    0.3663837223136936    0.25391347901563316    0.17338275998867966    0.12342725804873014    
  0.09481891115688759    0.08012223227821792    0.07552303334520294    0.10438954745443411    0.10901125131154252    
  0.12342726681210342    0.1495974252203771    0.19159366314889467    0.25391374734288186    0.3355254940915456    
  0.4206804817451588    0.47207877630572753    0.46943306054809225    0.45636899524335284    0.4694330589808961    
  0.4720787735970709    0.4206804579667972    0.3355254524056295    0.25391377440485857    0.19159370203012824    
  0.14959743407899231    0.12342729152212337    0.10901127634786409    0.10438954745443411    0.15834233683307927    
  0.1621188896346161    0.17338275530001618    0.19159364376018861    0.2173827091443199    0.25221773441980494    
  0.2939968957100068    0.3355255062651685    0.3663836860636815    0.3801296968785346    0.382569496704738    
  0.38012960168129883    0.36638373662032653    0.33552546530688726    0.2939969425155559    0.25221773247244506    
  0.2173827124496455    0.1915936863790148    0.17338272472934793    0.16211893256611326    0.15834233683307927    
  0.25119790402117786    0.25221792250525776    0.25391354453865683    0.25391368245760904    0.252217720555971    
  0.2511980863660308    0.25221771243278424    0.25391376056370646    0.2539135287521514    0.2522179344877597    
  0.25119788077447164    0.25221788737792133    0.2539135438665401    0.2539137514395491    0.2522176796101128    
  0.2511981067962176    0.2522177147203044    0.25391374618313184    0.2539134609948185    0.2522179443777195    
  0.25119790402117786    0.38256945947491316    0.3801297045018516    0.3663837283446949    0.33552551277892656    
  0.29399684611425614    0.25221772662030506    0.21738267803794542    0.1915936773551518    0.17338271382897202    
  0.1621189127630371    0.15834235363999036    0.1621188923159672    0.17338276455626772    0.19159367558571458    
  0.21738278121774068    0.2522177283095543    0.2939968592498166    0.335525542171028    0.3663836807129627    
  0.3801296988265014    0.38256945947491316    0.456369087240682    0.46943297449409455    0.4720788666111289    
  0.42068039337621727    0.33552550703563516    0.2539137310610246    0.19159368138619423    0.14959743541999912    
  0.12342731392081034    0.10901123525899901    0.10438954633830672    0.10901125273450012    0.12342729534764682    
  0.1495973929849455    0.19159366021627314    0.25391376244577235    0.33552552445252753    0.4206804384171548    
  0.4720786798332376    0.46943305881725067    0.456369087240682    0.3082655639634908    0.3670839309856097    
  0.47276361556424323    0.47207879366328404    0.3663836683441062    0.25391356405182014    0.17338269113674162    
  0.12342733937626561    0.09481889335424443    0.08012227522364927    0.07552299571963732    0.08012226241593451    
  0.09481894897360046    0.12342727295960308    0.17338272661624463    0.25391355145533706    0.366383680231638    
  0.4720788360429901    0.47276351638400743    0.36708394357722923    0.3082655639634908    0.11282600897008069    
  0.179348997846356    0.3670839549052281    0.4694330044540962    0.38012971537238865    0.25221795456169954    
  0.16211889746487135    0.10901123038611332    0.08012226108149258    0.0660652857361593    0.061775465792126685    
  0.0660652821047593    0.08012226624554115    0.10901121164327075    0.16211891347994342    0.25221794724604407    
  0.3801296365514892    0.4694331090583901    0.36708394862073296    0.17934905073903842    0.11282600897008069    
  0.05786492518300532    0.1128259978805532    0.3082655571017609    0.45636904190140054    0.3825694177071135    
  0.2511979120899915    0.1583423104648844    0.10438956361054924    0.07552298576119991    0.06177547311641763    
  0.057656346120446664    0.06177544504258707    0.07552303627460576    0.10438951612193806    0.1583423101792865    
  0.2511978619984396    0.38256957435800243    0.4563690091405486    0.30826550955378745    0.11282600889016277    
  0.05786492518300532    0.11282599990679149    0.1793490323391427    0.3670839976674435    0.46943304822263565    
  0.3801296739145929    0.2522179113903902    0.16211895005089386    0.10901125813997983    0.08012226199175748    
  0.06606530818800352    0.06177547846354192    0.06606527037644065    0.08012226522110309    0.1090112235374446    
  0.16211891520973468    0.252217947407522    0.3801297834953508    0.46943306962699105    0.3670838594141756    
  0.1793490395031459    0.11282599990679149    0.17934908782659786    0.2661132692080615    0.4590254762028002    
  0.5373499951270034    0.4324139634038099    0.293996669366221    0.1932017396494299    0.13070319844612632    
  0.09453040789561414    0.0748671398679211    0.06606530372080084    0.06625633848631537    0.07580624735620904    
  0.09847528922786425    0.14198288412854573    0.2173825152187895    0.3278832882881219    0.42159220233892186    
  0.3752583118203623    0.2335723453099354    0.17934908782659786    0.36708395574659103    0.4590254968972756    
  0.5818214302869998    0.5829425909743678    0.46722852106743035    0.3355257832128559    0.2336655542957126    
  0.1648676708675668    0.12116181101242822    0.09453042199939077    0.08012225924223008    0.07580620663828537    
  0.08121210835284558    0.0984045188555032    0.13262043093990963    0.19159395350210007    0.27954146145233244    
  0.3754546806785054    0.412813563021578    0.3752583294163562    0.36708395574659103    0.4694331466547729    
  0.5373499473136288    0.5829426226908859    0.554524422661718    0.4672287882569712    0.3663834797572995    
  0.27954170872002243    0.21332749792682043    0.16486760378936127    0.13070317590453703    0.10901126516564652    
  0.09847533032815452    0.09840457579228451    0.10899746271588814    0.13262060605219234    0.17338253287076041    
  0.23366577535844055    0.3079506319901535    0.3754546494705549    0.42159210176232464    0.4694331466547729    
  0.38012965112101876    0.432413996413865    0.46722857197433076    0.46722889963073394    0.43241367677538955    
  0.38012998873067305    0.32788301928307123    0.2795417127231286    0.2336655252618318    0.19320176015665305    
  0.16211888264518387    0.141982868083063    0.13262044571089726    0.13262059565428636    0.1419826656600384    
  0.16211914910600983    0.19320152227996443    0.23366584426859563    0.27954144239480866    0.32788336394432405    
  0.38012965112101876    0.2522179724313875    0.2939966122770357    0.33552581592117603    0.3663833779189113    
  0.380130020780421    0.3825692433718317    0.3801299806425315    0.3663834506950913    0.3355257557433504    
  0.2939966511204704    0.2522179874626716    0.21738241079899154    0.191593945703135    0.1733825002670169    
  0.16211911266353812    0.15834212133237852    0.16211915216767558    0.17338252451350414    0.19159391897483694    
  0.21738246728559174    0.2522179724313875    0.16211886069340614    0.19320185055999228    0.23366553592937178    
  0.2795417190216753    0.3278830376773187    0.3801300131644972    0.4324136236452172    0.4672288968872186    
  0.46722846808847396    0.4324139774295093    0.3801296822340164    0.3278833376964218    0.2795414657927603    
  0.23366578456190787    0.1932015490582213    0.1621191691319978    0.14198258683921383    0.13262065856059407    
  0.13262038828516276    0.14198288628822112    0.16211886069340614    0.10901128200427913    0.13070307710424017    
  0.16486771309254833    0.21332742458857878    0.2795417226533248    0.3663833837747994    0.4672288234208139    
  0.5545245503343089    0.5829426190686053    0.5373499071998099    0.4694331227828301    0.42159212193733375    
  0.3754547453899259    0.3079505825306882    0.23366578971352567    0.17338254682439178    0.13262064116539066    
  0.10899748410957033    0.09840457549526466    0.09847529438985936    0.10901128200427913    0.08012224838316688    
  0.09453043363424629    0.12116184428122634    0.16486762029008037    0.23366549838100556    0.33552582738697656    
  0.4672284684259672    0.5829426789413023    0.581821277922884    0.45902560547221766    0.36708383441465026    
  0.37525841323695464    0.4128135585711105    0.3754546610286829    0.27954138514629606    0.19159396367341855    
  0.13262036122795282    0.09840457622777474    0.08121203610091822    0.0758062359476978    0.08012224838316688    
  0.06606531371879125    0.07486710374086682    0.09453046113359445    0.13070314223801163    0.19320181149029728    
  0.29399663475017473    0.4324139625696027    0.5373499590691305    0.4590256020586515    0.2661132602145138    
  0.17934906361371467    0.23357228262140245    0.37525844068596914    0.42159206817104355    0.3278834144588318    
  0.21738246864998523    0.14198288398760592    0.09847531138554036    0.07580623151071629    0.06625633160155558    
  0.06606531371879125    0.06177544464081045    0.06606530357889084    0.08012225504178987    0.10901124079621878    
  0.16211886809691803    0.25221797477131735    0.3801296446477423    0.4694331769548915    0.36708386715123886    
  0.17934908264701735    0.11282598064296852    0.17934905081053087    0.3670839412332832    0.46943311458141007    
  0.3801296260609374    0.25221801197717164    0.16211887845297013    0.10901129098509822    0.08012221143220014    
  0.0660653165935717    0.06177544464081045    0.06606532534822875    0.06625633872166126    0.07580623181364461    
  0.0984752790279868    0.14198290447295492    0.2173824960132796    0.32788330758958256    0.4215921978749319    
  0.37525834173493705    0.23357230315453192    0.17934905665214626    0.26611318819647556    0.4590256022986439    
  0.5373498982705059    0.43241410626791804    0.2939966285001012    0.1932017761725716    0.13070316837255452    
  0.09453044670471064    0.07486711288682954    0.06606532534822875    0.08012225052399026    0.07580619757792563    
  0.08121210035900878    0.09840454649624143    0.13262045528870842    0.1915939109810516    0.27954140069744554    
  0.37545469851473157    0.4128134882519274    0.37525837841661636    0.36708391902556253    0.4590255787966722    
  0.5818213562438835    0.582942680584449    0.4672284879937698    0.3355258203066219    0.23366551887852166    
  0.1648676560958673    0.12116178734507504    0.09453042649739422    0.08012225052399026    0.10901127628552544    
  0.09847530679878584    0.09840453812695545    0.10899749668132915    0.1326205796418019    0.17338257354710251    
  0.23366576093539765    0.30795068697865235    0.3754547089553434    0.42159216227150564    0.46943311113112307    
  0.5373498992405178    0.5829426921205778    0.5545244906818814    0.46722888144416974    0.36638339861795766    
  0.2795417581617946    0.21332746713853176    0.1648676505786529    0.1307031769832813    0.10901127628552544    
  0.16211887845096454    0.14198283051757182    0.13262045081447824    0.13262058072687977    0.1419827079696597    
  0.1621191134814309    0.19320154985585197    0.2336657617411593    0.27954145903552774    0.3278833206681786    
  0.3801296804597828    0.4324139442124188    0.46722853914464235    0.4672287640061949    0.43241361291242486    
  0.3801300243539378    0.3278830176891855    0.27954175678746607    0.2336655086490377    0.19320177786721018    
  0.16211887845096454    0.2522179914791238    0.21738250149314614    0.1915939482975426    0.17338251476970545    
  0.16211912384581437    0.15834215593840698    0.16211908857268606    0.17338259382143315    0.19159389952936498    
  0.2173825434336131    0.2522179424955404    0.29399663700672585    0.33552582010463144    0.3663834234476318    
  0.380129913429513    0.382569241799185    0.3801300259437768    0.3663834481130059    0.33552574049445283    
  0.29399665853307766    0.2522179914791238    0.3801296731613823    0.32788330123000886    0.2795414913276078    
  0.2336657494889464    0.1932015789584084    0.16211907568841824    0.14198266979187174    0.13262057394009646    
  0.13262044408748536    0.1419828577319186    0.16211892375779388    0.1932017307183387    0.23366556234389546    
  0.2795416713606061    0.3278830878259442    0.3801299975717594    0.43241356656131    0.46722887164030424    
  0.4672285253122786    0.4324139589660975    0.3801296731613823    0.46943308064576017    0.42159211460603957    
  0.3754547367946277    0.3079506589057868    0.23366574055907705    0.17338260591906174    0.132620557593716    
  0.10899756577548719    0.09840452634311359    0.09847534753375431    0.10901123851010087    0.13070317649889573    
  0.1648676348606628    0.21332742642326272    0.27954169082738034    0.36638347313932296    0.46722882365325424    
  0.5545245600028623    0.5829425207996332    0.537350030404108    0.46943308064576017    0.3670839591753263    
  0.37525826040064003    0.4128137243461838    0.3754546111383688    0.2795414829144711    0.19159388135191288    
  0.13262041609461317    0.09840452648447989    0.08121207953979323    0.07580619230113642    0.08012227685073316    
  0.09453041740790537    0.12116189868825107    0.16486761507970468    0.23366551159153529    0.3355257764684396    
  0.46722857195440015    0.5829426495244601    0.5818213714117115    0.4590255654327707    0.3670839591753263    
  0.1793490448436312    0.23357234415587805    0.37525832054063113    0.42159211587747664    0.3278832480813829    
  0.21738256693098745    0.1419827969197273    0.09847533534460598    0.07580619587965212    0.06625635550745022    
  0.06606528315612323    0.07486714173761101    0.09453043708375022    0.1307031483790775    0.19320177021247306    
  0.2939966655210675    0.43241395033151453    0.5373500212362577    0.45902552931722856    0.2661132939199345    
  0.1793490448436312    0.11282599990679149    0.1793490323391427    0.3670839976674435    0.46943304822263565    
  0.3801296739145929    0.2522179113903902    0.16211895005089386    0.10901125813997983    0.08012226199175748    
  0.06606530818800352    0.06177547846354192    0.06606527037644065    0.08012226522110309    0.1090112235374446    
  0.16211891520973468    0.252217947407522    0.3801297834953508    0.46943306962699105    0.3670838594141756    
  0.1793490395031459    0.11282599990679149    0.30826555623117224    0.36708393923519794    0.47276355051096614    
  0.4720787804868784    0.36638365011029234    0.25391353546523326    0.1733827337175918    0.12342733281952331    
  0.09481891776116427    0.08012226464080681    0.07552301565321486    0.08012223555655446    0.09481894737086528    
  0.12342727814011942    0.1733827214419798    0.253913552181166    0.36638374257575557    0.47207876795684167    
  0.47276349280363855    0.3670839880782008    0.30826555623117224    0.3670839448410736    0.45902551366898026    
  0.58182139070414    0.5829425061480028    0.4672285908238805    0.33552576357231534    0.2336655112531472    
  0.1648676297210676    0.1211618510741088    0.09453042478970256    0.08012225157422433    0.07580620122513711    
  0.08121213027357115    0.0984045097530884    0.1326204033144594    0.19159393400703756    0.2795414260247492    
  0.37545472308664846    0.4128135895421937    0.37525830202808236    0.3670839448410736    0.4727635445299278    
  0.5818212991863049    0.6792854903825079    0.6662561443652929    0.5545247950616012    0.420680150178329    
  0.3079508685758744    0.2236574269621347    0.1630409686201936    0.1211618414456574    0.09481890733867136    
  0.08121206192964689    0.07859090318201171    0.08699356467853266    0.1089976785192503    0.14959723650237344    
  0.2133277473501618    0.2949918544874243    0.3669870573474682    0.4128135976930539    0.4727635445299278    
  0.47207877879819776    0.5829426475725977    0.6662560607203605    0.6662563899469666    0.5829422677090554    
  0.47207914659587874    0.3754543758630393    0.2949921292833155    0.2236574118195052    0.16486764931855719    
  0.12342728940849762    0.09840454990944811    0.08699358143914047    0.08699371434003    0.0984043441350232    
  0.12342748867711639    0.16486739963901753    0.2236576627911683    0.29499183957357256    0.3754546762619554    
  0.47207877879819776    0.3663837058331157    0.46722844808580716    0.5545248699453527    0.5829421751670231    
  0.5373503464406474    0.46943273069953106    0.4215924729237443    0.3754544082773345    0.3079509086173568    
  0.2336655110664064    0.1733827952095756    0.13262038425625589    0.10899770329761357    0.09840434605523002    
  0.09847551364157105    0.10901109648901522    0.13070337011037586    0.1648674159355228    0.21332772730212315    
  0.2795414242180506    0.3663837058331157    0.25391349748126774    0.33552581393944686    0.4206801737660978    
  0.4720790410106782    0.4694327624265821    0.4563693768571891    0.46943267298538566    0.4720791674523778    
  0.42068014339119225    0.3355257994158926    0.2539134861929954    0.191593877730661    0.14959721461472464    
  0.12342745828770686    0.10901105400295295    0.10438972925189638    0.10901106295939639    0.12342752258830304    
  0.14959720361714407    0.19159394925553314    0.25391349748126774    0.17338277542331743    0.23366553924813505    
  0.3079509782042308    0.37545435419598555    0.4215924948434121    0.4694326809167723    0.5373503042312244    
  0.5829421909233289    0.5545248251047127    0.4672284857927326    0.36638377630483654    0.27954141925144177    
  0.21332774230837465    0.16486738202628312    0.13070341027127375    0.10901106113257783    0.09847549093737501    
  0.09840435396882727    0.1089977064565895    0.13262036713607372    0.17338277542331743    0.12342726145133132    
  0.16486758952125302    0.22365748971958016    0.2949921252921417    0.37545431930787904    0.47207915483144297    
  0.5829421753695629    0.6662566469083469    0.6662560429926654    0.5829426090498023    0.4720786801956399    
  0.37545472891028703    0.2949917899595028    0.2236576674787506    0.1648673555107358    0.12342751748300643    
  0.09840433044289112    0.08699375553625585    0.08699354325115553    0.09840458004901466    0.12342726145133132    
  0.09481898723368984    0.12116178220085201    0.16304108398831138    0.2236573956352059    0.30795093423984987    
  0.42068014154042804    0.5545248296695848    0.6662560437618775    0.6792854600033799    0.581821327041339    
  0.4727636318791585    0.41281358934570805    0.3669871504229252    0.29499178399186665    0.21332776507702608    
  0.14959718564193863    0.10899770488077246    0.08699356806935439    0.07859092384299013    0.08121204195017855    
  0.09481898723368984    0.08012221771953912    0.09453043205637562    0.12116182255004264    0.16486762447653003    
  0.23366553428411976    0.3355258468307442    0.46722835254063216    0.5829426820983193    0.5818213634050242    
  0.4590255546357363    0.36708386231112256    0.3752583377167728    0.41281359700004    0.37545474088290803    
  0.2795414264300846    0.19159396757338265    0.1326203613117824    0.09840457577067872    0.08121205266199961    
  0.0758062463240004    0.08012221771953912    0.075523024942276    0.08012221420770549    0.09481896464854561    
  0.12342724832833438    0.1733827732218831    0.2539135210803972    0.3663837240655957    0.4720787775522739    
  0.472763596812431    0.3670838601968829    0.30826564407427404    0.3670838164625578    0.47276362274404377    
  0.47207869357644006    0.3663837374243936    0.253913476654908    0.17338282487455298    0.12342726493220493    
  0.09481896076955212    0.08012223738367553    0.075523024942276    0.08012223787865942    0.07580624120376948    
  0.0812120820311449    0.09840450737239993    0.1326204453617809    0.1915939236006345    0.27954142374016394    
  0.3754548193894402    0.4128135433742526    0.37525840008306366    0.3670838882636234    0.45902551624647103    
  0.5818213440023209    0.5829425999344173    0.46722843775200723    0.33552585417982306    0.2336654424105673    
  0.164867705365484    0.12116181369096952    0.09453045261027149    0.08012223787865942    0.09481897132094602    
  0.08121202652524935    0.07859093369003531    0.08699360289701397    0.10899766460599716    0.14959721611948104    
  0.21332768542931987    0.294991890461476    0.3669869947283414    0.41281363066802124    0.4727635838309109    
  0.5818213640542091    0.6792854706295546    0.6662560322309685    0.5545248611957896    0.4206800723568639    
  0.3079509050533422    0.22365740879491583    0.16304100634714144    0.12116180896814752    0.09481897132094602    
  0.12342727469534562    0.09840452602117072    0.08699360593686677    0.0869937329866003    0.09840434959533828    
  0.12342746614731735    0.16486741302176894    0.22365766354138747    0.2949918612374889    0.37545473468687174    
  0.4720787522313072    0.5829425839177632    0.6662561236699874    0.6662564835011645    0.5829422011349317    
  0.4720791125418938    0.37545439655775453    0.2949921505547444    0.22365735587054894    0.16486763146699632    
  0.12342727469534562    0.17338274030941922    0.1326203907106082    0.10899768756507856    0.09840435663355428    
  0.09847549320999346    0.10901111741526805    0.13070333127572475    0.16486744212440585    0.21332769178121502    
  0.27954139852402704    0.3663836851631403    0.4672284662646645    0.5545249212284099    0.5829421895230478    
  0.5373503664417766    0.4694327339598185    0.4215924561388003    0.3754544344998687    0.30795093042265825    
  0.23366556542250047    0.17338274030941922    0.2539135521909023    0.1915938841719663    0.1495972441068783    
  0.12342741287036735    0.10901110827368019    0.10438968917672209    0.10901107083452974    0.12342748141656601    
  0.14959723582739395    0.19159392288987628    0.253913518089245    0.3355257543107511    0.4206802171197528    
  0.47207905275406714    0.4694327037569644    0.45636936372430553    0.46943281050555896    0.4720790766927144    
  0.42068018858371026    0.3355257742291332    0.2539135521909023    0.36638368275270067    0.279541462529533    
  0.21332770260057526    0.16486742101743135    0.13070336013531247    0.10901110007167447    0.09847545130157687    
  0.09840438065168007    0.10899764136449788    0.132620446571024    0.17338272059144352    0.2336655383226697    
  0.3079509440571063    0.3754543747699323    0.4215925182694657    0.4694327676842344    0.5373503216392654    
  0.5829422426587202    0.5545247687625571    0.4672285011478729    0.36638368275270067    0.47207885929445537    
  0.3754545776223238    0.29499198946799887    0.2236575659424783    0.16486747566910873    0.12342743065630975    
  0.09840437164856128    0.08699375196073354    0.08699360610603338    0.09840452276953608    0.12342729143128106    
  0.1648676159413094    0.2236574287528138    0.29499209179607216    0.37545438749565657    0.4720791389349418    