#     DFTpy    
  CRYSTAL 
    
  PRIMVEC    
  4.661518575704347    -2.5611291999999994e-10    4.8544356e-10    
  -2.5611291999999994e-10    4.66151857543348    2.3391018e-10    
  8.870868999999999e-10    4.2751239999999994e-10    8.539992373864951    
  PRIMCOORD    
  4    1    
  Si    2.330759287763362    2.33075928899943    2.624290547530281    
  Si    8.643056810145277e-10    -7.999033876848747e-10    1.6457056365314617    
  Si    1.3256417634111048e-10    6.04118078740996e-10    6.894286732489538    
  Si    2.3307592884621764    2.330759287228746    5.91570183189797    
  BEGIN_BLOCK_DATAGRID_3D    
  3d_datagrid_density    
  BEGIN_DATAGRID_3D#0    
  21    21    37    
  0.0    0.0    0.0    
  4.661518575704347    -2.5611291999999994e-10    4.8544356e-10    
  -2.5611291999999994e-10    4.66151857543348    2.3391018e-10    
  8.870868999999999e-10    4.2751239999999994e-10    8.539992373864951    
  0.09842846728516068    0.09294819293217539    0.07888486029085343    0.06142574903756711    0.04528690226533623    
  0.03284753639851595    0.02431574353294992    0.018960271471851114    0.015874478037675447    0.014313073596655245    
  0.013836069176666589    0.014313069126284063    0.015874478093961957    0.018960278309460347    0.02431573657048169    
  0.03284753445018196    0.04528689871659324    0.061425728931514136    0.07888487212404731    0.09294820455129084    
  0.09842846728516068    0.0929481993678815    0.08787403205988309    0.07483477657399648    0.05859201160376399    
  0.04351113909914495    0.031830888017157735    0.02377586861626912    0.018683897904624425    0.015737206670652648    
  0.014240231504343346    0.01378158437495216    0.014240234265914134    0.01573720771893929    0.01868390103621988    
  0.023775862943021867    0.03183088624305197    0.043511131625679655    0.05859200873771731    0.07483478273537245    
  0.08787401435218416    0.0929481993678815    0.07888487815666262    0.07483478162844794    0.06437769099463628    
  0.051228036444065775    0.0388483158190254    0.02911607612798504    0.022292497291716947    0.017906207982559152    
  0.015338587564546112    0.014023290647251406    0.013617122796865399    0.014023291186625838    0.015338594050500701    
  0.01790621857740961    0.022292486504120575    0.02911608137462653    0.03884832335305989    0.051228033703529144    
  0.0643777157171362    0.07483478943518897    0.07888487815666262    0.06142572869557127    0.05859202862104415    
  0.05122800996419488    0.04184213094594139    0.03280698908904209    0.02550951794979342    0.020259554514440895    
  0.01680489944327768    0.014750148317735677    0.013687114719690632    0.013355814932960562    0.01368712196546477    
  0.014750146794923874    0.016804905205463128    0.02025955925956523    0.025509527370269368    0.03280699192362024    
  0.0418421059083446    0.05122804404405973    0.058592035555135515    0.06142572869557127    0.04528689489230968    
  0.04351113177783092    0.038848309986758325    0.03280698259088238    0.02682661645236947    0.02182840967054804    
  0.018124542489929604    0.015625516373213952    0.014102373051835076    0.013301148131993326    0.013049135619317948    
  0.013301145340926602    0.014102375658908312    0.015625521353439108    0.018124536475024985    0.02182840467300891    
  0.026826623248284574    0.032806971876139256    0.038848304482463084    0.043511128736163716    0.04528689489230968    
  0.03284752925527935    0.03183089098519738    0.02911607222054387    0.025509538064564078    0.02182842058562352    
  0.018646136402346206    0.016224288417808395    0.014547904956708399    0.013494680415947943    0.012934319546300067    
  0.012761107002531908    0.012934309444582235    0.013494683380587107    0.014547907602722341    0.01622428669822449    
  0.01864613860620148    0.02182840746139013    0.025509529118371004    0.029116083425752656    0.031830895446227046    
  0.03284752925527935    0.02431574355694454    0.023775860880543304    0.022292482072960626    0.020259559802811012    
  0.018124536581160373    0.016224280779002044    0.014737629022241879    0.013679358340396424    0.01299311907850728    
  0.01262796301704435    0.012519661113359582    0.012627972903611657    0.012993119763540499    0.013679354915636354    
  0.014737627615870504    0.016224283870862485    0.018124546036540626    0.02025955632759567    0.022292491008567103    
  0.02377586096812416    0.02431574355694454    0.018960276863287634    0.018683901188880123    0.01790620519167834    
  0.016804903036803164    0.015625524330140507    0.014547904267576505    0.013679357235174617    0.013051675861915243    
  0.012638004637110414    0.012408345366275012    0.012337810565457694    0.012408345170524367    0.012638005309532994    
  0.013051679915292724    0.013679361798306226    0.014547906364493607    0.01562552744610822    0.016804894695212916    
  0.01790621476603978    0.0186839056800815    0.018960276863287634    0.01587447768815893    0.01573720061486867    
  0.015338591375532123    0.014750153772466386    0.01410238182188063    0.01349467655080532    0.012993125030422402    
  0.012638016638377412    0.012406550712642135    0.012267920774041263    0.012220305844389445    0.012267933037631473    
  0.012406547418771586    0.012638024061746017    0.012993116242884207    0.013494671888377167    0.014102380153436166    
  0.014750144077091796    0.015338605674544668    0.015737212823138776    0.01587447768815893    0.014313068790346434    
  0.014240227338059222    0.014023287640293943    0.013687112730850532    0.013301145284674338    0.012934310108959174    
  0.012627969994984946    0.012408327676045355    0.01226792718676505    0.012185442131362396    0.012157764936287249    
  0.012185451591970799    0.012267915241434387    0.012408340097039233    0.012627969504499197    0.012934309367570661    
  0.01330115175616102    0.013687115218214276    0.014023283045854129    0.01424022615607839    0.014313068790346434    
  0.013836071267929325    0.013781585916411302    0.01361712938791034    0.013355820315203847    0.013049139813216567    
  0.012761116484997432    0.012519683744798742    0.012337826542219507    0.012220301018446686    0.012157772804503569    
  0.012137432028635594    0.01215777952288092    0.012220298210866306    0.01233781851612195    0.01251967689718155    
  0.012761117623929997    0.013049133937327527    0.013355817637291795    0.013617137850003097    0.01378158936842829    
  0.013836071267929325    0.014313073738363585    0.014240224972776317    0.014023287577106493    0.013687111693277866    
  0.013301148444315802    0.012934311165663018    0.012627959221992198    0.012408332996217112    0.01226793537299298    
  0.012185446649280576    0.012157773183276904    0.012185457738502345    0.012267911938117916    0.012408336529858968    
  0.012627964339133763    0.012934310538505953    0.013301146692030563    0.013687112880441516    0.0140232847154789    
  0.014240230349012893    0.014313073738363585    0.01587447652750242    0.015737201996640422    0.015338596439398042    
  0.014750151228702935    0.014102382785290758    0.01349467048825677    0.012993114702099861    0.012638006430155838    
  0.012406553293091836    0.012267932811796264    0.012220298216647394    0.01226793519063604    0.01240654392486185    
  0.012638021178777143    0.012993115328669985    0.013494680017412558    0.01410238385806978    0.014750147757479319    
  0.015338594412648586    0.015737209592608083    0.01587447652750242    0.018960276222869    0.01868390179294735    
  0.017906209566998017    0.01680489717219541    0.01562552627213809    0.014547902288409322    0.013679362891016502    
  0.013051681435109961    0.012638021048701625    0.012408329959846313    0.01233782198901361    0.012408345670012661    
  0.012638007783605845    0.013051685337136569    0.013679361786976077    0.01454790236639111    0.015625517481846207    
  0.01680489375327787    0.017906217424441    0.01868390898406181    0.018960276222869    0.02431574543541429    
  0.02377586547915084    0.022292489279818382    0.02025955385756786    0.01812454992819292    0.016224286036644903    
  0.014737622874419504    0.013679357746322491    0.012993122685434616    0.012627959937954387    0.012519662183640326    
  0.012627967108810796    0.012993121019765182    0.013679356152849747    0.014737624010464733    0.016224291244806132    
  0.01812453837960602    0.020259556836173344    0.022292495668055846    0.02377586476357345    0.02431574543541429    
  0.03284753048936115    0.031830886961496684    0.029116081333312848    0.02550953640353441    0.021828421295352538    
  0.018646141474028627    0.016224291475937385    0.01454790743037773    0.013494674695278696    0.012934323269695822    
  0.0127611087684165    0.012934313913335615    0.013494674429857006    0.014547913750414473    0.016224287262733193    
  0.01864614164518337    0.02182841235246705    0.025509523015856055    0.029116085844628124    0.031830903035139656    
  0.03284753048936115    0.04528690206450468    0.0435111227349434    0.038848307020351254    0.03280698803583611    
  0.02682661384579206    0.021828404357805975    0.018124533758178664    0.0156255225420355    0.014102372575528982    
  0.013301142717538093    0.013049128785297869    0.01330114779498474    0.014102370303809708    0.015625516134089985    
  0.018124529121999636    0.021828408554905587    0.026826618067413238    0.03280698106955766    0.03884831217862904    
  0.04351112642361267    0.04528690206450468    0.06142573048712286    0.05859204637814575    0.05122802352883773    
  0.041842125022415466    0.03280698505250596    0.025509527591216722    0.02025955553852858    0.016804905136359315    
  0.014750144741232476    0.013687112633445601    0.013355818624106787    0.013687115634792017    0.014750148703734282    
  0.016804903880042556    0.020259555716374375    0.02550954030477525    0.032806977628973596    0.04184211657807656    
  0.051228021226685475    0.05859203080282521    0.06142573048712286    0.07888489416119505    0.07483476999460202    
  0.06437768699830804    0.05122801895308077    0.038848307216006614    0.02911607183166525    0.022292491412152348    
  0.017906212669407305    0.015338593002203268    0.014023283312323451    0.013617128925123971    0.014023289413538134    
  0.015338594302711244    0.017906210624095965    0.02229248853507538    0.0291160841582987    0.03884831457091024    
  0.05122802650906804    0.06437770762198701    0.07483479228786934    0.07888489416119505    0.09294815701659091    
  0.08787400140895538    0.07483476597755742    0.0585920145632363    0.04351114346973422    0.03183089118821472    
  0.02377587349051184    0.018683902374594497    0.015737204934430555    0.014240227077665096    0.013781585665624234    
  0.014240232694882138    0.01573721571522299    0.018683901326412164    0.02377586262860796    0.03183089809655878    
  0.04351112921146799    0.05859200738998614    0.07483477118519312    0.08787402629029191    0.09294815701659091    
  0.09842846728516068    0.09294819293217539    0.07888486029085343    0.06142574903756711    0.04528690226533623    
  0.03284753639851595    0.02431574353294992    0.018960271471851114    0.015874478037675447    0.014313073596655245    
  0.013836069176666589    0.014313069126284063    0.015874478093961957    0.018960278309460347    0.02431573657048169    
  0.03284753445018196    0.04528689871659324    0.061425728931514136    0.07888487212404731    0.09294820455129084    
  0.09842846728516068    0.11950767936173406    0.11244774327962016    0.0943895544131053    0.07215217520719515    
  0.05187483823585799    0.03654898016171873    0.02632297132818071    0.02006462564034705    0.016507265588062883    
  0.014723508641118755    0.014187246969859178    0.01472350159740836    0.016507265699218888    0.020064636456568054    
  0.026322969171524525    0.03654896472174437    0.05187483140807254    0.07215213327018563    0.09438959181862426    
  0.11244776200443579    0.11950767936173406    0.11244778803578406    0.1059216308084956    0.08921447470901646    
  0.06858945770240599    0.04969164008389333    0.03532522844775962    0.025678233296073376    0.019737614149934055    
  0.016342969280088042    0.01463609960259925    0.014121523904972769    0.014636105271462767    0.01634296670124711    
  0.01973761555434603    0.025678221977784375    0.035325232263200314    0.04969163979209005    0.06858944305059655    
  0.08921452846016165    0.10592160364685742    0.11244778803578406    0.09438957996839566    0.08921448653326747    
  0.07590899933095842    0.05933776448820786    0.0439492851684852    0.03205682553379023    0.023929983846279704    
  0.01883750586742128    0.01588966659149217    0.014396273071711235    0.013944542614942391    0.014396269132440099    
  0.015889670925884246    0.01883750666593484    0.023929980953308894    0.03205684452656592    0.04394929267820431    
  0.05933773615887142    0.0759090047374791    0.08921452736968871    0.09438957996839566    0.07215213177477271    
  0.0685894400269465    0.05933771397549901    0.04763125815157361    0.03652761206620481    0.027734021042758846    
  0.02156189333611291    0.017593648753947422    0.015254552142783028    0.014058572562813893    0.013694639769632554    
  0.014058576742541356    0.015254554970754858    0.01759365345583762    0.021561894710972515    0.027734029188462933    
  0.036527596852583596    0.04763124678496987    0.0593377662983516    0.06858946482067425    0.07215213177477271    
  0.051874831756278626    0.04969163974310016    0.043949266435043086    0.036527601068662596    0.02930112308457178    
  0.023396382365342677    0.019115915616705538    0.016282065318160264    0.014577543764060051    0.013694168596130877    
  0.013423078299911698    0.013694169955053674    0.014577547288847574    0.016282066488692695    0.019115913989612966    
  0.023396381419675996    0.029301131431674142    0.036527595273120564    0.043949275532363094    0.04969163901436264    
  0.051874831756278626    0.03654897133389858    0.035325230543206104    0.032056818408474914    0.027734050900224773    
  0.023396393551231708    0.019729767052895662    0.01698439790959015    0.015117956546770152    0.013974473966336325    
  0.01337762528688596    0.013193959842394727    0.0133776191569425    0.013974470366022366    0.01511796950613898    
  0.016984398101492795    0.019729769005772682    0.023396377016330547    0.027734038317807793    0.03205684738566991    
  0.03532523857714103    0.03654897133389858    0.02632297404964659    0.025678223392333686    0.023929974942041198    
  0.021561900375619707    0.019115910743687084    0.016984398078087097    0.015348604457925142    0.01421733931608117    
  0.013518540793572172    0.013154810375543667    0.013044688335394664    0.01315481240034245    0.013518547179800819    
  0.01421733343578204    0.015348604210590864    0.016984400143315686    0.019115920987401575    0.021561891850702893    
  0.023929982176073315    0.025678223743394554    0.02632297404964659    0.02006462688353937    0.01973761536284196    
  0.018837501521426984    0.01759365157136957    0.016282068270864442    0.015117959776940415    0.014217334383151111    
  0.013602302246490863    0.013228258800807084    0.01303607038384044    0.012978284950537843    0.013036069724512076    
  0.013228251324361527    0.013602297379476361    0.014217339198725941    0.015117958965989726    0.016282071731623812    
  0.017593649096841336    0.01883750558111011    0.019737618693884115    0.02006462688353937    0.016507268781041015    
  0.016342958872718593    0.01588966620834388    0.015254559095229554    0.014577550236352621    0.013974459325794655    
  0.013518540715188753    0.013228265249563984    0.013070142249792837    0.012994735986615534    0.012973267879801523    
  0.01299473905168873    0.013070140101029873    0.013228258201648618    0.013518537766430645    0.013974469081015467    
  0.014577542592729866    0.015254558445255275    0.01588967988880805    0.016342971492731007    0.016507268781041015    
  0.014723502045010417    0.014636099239313482    0.014396268244665528    0.014058568167532683    0.013694173373858603    
  0.013377616542534996    0.013154811483529823    0.013036048000420901    0.012994738238028398    0.01298924014678686    
  0.012990231785491248    0.012989241952307943    0.012994739215777618    0.013036051599936531    0.01315480804717071    
  0.013377616527884686    0.013694170128601612    0.01405857052031923    0.014396268526312333    0.014636094261648342    
  0.014723502045010417    0.01418724072159444    0.014121522645590457    0.013944553970437524    0.01369464291757174    
  0.01342308567182171    0.013193959337297221    0.013044706157870728    0.012978285291981013    0.012973284024157235    
  0.012990243503009495    0.012999209155521906    0.012990228033383639    0.012973277025348316    0.012978289407449951    
  0.013044693599429414    0.013193963555283338    0.013423077924356529    0.013694639860125231    0.013944561087821852    
  0.014121523869260917    0.01418724072159444    0.014723505140580835    0.014636093735722652    0.014396273072939803    
  0.014058572165795542    0.013694172937712835    0.01337761940618438    0.013154804580532486    0.01303604910514762    
  0.012994742367683184    0.01298923358234332    0.012990230179098517    0.012989249923996592    0.012994733162523704    
  0.013036063082015199    0.013154808696389847    0.013377625875384684    0.013694172054163373    0.01405856974519563    
  0.014396266399723088    0.014636098071908672    0.014723505140580835    0.01650726787350699    0.016342964037309116    
  0.015889670501935838    0.015254557066659766    0.014577550538742825    0.013974458663657595    0.013518545080145364    
  0.013228249286694738    0.013070142255779078    0.012994736918945206    0.012973267330936088    0.012994747362484672    
  0.013070144994390766    0.01322827481589221    0.013518542735201752    0.013974465051014942    0.01457754887512853    
  0.01525455012303981    0.015889669874093255    0.016342971323974588    0.01650726787350699    0.0200646294690997    
  0.019737617937973236    0.018837505673353204    0.017593651408654463    0.016282074265074848    0.015117955608678192    
  0.014217340290918926    0.013602293987614573    0.01322827610580814    0.013036044241639923    0.012978279520388849    
  0.01303606882234206    0.013228255377106783    0.013602305408189007    0.014217341586287652    0.015117958873799216    
  0.01628206819313136    0.017593640404002842    0.018837513970658165    0.019737617868832037    0.0200646294690997    
  0.02632296664689351    0.025678226794645327    0.023929974875844466    0.02156189405716111    0.01911592042795532    
  0.016984400730075466    0.015348594453241918    0.01421733942061682    0.013518539868941288    0.013154806270922248    
  0.013044689607806139    0.01315480339653258    0.013518541836922979    0.014217335203355963    0.01534860017383341    
  0.016984400712548607    0.019115916357864537    0.0215618926346244    0.023929982661747555    0.02567822110871829    
  0.02632296664689351    0.036548958269170206    0.03532522887831378    0.03205682760888469    0.02773404342528136    
  0.023396396148458384    0.01972976770444201    0.01698439790228473    0.015117957832344186    0.013974468088405011    
  0.01337762592465107    0.013193967043116771    0.013377615736075913    0.013974466465066513    0.01511796467037757    
  0.016984402469351    0.01972976758920989    0.0233963813648895    0.02773402466333247    0.03205684502601477    
  0.03532525513439571    0.036548958269170206    0.05187483734691901    0.04969162354071235    0.04394927446396452    
  0.03652761354543042    0.02930112018304509    0.02339638057476508    0.019115905444085434    0.01628206430393256    
  0.014577540211401696    0.013694163512297077    0.013423072531356042    0.013694166465048369    0.014577544497822382    
  0.016282061486005944    0.019115909343802966    0.023396387272383443    0.0293011278209339    0.03652758836337601    
  0.043949279099460344    0.049691628433209525    0.05187483734691901    0.07215215568593496    0.06858943852336848    
  0.05933775277322826    0.04763125391422406    0.036527605745575675    0.027734032960464287    0.02156189341507064    
  0.017593652072878184    0.015254552241058175    0.014058572978067235    0.013694639633775783    0.014058575850451963    
  0.015254553258148807    0.017593658011655914    0.02156190002565597    0.027734044834150217    0.03652761566222675    
  0.04763125026293485    0.0593377623570657    0.0685894631242189    0.07215215568593496    0.09438954702191983    
  0.08921446783725204    0.07590901206375561    0.05933774959410543    0.043949295732049094    0.03205682495404872    
  0.023929984373177494    0.018837509107574965    0.01588966611629212    0.01439626624629679    0.013944548935520362    
  0.01439627400298966    0.015889668823382302    0.01883750849183442    0.02392997822285935    0.03205683643017297    
  0.04394929798851094    0.05933772616735576    0.07590901589949561    0.08921451316849006    0.09438954702191983    
  0.11244773187943155    0.1059216120440817    0.08921447565455087    0.06858943868058204    0.04969166135753538    
  0.03532522802696463    0.025678237473916118    0.019737609983793526    0.016342962840884705    0.014636097671254853    
  0.014121524546743595    0.014636101996589478    0.01634297198571824    0.019737612836619737    0.02567822387166285    
  0.03532523726164822    0.04969162706290841    0.06858943027907627    0.08921449243059282    0.10592162268381997    
  0.11244773187943155    0.11950767936173406    0.11244774327962016    0.0943895544131053    0.07215217520719515    
  0.05187483823585799    0.03654898016171873    0.02632297132818071    0.02006462564034705    0.016507265588062883    
  0.014723508641118755    0.014187246969859178    0.01472350159740836    0.016507265699218888    0.020064636456568054    
  0.026322969171524525    0.03654896472174437    0.05187483140807254    0.07215213327018563    0.09438959181862426    
  0.11244776200443579    0.11950767936173406    0.19310525815340304    0.18049140812465833    0.14813337183410277    
  0.10871632124592974    0.07383017358719772    0.04859611147048878    0.03264680085430884    0.023407583387996565    
  0.018375046381088667    0.015926891485997824    0.01520459787497586    0.015926882199537553    0.018375043974056027    
  0.02340758634081156    0.03264679410630674    0.048596090347483974    0.07383015831453786    0.10871629140827334    
  0.14813337755214825    0.1804914321240836    0.19310525815340304    0.18049140867394345    0.16882468904437933    
  0.1389381566326959    0.10252457600024015    0.07018461879483784    0.046639327036142125    0.03165884893914324    
  0.022931709613666192    0.01815161478007791    0.015817629659561516    0.015129243665661863    0.01581763567890916    
  0.018151614492591558    0.022931718152601303    0.03165882957033054    0.046639316995388695    0.0701846106160273    
  0.10252456596311522    0.13893818046553266    0.16882464905946834    0.18049140867394345    0.1481333865430398    
  0.13893818581581346    0.1153818810685597    0.08656091302071066    0.06066816667616472    0.041484249705455105    
  0.02904299739384716    0.021667875166069876    0.01756324172042224    0.015541276677610894    0.014944058099793727    
  0.01554127183230091    0.017563246376614064    0.021667879162172502    0.029042993406539024    0.041484276515358375    
  0.06066817125108802    0.08656091424643222    0.11538188553542648    0.13893818932923513    0.1481333865430398    
  0.10871628530683605    0.10252457928171552    0.08656087380273587    0.06674988394345513    0.04859341178426688    
  0.03480250733741157    0.025599612511033574    0.019989635217092305    0.016799187673229753    0.015206829384612746    
  0.014735652622291219    0.015206837868571382    0.016799192191595466    0.019989636561588926    0.025599613806075575    
  0.03480250879218174    0.04859340292957407    0.06674989569855692    0.08656091206440224    0.10252459431940997    
  0.10871628530683605    0.07383017072277588    0.07018461698418575    0.060668150020739914    0.04859341955252549    
  0.03722025893990715    0.02831961727534593    0.022168400343010056    0.0182977360941552    0.016058719243389554    
  0.014933347077099375    0.014598587601190413    0.014933343243883861    0.016058721114190492    0.01829773680446084    
  0.022168396861637345    0.028319618730620128    0.037220263083593955    0.04859339710863213    0.06066815330380939    
  0.07018458990609884    0.07383017072277588    0.04859609194980591    0.046639318756713205    0.04148425674220368    
  0.034802521022338724    0.02831962816963826    0.023075063831820192    0.019324475311213986    0.01690884594097333    
  0.015518186762183545    0.014827556758316427    0.014620250478032039    0.01482754779452518    0.015518187135453325    
  0.016908855796269193    0.019324472661232554    0.023075062800279822    0.028319618383565975    0.03480251505861041    
  0.041484268580710276    0.046639331171015166    0.04859609194980591    0.032646802688755215    0.03165883680813765    
  0.029042991450391888    0.025599605266451404    0.02216839439185455    0.01932447588941691    0.017269368201952847    
  0.01596810376607976    0.015264603281552592    0.014939257195171071    0.014842696354223299    0.014939262802889222    
  0.015264609338839922    0.015968102899943652    0.017269374961555388    0.019324475398559728    0.022168399471359984    
  0.025599610706530135    0.029042998139013346    0.03165883741848873    0.032646802688755215    0.023407590354093018    
  0.022931719973766487    0.02166786805183969    0.01998963996380692    0.018297739376535962    0.0169088493102879    
  0.01596810656608065    0.015454164183466365    0.015259680908181314    0.01522710111250149    0.015229956135992729    
  0.015227097304962151    0.015259676910282051    0.015454165315290919    0.01596811093419245    0.016908854211580535    
  0.018297746084741027    0.019989635715553154    0.021667871891844055    0.022931717336304655    0.023407590354093018    
  0.018375040676580644    0.018151609263030746    0.017563243299442755    0.016799194064851117    0.016058727491905518    
  0.015518178559727591    0.015264611388066349    0.015259689520677546    0.015409292661439023    0.015590120562535885    
  0.01566980175691274    0.015590128627807648    0.01540928794998111    0.015259686480228234    0.015264600151380352    
  0.015518180242332005    0.01605871756276427    0.016799196808401036    0.017563257287139047    0.01815161684015968    
  0.018375040676580644    0.015926885524587583    0.015817629230881182    0.015541272232669228    0.015206825547484383    
  0.014933350753530117    0.01482754204612307    0.014939262393783279    0.015227083410255809    0.015590120256186526    
  0.015892546649540585    0.016008127646776484    0.015892544799580112    0.015590133704905867    0.015227090343989022    
  0.014939255383791785    0.014827553234031223    0.01493335276969446    0.01520682795704347    0.01554127088315046    
  0.015817629558537247    0.015926885524587583    0.015204597165520754    0.015129241638087283    0.014944064661437433    
  0.0147356614654409    0.01459858659862191    0.01462025002864963    0.014842710824151709    0.015229972526455414    
  0.0156698175018537    0.016008135511287862    0.016131803998899543    0.01600812961724961    0.015669811571296703    
  0.015229969554712026    0.014842708486770329    0.014620245629290183    0.014598586427614626    0.014735653733323945    
  0.014944076405495636    0.015129242835230703    0.015204597165520754    0.015926889562862333    0.0158176291116012    
  0.015541275959434326    0.015206826129496736    0.014933350802353064    0.014827544093079934    0.014939253693778635    
  0.015227094756179385    0.015590129030481598    0.015892553046950388    0.016008120545101378    0.0158925554772709    
  0.015590127765982708    0.01522709415668089    0.014939257340542364    0.01482755437046398    0.014933346828808787    
  0.015206825535982444    0.015541271590449924    0.015817627289083855    0.015926889562862333    0.01837504527634243    
  0.018151615919929906    0.01756324371947489    0.016799199139201068    0.016058727068924684    0.015518169062046156    
  0.015264605200183084    0.015259685877705459    0.015409306024863437    0.015590135547860212    0.01566980673121707    
  0.01559014029231224    0.015409293171610635    0.015259694879656605    0.015264604630969902    0.015518187710672631    
  0.01605872438789339    0.016799196419400003    0.017563251480006134    0.018151619815030856    0.01837504527634243    
  0.023407586274482514    0.02293171765211759    0.021667878758676137    0.01998964107273067    0.018297746801395023    
  0.016908850116677213    0.0159681110678075    0.015454163902627846    0.015259687657845234    0.015227077294163472    
  0.015229965798080728    0.015227093279115785    0.015259676918142877    0.015454165757809304    0.015968108863501987    
  0.016908854506999405    0.018297737667124392    0.019989631430927236    0.021667883631287847    0.022931725144473003    
  0.023407586274482514    0.03264679290001318    0.0316588418711849    0.029042994086663595    0.025599609486837514    
  0.022168404610253007    0.019324479909656293    0.017269367579229658    0.015968105273559352    0.015264608230490685    
  0.014939256034035574    0.014842701760968734    0.01493925252568984    0.015264606206095318    0.015968108268109685    
  0.01726936538264369    0.01932447550395962    0.02216839955383851    0.025599608746348923    0.02904299594412559    
  0.0316588399031077    0.03264679290001318    0.04859608703233015    0.04663932553931803    0.041484257444369725    