#     DFTpy    
  CRYSTAL 
    
  PRIMVEC    
  2.791655172413793    0.0    0.0    
  0.0    2.791655172413793    0.0    
  0.0    0.0    2.791655172413793    
  PRIMCOORD    
  2    1    
  Si    0.0    0.0    0.0    
  Si    1.3958275862068965    1.3958275862068965    1.3958275862068965    
  BEGIN_BLOCK_DATAGRID_3D    
  3d_datagrid_density    
  BEGIN_DATAGRID_3D#0    
  13    13    13    
  0.0    0.0    0.0    
  2.791655172413793    0.0    0.0    
  0.0    2.791655172413793    0.0    
  0.0    0.0    2.791655172413793    
  0.05391379278556308    0.09893983175695231    0.2617031023310102    0.4162612063570571    0.3980086480582764    
  0.32275757982881026    0.29175910300295654    0.322757600239955    0.3980085385816215    0.41626122536347276    
  0.2617031337547244    0.09893985160367401    0.05391379278556308    0.09893982766546298    0.15278005698101388    
  0.3122874072368197    0.43093772444393563    0.39550129127335115    0.3215834885057978    0.292353535962393    
  0.3215835185960405    0.3955012247617302    0.43093778364014174    0.31228745129337676    0.1527800088863792    
  0.09893982766546298    0.2617031069536472    0.31228744805479075    0.41439274388586966    0.4439898181882554    
  0.38287799827559305    0.31757731388592103    0.29365831457579383    0.31757733728120857    0.38287800408055367    
  0.4439898707454679    0.41439276276537823    0.3122874026567582    0.2617031069536472    0.41626118050561933    
  0.4309377849183483    0.4439898926634394    0.41448942045299914    0.3570678115314726    0.3106990823029683    
  0.2943659855957519    0.3106990918445136    0.3570677000445177    0.41448951419757263    0.4439899241066017    
  0.4309377695140741    0.41626118050561933    0.39800858487808727    0.39550126909564143    0.38287797610366503    
  0.3570677141991243    0.32612107162420123    0.30227196902789394    0.29365833415247217    0.3022720263410662    
  0.3261209833786041    0.35706773144117354    0.3828780100818515    0.39550123061394354    0.39800858487808727    
  0.322757537966493    0.3215835069817111    0.31757727434677063    0.3106990479930855    0.30227196948953955    
  0.2951132758267241    0.2923534982792939    0.29511327895940437    0.30227193806488706    0.31069905397736713    
  0.3175773359207096    0.3215834948208655    0.322757537966493    0.2917591118132136    0.29235354979617145    
  0.2936583428808051    0.29436604519102966    0.2936584087963808    0.2923535658141458    0.2917591103906982    
  0.2923535611714226    0.2936583452870374    0.2943660330969064    0.29365838166276775    0.2923535243632205    
  0.2917591118132136    0.3227575408199315    0.32158351902880905    0.31757730028824976    0.31069901186051924    
  0.30227196323971406    0.29511329505327677    0.29235348824544993    0.29511327667982107    0.302271919710146    
  0.31069910405192813    0.3175773146967407    0.32158349065786285    0.3227575408199315    0.39800853254841984    
  0.39550125752006243    0.38287793533941455    0.3570677082470577    0.3261210496645895    0.30227194013855435    
  0.29365831951439986    0.3022719813168922    0.32612102282608285    0.3570677252608034    0.38287800661914334    
  0.3955011981558471    0.39800853254841984    0.4162612117431111    0.4309377843992279    0.4439898598502497    
  0.41448940478563756    0.35706782086039474    0.3106990833628667    0.29436600589231754    0.31069912159567853    
  0.3570677058392136    0.4144894914064309    0.4439899401122215    0.4309377691819985    0.4162612117431111    
  0.2617031028341974    0.31228745369756233    0.4143927790219232    0.4439898321652886    0.3828780382173638    
  0.3175773379249605    0.29365831983516777    0.31757736261501157    0.3828779196037687    0.4439898748567477    
  0.41439278729414614    0.3122873914923677    0.2617031028341974    0.09893981874065967    0.1527800273008869    
  0.3122874071421411    0.43093772828340343    0.39550126205210445    0.3215834752769066    0.2923534668033376    
  0.3215835270685634    0.39550120714709885    0.43093775465753537    0.3122874212028326    0.15278002409100838    
  0.09893981874065967    0.05391379278556308    0.09893983175695231    0.2617031023310102    0.4162612063570571    
  0.3980086480582764    0.32275757982881026    0.29175910300295654    0.322757600239955    0.3980085385816215    
  0.41626122536347276    0.2617031337547244    0.09893985160367401    0.05391379278556308    0.09893981854179841    
  0.15278001722846815    0.31228742826683503    0.43093769858912107    0.3955013014704371    0.3215835002089274    
  0.29235349931203314    0.32158353598689315    0.39550120444126946    0.4309377795055869    0.3122874466737402    
  0.15278003808974894    0.09893981854179841    0.1527800032977309    0.2102442621877802    0.35668997141493397    
  0.4423264993923962    0.3947224469971786    0.3227488748393262    0.29511323817560403    0.32274889300667503    
  0.39472234616572865    0.44232654358194484    0.3566900299996841    0.21024421845917501    0.1527800032977309    
  0.31228741006113386    0.3566900320118033    0.4381769398942901    0.449933899757511    0.3870700836655479    
  0.3249048727701366    0.30227193378865347    0.32490488121042604    0.387070041020438    0.44993396492150484    
  0.4381769625411732    0.3566899660480884    0.31228741006113386    0.43093772110388334    0.44232655304567803    
  0.44993394218470967    0.42073263059657595    0.36835266735886313    0.32588354294987953    0.3106990012215894    
  0.32588354002993897    0.3683525700493623    0.42073267179873997    0.4499340065621089    0.4423265387824027    
  0.43093772110388334    0.39550123910014834    0.3947224028917651    0.38707002446297917    0.36835260071450715    
  0.34436682103510147    0.324904911577845    0.3175772821975632    0.32490491805772626    0.34436674022361924    
  0.3683526304044931    0.3870700683755751    0.394722410976492    0.39550123910014834    0.32158345839978186    
  0.3227488807694011    0.3249048338793244    0.3258834943513974    0.324904902142954    0.3227488362280034    
  0.3215834213360539    0.3227488692422133    0.3249048685576569    0.32588349010426104    0.32490490826925517    
  0.32274885247874374    0.32158345839978186    0.2923535357414383    0.29511324883723816    0.3022719711878948    
  0.3106990367058087    0.3175773777131854    0.32158353793924666    0.3227575150974451    0.32158351843751504    
  0.3175772811507743    0.3106990511051094    0.3022719763148213    0.2951132679527973    0.2923535357414383    
  0.32158349212954124    0.3227488785115673    0.32490486724229484    0.32588346724136885    0.32490487311438493    
  0.3227488816700044    0.32158342895213365    0.32274888011660885    0.3249048481738801    0.32588353561652544    
  0.3249048975978332    0.32274884079970245    0.32158349212954124    0.3955012276567588    0.3947224139766041    
  0.38707006991070736    0.36835262950519965    0.34436681037689787    0.32490484860148416    0.31757724954717864    
  0.3249048785541385    0.3443667418716593    0.3683525989219351    0.3870700661397675    0.394722369285071    
  0.3955012276567588    0.4309377564372127    0.4423265582448707    0.44993399775662585    0.4207326630795299    
  0.36835268813928085    0.3258835353387436    0.3106990079588805    0.3258835728637301    0.3683525903701214    
  0.4207326796311494    0.44993408540652086    0.44232655619752154    0.4309377564372127    0.31228738996575756    
  0.3566900392691915    0.43817690239729673    0.44993392794083703    0.38707008495630874    0.32490492517649666    
  0.30227194626519427    0.3249049210632202    0.38706999370558176    0.4499339871717004    0.4381770042176873    
  0.3566899395030327    0.31228738996575756    0.15278000611224332    0.2102442637121645    0.3566899498070606    
  0.4423265367606859    0.3947223916714971    0.32274883991906556    0.2951131944524157    0.32274888088301495    
  0.3947223760814134    0.44232652879697454    0.35668999291934017    0.210244232231778    0.15278000611224332    
  0.09893981854179841    0.15278001722846815    0.31228742826683503    0.43093769858912107    0.3955013014704371    
  0.3215835002089274    0.29235349931203314    0.32158353598689315    0.39550120444126946    0.4309377795055869    
  0.3122874466737402    0.15278003808974894    0.09893981854179841    0.2617031106218653    0.312287414181198    
  0.4143927843851273    0.4439898428912905    0.38287804768982114    0.3175773161612308    0.29365832220482874    
  0.31757739314029937    0.38287791595500703    0.4439899174127529    0.4143928251923003    0.3122874248539585    
  0.2617031106218653    0.3122874214705965    0.3566900352695006    0.4381769710052034    0.4499339329543679    
  0.38707011150793597    0.3249048856661919    0.3022719528104736    0.324904924581138    0.38707001714624706    
  0.44993399320682026    0.43817698842714004    0.3566899488813326    0.3122874214705965    0.4143927437495284    
  0.4381770111836112    0.4700426854625729    0.4518390600654818    0.3945082105779916    0.34436676153016726    
  0.32612097272815455    0.3443667882720731    0.394508176309923    0.4518391667131983    0.470042724162848    
  0.4381769675444129    0.4143927437495284    0.44398991207975275    0.4499339962951951    0.45183911735586996    
  0.4317749939319908    0.39774608032910413    0.3683526712404685    0.35706771605245996    0.3683526610983709    
  0.397745986914916    0.4317750518717191    0.45183919914515575    0.4499339769450786    0.44398991207975275    
  0.38287790199515265    0.38707010027316957    0.3945081524927797    0.3977459967266545    0.3945082638134927    
  0.3870700716161154    0.3828779420873445    0.3870700911870982    0.394508151747387    0.3977460459204361    
  0.39450820847847934    0.38707003935798406    0.38287790199515265    0.317577289667221    0.3249049027188284    
  0.34436673540165424    0.3683526357381319    0.3870700864067475    0.3947223698617162    0.3955011843477674    
  0.39472241858915    0.3870700574892904    0.36835263209564706    0.3443667896110898    0.3249048682204658    
  0.317577289667221    0.293658338580847    0.3022719760695169    0.32612100966213586    0.3570677507721777    
  0.3828780264578347    0.3955012589950924    0.39800855361890153    0.39550126222346554    0.382877967788214    
  0.3570677482111706    0.32612105134923325    0.3022719585782735    0.293658338580847    0.31757729809683843    
  0.32490490030423147    0.34436675893189717    0.36835262032787236    0.3870700640719999    0.39472245654433075    
  0.3955011886740413    0.39472241093358873    0.38707001744270575    0.36835268844661156    0.3443667937329134    
  0.3249048950106084    0.31757729809683843    0.3828779463767384    0.3870700582189647    0.39450816768970987    
  0.3977460186698956    0.3945082132814748    0.38707001166073923    0.3828779194629396    0.3870700799243255    
  0.39450817842159736    0.39774600138251204    0.3945081878746349    0.387070007121038    0.3828779463767384    
  0.44398988022493246    0.4499340235005321    0.4518391531839939    0.43177497852785823    0.3977460675837632    
  0.3683526601913346    0.3570677351629627    0.3683527016442214    0.39774597782357846    0.4317750477420457    
  0.4518392173482806    0.44993397247578165    0.44398988022493246    0.4143927239401812    0.43817699793520787    
  0.4700426953051955    0.4518390714886099    0.39450826742690864    0.34436680891909577    0.3261209762284695    
  0.3443668050018718    0.3945081530440619    0.4518391415264227    0.470042758711371    0.43817691281479176    
  0.4143927239401812    0.31228736134422924    0.3566900163661077    0.4381769434645443    0.44993396171778677    
  0.3870700767138915    0.32490487198238294    0.3022718753452375    0.3249049146589239    0.38707001109187184    
  0.4499340036773775    0.43817696619425894    0.3566899879641184    0.31228736134422924    0.2617031106218653    
  0.312287414181198    0.4143927843851273    0.4439898428912905    0.38287804768982114    0.3175773161612308    
  0.29365832220482874    0.31757739314029937    0.38287791595500703    0.4439899174127529    0.4143928251923003    
  0.3122874248539585    0.2617031106218653    0.41626119564866043    0.4309377777406106    0.443989890158465    
  0.41448943631211693    0.35706783265157666    0.31069906064911784    0.29436604482968715    0.3106990929900667    
  0.3570677098235291    0.4144894854593014    0.44398996578291744    0.4309377769317255    0.41626119564866043    
  0.43093772312737216    0.44232661527509787    0.44993400119615784    0.4207325751381135    0.3683526918890149    
  0.3258834960319995    0.3106990308937301    0.32588355334265023    0.36835261012084325    0.4207326803944703    
  0.4499340245055684    0.4423265033211947    0.43093772312737216    0.4439898728094357    0.4499340356528371    
  0.4518391173962314    0.43177491352559916    0.3977460761620843    0.3683526453261    0.35706771699581247    
  0.36835268646120406    0.397746067591404    0.4317749884821104    0.45183914862063196    0.44993392400497484    
  0.4439898728094357    0.41448942148039636    0.42073265802444    0.4317749645734137    0.4365691132048859    
  0.4317750046190333    0.420732674262629    0.4144893923426849    0.42073265894295053    0.4317749256127486    
  0.43656921738636095    0.43177503028122377    0.4207326563338476    0.41448942148039636    0.3570677467042195    
  0.36835270126067765    0.39774604936301816    0.4317749422003897    0.45183921070726046    0.4499340362527247    
  0.44398985235650024    0.44993404679067084    0.45183910878511635    0.4317749547909791    0.3977460746281351    
  0.36835263039654875    0.3570677467042195    0.31069904624229283    0.3258835370894846    0.36835260631691974    
  0.4207326373520136    0.4499339877051477    0.4423265501892597    0.43093773445317934    0.4423265780874049    
  0.4499339561755646    0.4207326371857342    0.3683526629585462    0.3258835164831735    0.31069904624229283    
  0.2943660530776594    0.31069905370308165    0.3570677579803795    0.41448944147099487    0.44398992923561825    
  0.43093778597662014    0.4162612009376571    0.43093779409397753    0.44398986878008534    0.4144894663500672    
  0.3570677830556325    0.31069906756948046    0.2943660530776594    0.31069903701261103    0.3258835370465576    
  0.3683526279846328    0.4207326047961691    0.4499340571536086    0.4423265928107096    0.4309377050311903    
  0.44232655261747755    0.4499339616757032    0.4207326963160544    0.36835266384958054    0.32588350030945334    
  0.31069903701261103    0.3570677425680043    0.36835265668069556    0.3977460160213225    0.4317749366758693    
  0.45183919679260187    0.4499339604037527    0.4439898450774811    0.44993404344015026    0.45183915468345864    
  0.43177497539995385    0.39774606943761515    0.36835261661474106    0.3570677425680043    0.4144894409961394    
  0.4207326724524354    0.43177496187365044    0.43656907673652057    0.4317749940887849    0.42073268561683863    
  0.4144894183531034    0.4207327158408741    0.43177493422966    0.4365691915000428    0.43177503849968035    
  0.42073266036295337    0.4144894409961394    0.4439898509312986    0.4499340204929241    0.4518391440503896    
  0.4317749554108308    0.397746119096063    0.3683526947846709    0.35706771240203744    0.3683527159552118    
  0.3977460026537937    0.4317749525203534    0.4518391527220469    0.4499339341266344    0.4439898509312986    
  0.43093772554055987    0.4423265923528997    0.4499339794661823    0.42073262158166713    0.3683526563058812    
  0.3258835137945697    0.310698971067841    0.32588355629928234    0.3683525855264907    0.4207326538282666    
  0.44993398316616    0.44232658258395446    0.43093772554055987    0.41626119564866043    0.4309377777406106    
  0.443989890158465    0.41448943631211693    0.35706783265157666    0.31069906064911784    0.29436604482968715    
  0.3106990929900667    0.3570677098235291    0.4144894854593014    0.44398996578291744    0.4309377769317255    
  0.41626119564866043    0.39800852678566506    0.3955012470563563    0.3828779902081221    0.3570677412650244    
  0.32612109332282796    0.3022719987948943    0.29365832010554394    0.3022719970314201    0.3261209748418629    
  0.3570677779389708    0.3828780308088355    0.39550128340392665    0.39800852678566506    0.39550123559502265    
  0.3947224166075447    0.3870700523337136    0.36835258120784825    0.3443668047903255    0.3249048899198003    
  0.3175772959229411    0.32490490025884905    0.34436674413802193    0.3683526636985256    0.3870700838954958    
  0.3947223437364377    0.39550123559502265    0.3828779522820936    0.3870701116869638    0.3945081563851143    
  0.3977459834183888    0.3945082432219393    0.38707003188506994    0.38287795396678487    0.38707007482062766    
  0.3945082084913398    0.39774601919111285    0.3945081504217211    0.387070042962279    0.3828779522820936    
  0.35706774488436466    0.36835266624763574    0.397746038407983    0.4317749475894157    0.4518392320971407    
  0.44993401387861387    0.44398982850988566    0.4499340418918277    0.4518390666922393    0.43177502269304346    
  0.3977460801138519    0.36835263406340807    0.35706774488436466    0.326121019394682    0.34436679479730536    
  0.3945081725980011    0.45183909339722256    0.4700428290934165    0.4381769888603954    0.4143927432082516    
  0.43817701896377476    0.4700427096148143    0.45183915807017844    0.39450822841721395    0.34436677290663625    
  0.326121019394682    0.3022719438299031    0.32490489251026955    0.38707000707224637    0.44993398472803964    
  0.43817699749563466    0.35668995887069244    0.31228737784592264    0.35669000143109014    0.4381769691219182    
  0.4499339762783273    0.38707008751902444    0.3249048891727653    0.3022719438299031    0.29365837217413665    
  0.317577315245813    0.3828779821830914    0.4439898684460176    0.4143928390863552    0.3122874476038392    
  0.2617031001417464    0.3122874599177072    0.41439273568765966    0.44398989268907024    0.382877987122349    
  0.31757732685935897    0.29365837217413665    0.3022719571920049    0.32490489741027273    0.3870700414760794    
  0.4499339329913644    0.4381769703233256    0.3566900417223237    0.3122873569282192    0.35668999219894115    
  0.43817693001191227    0.44993399090024544    0.3870700634904936    0.3249048836863662    0.3022719571920049    
  0.32612100023244106    0.3443667815754696    0.39450821052680435    0.4518391526929864    0.4700427888517588    
  0.4381769111492218    0.41439269754210023    0.4381769701932887    0.47004271355254645    0.4518391175467518    
  0.39450821541302783    0.3443667308558769    0.32612100023244106    0.35706777326003664    0.368352676634919    
  0.3977460568884464    0.4317749899728729    0.45183919941711875    0.4499340172472982    0.44398982701784745    
  0.44993405282802057    0.4518390666813523    0.43177505063464217    0.39774612316214153    0.36835264443466204    
  0.35706777326003664    0.3828779165311621    0.387070091702211    0.394508132604906    0.3977459753360793    
  0.3945082302300791    0.38707010720009427    0.3828779523201054    0.38707009816098265    0.3945081598401538    
  0.3977460403279466    0.39450825846213705    0.38707002897704484    0.3828779165311621    0.39550121827165147    
  0.39472239201912496    0.3870700369184384    0.3683526153304873    0.3443667765380281    0.324904880025885    
  0.3175772551965407    0.32490490787512105    0.34436674236306436    0.36835264236876597    0.38707005926827304    
  0.3947223960665131    0.39550121827165147    0.39800852678566506    0.3955012470563563    0.3828779902081221    
  0.3570677412650244    0.32612109332282796    0.3022719987948943    0.29365832010554394    0.3022719970314201    
  0.3261209748418629    0.3570677779389708    0.3828780308088355    0.39550128340392665    0.39800852678566506    
  0.3227575447627636    0.32158346992962145    0.3175773260093386    0.310699017247378    0.3022720419882001    
  0.2951132832080764    0.29235351197760473    0.29511331153273873    0.30227192697283684    0.3106990733154093    
  0.3175773393966233    0.3215834891324906    0.3227575447627636    0.32158346419210065    0.32274890940475354    
  0.3249048660491314    0.3258834534243883    0.32490491721938486    0.32274886900965283    0.3215834835293769    
  0.3227488986300168    0.32490485632539456    0.32588351004605476    0.3249049068414461    0.32274884318658315    
  0.32158346419210065    0.3175772782691762    0.32490493116629177    0.3443667435112927    0.36835259617026594    
  0.3870700520824094    0.39472234315547444    0.3955011812535337    0.3947223935251829    0.3870700332936313    
  0.3683526503725025    0.34436673836812626    0.32490485641919187    0.3175772782691762    0.31069904548844823    
  0.3258835242028447    0.3683526099124239    0.42073264439693436    0.4499340501856425    0.44232655427502515    
  0.43093769321315584    0.4423265975022017    0.44993391737210664    0.4207326838532979    0.368352665823663    
  0.32588349096271635    0.31069904548844823    0.3022719123161142    0.3249049330174413    0.3870700187359792    
  0.44993392761406015    0.43817701467484094    0.3566899937102699    0.3122873882809584    0.35669000957236974    
  0.43817691324728447    0.4499339610739465    0.3870700843894985    0.32490486434319005    0.3022719123161142    
  0.2951132440736204    0.3227488535294948    0.3947223435612731    0.4423265225023795    0.35668997541544056    
  0.2102442329768745    0.15277998210161245    0.21024426158722048    0.3566899653086778    0.4423265393929928    
  0.39472240874433556    0.32274883872161686    0.2951132440736204    0.29235353825680305    0.3215834903568175    
  0.39550122979937175    0.4309377287368273    0.31228747783450433    0.15278003025828674    0.098939817619272    
  0.1527800383205236    0.31228741129498294    0.4309377504254525    0.3955012653370441    0.32158348908743556    
  0.29235353825680305    0.2951132364682336    0.3227488842965065    0.3947223844191815    0.4423264903282481    
  0.3566899857979848    0.2102442600241582    0.152779993205662    0.21024424529622657    0.35668995184605173    
  0.442326587112005    0.39472243002053137    0.322748879376522    0.2951132364682336    0.30227191749243665    
  0.32490488529346    0.3870700493379249    0.4499339213063802    0.438177015683246    0.3566899708537098    
  0.3122873822262565    0.35668997992769647    0.4381769594563267    0.44993394349528876    0.3870700787805004    
  0.3249048503280424    0.30227191749243665    0.3106990639516811    0.32588354761099847    0.3683526484928649    
  0.42073266554334277    0.44993400962557856    0.4423265328622342    0.43093773781919537    0.44232661791080147    
  0.4499339116099519    0.42073269833162735    0.36835271111682166    0.3258835160568809    0.3106990639516811    
  0.31757726847652634    0.32490493200984816    0.34436673124652495    0.36835257945227406    0.387070105190015    
  0.39472238576930635    0.3955012017632113    0.3947224168526999    0.3870699999629974    0.3683526385038458    
  0.3443667911722592    0.3249048444004292    0.31757726847652634    0.3215834638423401    0.3227488837885243    
  0.32490483896689526    0.3258834776187456    0.3249048934341301    0.3227488459334765    0.3215834104650423    
  0.32274888023615556    0.32490483548219556    0.32588350691184564    0.32490488766175707    0.32274887617814757    
  0.3215834638423401    0.3227575447627636    0.32158346992962145    0.3175773260093386    0.310699017247378    
  0.3022720419882001    0.2951132832080764    0.29235351197760473    0.29511331153273873    0.30227192697283684    
  0.3106990733154093    0.3175773393966233    0.3215834891324906    0.3227575447627636    0.29175910230403973    
  0.2923535328888855    0.2936583402446106    0.29436603404521383    0.2936584038526913    0.29235357756279096    
  0.29175911259270115    0.2923535768841539    0.2936583142720424    0.29436604818566314    0.29365837491950064    
  0.29235357041188204    0.29175910230403973    0.2923535359524567    0.295113308486829    0.30227195084540814    
  0.3106990213076056    0.3175773497247077    0.3215834728256817    0.3227575479273688    0.3215835230188425    
  0.31757728962824344    0.31069908650253164    0.30227198938868854    0.29511323950696405    0.2923535359524567    
  0.2936583429663332    0.30227198743903233    0.326121000835173    0.3570677033126859    0.3828780088278844    
  0.3955012499799605    0.39800854491615134    0.3955012796492359    0.3828780046091416    0.3570677444953342    
  0.3261210186863597    0.3022719359533499    0.2936583429663332    0.29436601324882306    0.31069909287220193    
  0.3570677580120475    0.4144894259737931    0.44398994332778396    0.4309377802560856    0.41626115830864263    
  0.43093780931541054    0.44398983072746195    0.41448950963174414    0.3570677856802959    0.31069906068646963    
  0.29436601324882306    0.2936583523962337    0.31757732669607774    0.38287796567740195    0.4439898369502268    
  0.4143928235107178    0.31228742615455796    0.2617031049679989    0.31228748168005444    0.41439271483548185    
  0.44398986663253187    0.38287801960306167    0.3175773017376004    0.2936583523962337    0.2923535306783483    
  0.32158350790806756    0.3955012055641314    0.4309377530620883    0.31228742877953375    0.15278002700155685    
  0.09893981546314763    0.15278004203310167    0.3122873939225838    0.4309377538115322    0.39550127979609845    
  0.32158350320748763    0.2923535306783483    0.2917591121469043    0.3227575564907643    0.398008584690793    
  0.41626121695931323    0.2617031635439188    0.09893984365384172    0.05391380399317324    0.09893983822707936    
  0.2617031093515778    0.4162612120737469    0.3980086177377462    0.3227575358111425    0.2917591121469043    
  0.2923535241855123    0.3215835348455433    0.3955012424184466    0.4309377109114133    0.3122874162635612    
  0.1527800395881597    0.09893980973292567    0.1527800244590753    0.312287379080771    0.43093779325031817    
  0.3955012535954455    0.32158348250068836    0.2923535241855123    0.29365831360146655    0.3175773255880676    
  0.3828779485597129    0.4439898203751357    0.41439281091446173    0.31228739314531356    0.2617030933044406    
  0.3122874363470802    0.41439276694047766    0.4439898418961824    0.38287800559790836    0.31757727966619287    
  0.29365831360146655    0.29436602513945287    0.3106990808431671    0.35706774786700163    0.414489392407386    
  0.44398997151740854    0.4309377850609198    0.4162611871865461    0.4309378268518892    0.44398981310232877    
  0.41448948426807664    0.3570678023895079    0.3106990809528897    0.29436602513945287    0.2936583286476699    
  0.3022719873325862    0.3261210339890666    0.35706773004393    0.38287804025139044    0.39550127342061153    
  0.39800855116290934    0.3955013092499148    0.3828779191245591    0.35706774314035317    0.3261210385667297    
  0.3022719405803081    0.2936583286476699    0.29235352039096635    0.2951132583635984    0.302271947710039    
  0.3106990275235045    0.3175773144628847    0.32158348529009106    0.32275747663401094    0.32158352228439646    
  0.31757727048311335    0.3106990566336987    0.3022719712079785    0.29511326801211696    0.29235352039096635    
  0.29175910230403973    0.2923535328888855    0.2936583402446106    0.29436603404521383    0.2936584038526913    
  0.29235357756279096    0.29175911259270115    0.2923535768841539    0.2936583142720424    0.29436604818566314    
  0.29365837491950064    0.29235357041188204    0.29175910230403973    0.32275752208215924    0.32158349069207537    
  0.3175773171966571    0.3106990084112153    0.30227201188413133    0.29511327458900233    0.29235350718903463    
  0.29511330394999064    0.3022719237134098    0.3106990675638562    0.3175773334221289    0.32158352334080165    
  0.32275752208215924    0.32158347010580995    0.32274889373676013    0.32490487006327806    0.32588346738301105    
  0.3249049246433849    0.322748877229788    0.3215834660091719    0.32274888329200013    0.32490484599053276    
  0.325883518338005    0.32490492576075464    0.3227488198895017    0.32158347010580995    0.31757729726700584    
  0.3249049341526802    0.3443667459309801    0.3683525864395774    0.3870700825637316    0.3947223855052607    
  0.39550121706240093    0.39472238902159296    0.3870700387704816    0.36835262404518065    0.3443667568744767    
  0.32490487101024274    0.31757729726700584    0.31069904271814774    0.32588352962935296    0.3683526200109883    
  0.42073262751171836    0.4499340280786554    0.44232658534084573    0.43093770766660816    0.442326585073859    
  0.4499339158295651    0.4207326765491956    0.368352648676706    0.32588350111033076    0.31069904271814774    
  0.3022719523539711    0.32490488955567315    0.3870700255761129    0.4499339411113569    0.4381770110129124    
  0.3566900056193615    0.3122873905767439    0.35669001339332707    0.43817693535202784    0.44993397590482387    
  0.38707007156730044    0.32490490457714244    0.3022719523539711    0.29511323785596233    0.3227488860253017    
  0.3947223483088598    0.4423265170902055    0.3566900086780234    0.21024422623950453    0.15277997264007764    
  0.2102442532824073    0.35668997332889507    0.44232652585240445    0.3947224188042228    0.32274885752046123    
  0.29511323785596233    0.29235353835421396    0.32158349471154707    0.39550125112722906    0.4309377262355409    
  0.3122874838327932    0.15278004031444262    0.09893982075865425    0.15278004112274704    0.3122873917970734    
  0.4309377596933491    0.3955012623955927    0.32158349677387427    0.29235353835421396    0.2951132527652128    
  0.3227488954500653    0.39472237370935614    0.442326486833446    0.35668996376042966    0.21024426390424636    