#     DFTpy    
  CRYSTAL 
    
  PRIMVEC    
  1.6728796782890512    -2.897512597746115    0.0    
  1.6728796782890512    2.897512597746115    0.0    
  0.0    0.0    5.656144876827586    
  PRIMCOORD    
  2    1    
  Si    1.6728796782890512    0.9658375325820383    1.4140362192068965    
  Si    1.6728796782890516    -0.9658375325820383    4.242108657620689    
  BEGIN_BLOCK_DATAGRID_3D    
  3d_datagrid_density    
  BEGIN_DATAGRID_3D#0    
  15    15    25    
  0.0    0.0    0.0    
  1.6728796782890512    -2.897512597746115    0.0    
  1.6728796782890512    2.897512597746115    0.0    
  0.0    0.0    5.656144876827586    
  0.04508991760994113    0.046806677543235746    0.05184564134045018    0.060072110285447004    0.07098428228496381    
  0.08263520434324798    0.09189614085200838    0.09551752593023549    0.09189610733208944    0.08263522481021134    
  0.0709843152984913    0.06007211959773824    0.051845642219224976    0.04680667574909367    0.04508991760994113    
  0.04680668595294149    0.04680591650124652    0.050194160969374596    0.05690211291737486    0.06671871455300248    
  0.07847181023736235    0.08949425619229155    0.09640983460419134    0.09640784433880575    0.08949648166476826    
  0.0784705052814385    0.06671934641240367    0.05690165991995002    0.05019407018645676    0.04680668595294149    
  0.05184562584888793    0.05019413085002738    0.05184661680539671    0.056900188474756946    0.06539479862860725    
  0.07667163261895975    0.0887672508462697    0.0984311152456697    0.1022053576374851    0.09843197619414629    
  0.08876567315572778    0.07667322070244556    0.06539385400040348    0.05690164125534452    0.05184562584888793    
  0.060072109788328346    0.05690210403894985    0.05690019224091573    0.06007387680400323    0.06671774551387197    
  0.07667443988910104    0.08871046251749572    0.10010855206108915    0.10716556697677765    0.10716629860209043    
  0.10010754520154948    0.0887124518877914    0.0766732514159257    0.0667193541249623    0.060072109788328346    
  0.07098429325315266    0.06671869389034657    0.06539478892631502    0.06671773234051535    0.07098472487849669    
  0.07847015318200827    0.08876683131844618    0.1001068276197603    0.10912235660087846    0.11254110753647571    
  0.10912203751567938    0.1001075367330066    0.08876564829957671    0.0784704826218518    0.07098429325315266    
  0.08263519474717104    0.07847178665048572    0.07667164297204289    0.07667445295179856    0.07847016348245411    
  0.08263602583014781    0.08949498519273211    0.09843176191699064    0.10716687727757722    0.11253952937782273    
  0.11254114876946454    0.1071662900486281    0.09843197587742814    0.0894964500089582    0.08263519474717104    
  0.09189611821930069    0.08949426471426777    0.0887672588990115    0.08871045816488018    0.08876685653279515    
  0.08949501390369347    0.09189533519108942    0.09640897358303094    0.10220441206622327    0.10716686845169998    
  0.10912239458062359    0.10716557662638657    0.10220535829222795    0.09640784501332403    0.09189611821930069    
  0.09551753044225247    0.09640982580756494    0.09843113872361406    0.10010856705443044    0.10010684466157911    
  0.09843179231884477    0.09640897438114375    0.09551836420494188    0.09640897988703036    0.09843180993275001    
  0.10010686056367617    0.10010857808501214    0.0984311574118519    0.09640982991629954    0.09551753044225247    
  0.09189613913293702    0.09640784105022114    0.10220536753379504    0.10716559097579154    0.10912235166498425    
  0.107166891905993    0.10220439630833238    0.09640898738533686    0.09189535830394494    0.08949498549107032    
  0.08876687899386611    0.08871048273005135    0.08876723892583979    0.08949425627876005    0.09189613913293702    
  0.08263518527644512    0.08949646297416933    0.09843197938930916    0.10716630877805838    0.11254111941404622    
  0.11253953175015839    0.10716686122833892    0.09843176734994892    0.08949498769584939    0.08263601624247195    
  0.0784701606462104    0.07667443442812161    0.0766716299939638    0.07847177983859273    0.08263518527644512    
  0.07098428910485566    0.07847048674312405    0.08876567234625743    0.10010754751156237    0.10912200659410473    
  0.11254110209909271    0.10912237955157253    0.10010680293566078    0.08876683875671466    0.07847018299853521    
  0.07098475098344682    0.06671775488023837    0.06539478915410514    0.0667186787251018    0.07098428910485566    
  0.060072117380290835    0.06671935231160792    0.07667323773933192    0.0887124715533298    0.10010754600764624    
  0.10716627808896478    0.10716558054556682    0.10010857365594787    0.08871045807732061    0.0766744381142124    
  0.06671773759531584    0.0600738741197118    0.0569001806721898    0.05690209121750952    0.060072117380290835    
  0.051845627971403095    0.05690164653879274    0.06539386608831638    0.07667323785665572    0.0887656598871343    
  0.09843198966203882    0.102205339025066    0.09843111240218917    0.08876723597188992    0.07667160457794443    
  0.06539481047671368    0.056900172308810754    0.0518466223177639    0.05019412724657578    0.051845627971403095    
  0.04680668775506622    0.05019407915620967    0.05690166798036402    0.06671936446096732    0.0784704905514128    
  0.08949648958571833    0.09640783600046432    0.09640983299314865    0.08949424950531618    0.07847181093405835    
  0.06671870697359195    0.05690210682895918    0.050194148728190155    0.046805914202691715    0.04680668775506622    
  0.04508991760994113    0.046806677543235746    0.05184564134045018    0.060072110285447004    0.07098428228496381    
  0.08263520434324798    0.09189614085200838    0.09551752593023549    0.09189610733208944    0.08263522481021134    
  0.0709843152984913    0.06007211959773824    0.051845642219224976    0.04680667574909367    0.04508991760994113    
  0.04677502721287832    0.048662997394924135    0.054358021222635486    0.06385356459577675    0.07650326608760737    
  0.09007964230477354    0.10090037084173016    0.1051108839664468    0.10089995651016619    0.09008060902776634    
  0.07650250597584454    0.06385239397467231    0.05435803990503714    0.04866379821119552    0.04677502721287832    
  0.04866381141275824    0.04866294627669618    0.051557378523784045    0.05728748560869005    0.06564702710873965    
  0.07560618196959859    0.08493626433946869    0.0908191664628532    0.09082064388000781    0.08493532397924514    
  0.0756068419567443    0.0656469315291003    0.05728895039848985    0.051556107268364584    0.04866381141275824    
  0.05435803682688969    0.053389472445800626    0.05435849658302289    0.05728855793430958    0.062187161741845756    
  0.06876965673568902    0.07585463587488893    0.0815291338820993    0.08377184879860329    0.08152936877375089    
  0.07585404451209579    0.06877006859126968    0.0621863652527451    0.057288930903097286    0.05435803682688969    
  0.06385239209362975    0.06311391884796176    0.06311286206746326    0.0638525124810508    0.06564622128818845    
  0.06877015625363185    0.0730116015301677    0.07724428044046742    0.07994417686538055    0.07994399535161474    
  0.07724382755468763    0.07301323721083113    0.06877007746202156    0.06564689747895636    0.06385239209362975    
  0.07650248327438026    0.0777013640674341    0.07825233536276577    0.07770183052882418    0.07650257801380027    
  0.07560646280569049    0.07585553587118732    0.07724380498752226    0.07880719082473744    0.07947990497194907    
  0.0788080580972358    0.07724381916970012    0.0758540198239991    0.07560682452339906    0.07650248327438026    
  0.09008061018009993    0.09546437882431308    0.09890175549063142    0.09890156500903291    0.0954652341741693    
  0.09007938828344622    0.08493561294037158    0.08152730622351784    0.0799449645827243    0.07947928871852045    
  0.07947990010669831    0.07994401079274735    0.08152938085925274    0.084935304709259    0.09008061018009993    
  0.10089997670319929    0.11235684879031561    0.12162730457651452    0.1251576168387643    0.12162479681342667    
  0.11235776170397353    0.10090049846439876    0.09082035402562037    0.08377225408819708    0.07994498163082371    
  0.0788072187157657    0.07994418563453039    0.08377184639837437    0.09082063307482235    0.10089997670319929    
  0.10511087272188231    0.12285384060101379    0.1399658885741589    0.15052160419206265    0.150522360067349    
  0.13996912690128013    0.12285198643597636    0.10511110092502886    0.09082034980204419    0.08152735395281872    
  0.07724385162978095    0.0772442947998628    0.0815291637484335    0.0908191560241551    0.10511087272188231    
  0.10090036171389834    0.12285228241316369    0.1470328428573927    0.16632409175962992    0.17364744471413476    
  0.1663234577864428    0.1470329952670972    0.12285193498563618    0.10090052771911517    0.08493562777106385    
  0.07585556574383548    0.07301161143297831    0.07585463470842417    0.08493626927948063    0.10090036171389834    
  0.09007964291966397    0.11235820524839975    0.13996694916690697    0.1663233838598513    0.18244982484162342    
  0.18244614337729267    0.1663233711800996    0.1399690880919971    0.1123577433248508    0.09007940223321645    
  0.07560647930989216    0.06877016123763305    0.06876967513101163    0.07560614999261571    0.09007964291966397    
  0.07650325058868253    0.09546391074282742    0.12162723431988111    0.15052262571409766    0.17364539725313935    
  0.18244973132868755    0.17364744069957586    0.15052235922736604    0.12162480671627472    0.09546523061241957    
  0.07650258553358626    0.0656462213001677    0.06218715981308317    0.06564700463184522    0.07650325058868253    
  0.06385355186768435    0.07770072124406566    0.09890275795396061    0.12515521118203637    0.1505226145695333    
  0.16632332781300566    0.16632404156864317    0.15052159066475884    0.12515760786824198    0.0989015348946386    
  0.07770186558003699    0.06385250145001196    0.05728853743604421    0.05728748510113239    0.06385355186768435    
  0.054358007314761134    0.06311277822620417    0.07825354333449165    0.09890274952400673    0.12162722094050771    
  0.1399669748108797    0.14703280594103746    0.13996585311570872    0.12162730331977463    0.0989017310478112    
  0.07825232957177221    0.06311283992665169    0.05435850503155725    0.051557339831312665    0.054358007314761134    
  0.04866299247052426    0.05339091804722933    0.06311279547170648    0.07770072736472941    0.09546389961604744    
  0.11235822691199275    0.12285229621560423    0.12285381384000546    0.11235685816638699    0.09546439506506689    
  0.07770140337990661    0.06311393373857296    0.0533894728190542    0.048662938318638584    0.04866299247052426    
  0.04677502721287832    0.048662997394924135    0.054358021222635486    0.06385356459577675    0.07650326608760737    
  0.09007964230477354    0.10090037084173016    0.1051108839664468    0.10089995651016619    0.09008060902776634    
  0.07650250597584454    0.06385239397467231    0.05435803990503714    0.04866379821119552    0.04677502721287832    
  0.051478833436038964    0.05395683526522325    0.0616841122127242    0.07494665072169673    0.0928791253673689    
  0.11247541875798513    0.12826042822794417    0.13435927722301422    0.12826156626421964    0.11247520854782653    
  0.09287819215636588    0.07494594452626782    0.06168469207090388    0.053957004787925346    0.051478833436038964    
  0.05395702727248582    0.05395809947989833    0.05705378778026134    0.06344446023996834    0.07292823981181287    
  0.0843177229241234    0.09505545947092466    0.10173603910057064    0.10173690079886996    0.09505384832301605    
  0.0843182228310148    0.07292868398266121    0.06344463368252636    0.05705421948301278    0.05395702727248582    
  0.06168468639010753    0.06114581927766013    0.06168391879146537    0.06344605991133516    0.06665869053704783    
  0.07133083963503542    0.07663152206296447    0.08094272896396129    0.08263276843994549    0.08094205470115061    
  0.07663294112728684    0.07133041619397928    0.06665900499616298    0.06344461136165658    0.06168468639010753    
  0.07494593413278858    0.0763379833353841    0.07633836766559748    0.07494482849265925    0.0729281717100519    
  0.0713303946545601    0.07084046613047952    0.07122832511157319    0.07176661956725369    0.07176784363426245    
  0.07122779031726285    0.07084060702464312    0.07133042768742393    0.07292864785809601    0.07494593413278858    
  0.09287816211595763    0.0998016497871295    0.10249623018201011    0.09980349050475469    0.09287745131851807    
  0.08431832676198417    0.07663269380398198    0.07122815450746996    0.06832261779534499    0.06746777768695242    
  0.06832299116358095    0.07122777408334433    0.07663293299583274    0.08431817693148096    0.09287816211595763    
  0.11247520183323274    0.1291624918146953    0.1395393467651802    0.1395363072931533    0.12916486769160782    
  0.11247515630797508    0.09505380928018388    0.08094136002926909    0.07176683995580496    0.06746891630451055    
  0.06746779918183833    0.07176783947033949    0.08094207282029459    0.09505381738701922    0.11247520183323274    
  0.12826157952265105    0.15767389890270256    0.1811899690207342    0.19010988195088835    0.1811853498819111    
  0.15767357419563383    0.1282624213133872    0.10173708919029173    0.08263352341477913    0.0717668610808381    
  0.06832262314541487    0.07176660342192885    0.08263277255851001    0.10173691979688981    0.12826157952265105    
  0.1343592507773791    0.17538804249270842    0.2145979080237329    0.2382478903000968    0.23825180267417545    
  0.21460586666014164    0.17538678050460066    0.13435857840645482    0.10173705749603375    0.08094140382435917    
  0.07122820948406997    0.07122833495236265    0.08094275437753878    0.10173602440599817    0.1343592507773791    
  0.12826041526113238    0.17539009659914542    0.22719647785139008    0.26687451964211484    0.28122373325223765    
  0.26687165587024525    0.22720128672969597    0.17538676144411527    0.12826242379906597    0.09505384939911841    
  0.07663271676612696    0.0708404862647635    0.07663153400227703    0.09505546616590778    0.12826041526113238    
  0.11247542338768757    0.15767143641329517    0.21460222767502818    0.26687479555113236    0.29648685313838197    
  0.29647828952770033    0.2668715989559623    0.21460582995584387    0.15767355211504022    0.11247512837383905    
  0.08431834301404481    0.07133040342643907    0.0713308440420963    0.08431768166892897    0.11247542338768757    
  0.09287911123700951    0.12916338404269706    0.18119149409031468    0.23824656193819002    0.281218584824813    
  0.29648682072864285    0.28122371790494116    0.23825179985943995    0.18118534699682312    0.12916491548788683    
  0.09287749343402474    0.07292816611316522    0.06665869518049901    0.0729282081409213    0.09287911123700951    
  0.07494664476222813    0.09980112642252889    0.1395383321942271    0.19010861244525376    0.23824655141782353    
  0.26687473346211127    0.2668745080254445    0.23824789975497554    0.1901098146482045    0.13953631060860303    
  0.09980351591815696    0.07494481358287512    0.06344605283256546    0.06344445490447775    0.07494664476222813    
  0.06168409561197678    0.07633763269804363    0.10249809928914226    0.13953834580329486    0.18119150039226162    
  0.21460220031046076    0.2271964744255252    0.2145978796760691    0.18118996090979053    0.1395393263868829    
  0.10249624259582311    0.07633835002189908    0.06168393156091633    0.05705375354580307    0.06168409561197678    
  0.053956835943911936    0.06114773070857522    0.07633765122977455    0.09980114027170525    0.12916339633042404    
  0.1576714779138235    0.1753901017527087    0.1753880449665548    0.15767390348814783    0.1291625424343293    
  0.09980167278536864    0.07633798988824159    0.061145828456144684    0.05395809676985709    0.053956835943911936    
  0.051478833436038964    0.05395683526522325    0.0616841122127242    0.07494665072169673    0.0928791253673689    
  0.11247541875798513    0.12826042822794417    0.13435927722301422    0.12826156626421964    0.11247520854782653    
  0.09287819215636588    0.07494594452626782    0.06168469207090388    0.053957004787925346    0.051478833436038964    
  0.05832663566529648    0.06182255187254425    0.07281753120347319    0.09205203990881747    0.11865427070200901    
  0.14820144481709804    0.17208650263413935    0.18125904262717482    0.1720928771377441    0.14820174471084016    
  0.11864891044343114    0.09205358807399992    0.07281871692594007    0.061822545005064816    0.05832663566529648    
  0.06182257429106765    0.061824711621026505    0.06575124601759563    0.07402798651380244    0.08650623794556177    
  0.10175971826762348    0.11630302142259014    0.12526017003332468    0.1252586314336742    0.11629823583149682    
  0.10175944566976312    0.0865094571393526    0.07402674669457096    0.06575180946826571    0.06182257429106765    
  0.07281869437999923    0.0725202282176797    0.07281710188536171    0.07402791927391597    0.07668741555323405    
  0.08103106588415064    0.08635606241796459    0.09080856292227991    0.09253542822099774    0.09080823162808306    
  0.0863598075832716    0.08103199534390142    0.07668503274096543    0.07402671976354382    0.07281869437999923    
  0.09205358869938222    0.09556728194628791    0.09556832532480196    0.09205200228014593    0.08650641341837943    
  0.08103294727650022    0.07714678819200795    0.07512997941677617    0.07445086349384046    0.07445275719387752    
  0.07513027743632478    0.07714358192030216    0.08103203742841802    0.08650945693600137    0.09205358869938222    
  0.11864891218156508    0.13224860693234927    0.1375108267010631    0.13225183130534615    0.11865236550743358    
  0.10175781259592086    0.08635636185344982    0.07513090779996419    0.06875086203996252    0.06675149934811175    
  0.06875003181650718    0.0751302469275251    0.08635976974882857    0.1017594286403533    0.11864891218156508    
  0.14820172764840328    0.1789680430330096    0.19808970923505587    0.1980845773741368    0.17896472586635853    
  0.148204688827578    0.116300970157276    0.09080777982636691    0.07445086593727554    0.06675251058558938    
  0.06675153078177941    0.07445274966680718    0.09080823047870377    0.11629820537185007    0.14820172764840328    
  0.17209288953215798    0.2239306010526426    0.26390095986326884    0.2784388066462346    0.26390057489376456    
  0.2239291967353188    0.17208958569607974    0.12526138323783015    0.0925357448460848    0.07445085978177511    
  0.06875088629494872    0.07445086548765938    0.09253543772522183    0.1252586535742301    0.17209288953215798    
  0.18125905066076173    0.251141605089576    0.3115138703454925    0.34185840102497805    0.34185719891828703    
  0.31153207835844093    0.25114540421447323    0.18125533217171552    0.12526134862317098    0.09080782137604472    
  0.07513093017037858    0.07512998129121516    0.09080857870855258    0.12526015962104414    0.18125905066076173    
  0.1720864754900606    0.2511488954472389    0.32753202632995326    0.3681803771703728    0.3765571059261671    
  0.3681757478284403    0.32754193944088217    0.251145453552101    0.17208965220910188    0.11630098495225362    
  0.08635637593896771    0.07714680549053093    0.08635606817218452    0.11630302909127169    0.1720864754900606    
  0.1482014315828934    0.223926723534605    0.3115276160992125    0.368182938284419    0.38059005203163765    
  0.38058192118303547    0.36817566947639646    0.31153199241226526    0.22392915512381942    0.14820468202586592    
  0.10175784376975489    0.0810329553675899    0.0810310722398713    0.10175966345437902    0.1482014315828934    
  0.11865426053130572    0.1789639931631754    0.26390954586769777    0.341838373993848    0.37655760704195657    
  0.3805900236290571    0.376557081178688    0.34185717166615365    0.2639005711855859    0.17896475312633203    
  0.11865237346638316    0.08650641602898586    0.0766874177706599    0.08650622351527293    0.11865426053130572    
  0.09205205548845162    0.13225170411639658    0.19808722457168806    0.278446462111018    0.3418383637544099    
  0.36818289058175885    0.3681803399589978    0.34185845393612835    0.2784387970330277    0.19808460996366042    
  0.1322518535661448    0.09205200432196686    0.07402790921606921    0.07402797005075404    0.09205205548845162    
  0.07281752351440673    0.09556843546210318    0.13750887237195764    0.19808722432779913    0.26390955580569825    
  0.3115276569526454    0.3275320031623811    0.3115138398912566    0.2639009222371622    0.19808966586800428    
  0.13751084412818332    0.09556830441376696    0.07281710854123116    0.06575121141886747    0.07281752351440673    
  0.06182256510408284    0.07252240045668876    0.09556846643942087    0.13225173815715052    0.17896398202382025    
  0.22392677826645507    0.251148883391752    0.25114162200396895    0.22393065052187874    0.17896807720382546    
  0.1322486404619917    0.09556728760412159    0.07252024956723944    0.06182470595169928    0.06182256510408284    
  0.05832663566529648    0.06182255187254425    0.07281753120347319    0.09205203990881747    0.11865427070200901    
  0.14820144481709804    0.17208650263413935    0.18125904262717482    0.1720928771377441    0.14820174471084016    
  0.11864891044343114    0.09205358807399992    0.07281871692594007    0.061822545005064816    0.05832663566529648    
  0.06580257251593648    0.0704750676339996    0.08524279914737903    0.11158858617874112    0.1488141540998803    
  0.19018681900489925    0.22300455501927696    0.23538722167016712    0.22303900626305787    0.19018999281317578    
  0.14878418800743554    0.1115952261867132    0.08524601674283898    0.07047568921724111    0.06580257251593648    
  0.07047571133366229    0.0704765398164801    0.07556151422676281    0.086360724920042    0.10287865200845568    
  0.12339501950791314    0.14307094983835067    0.15510504177061657    0.15510510260439675    0.14304469211563284    
  0.12339492395062025    0.10289920634261394    0.08635739704519364    0.07555800225032669    0.07047571133366229    
  0.08524602594913132    0.08503036586769892    0.08524267757369154    0.08635460141570865    0.089211776772124    
  0.09414806722952428    0.10040787899548637    0.10575426117279238    0.10782399904800376    0.10575329138775286    
  0.10042545562780227    0.09415095786032847    0.08919123433056911    0.08635736617183265    0.08524602594913132    
  0.11159522982949865    0.11701801420546827    0.11702255255978584    0.11159435303111104    0.1028788231520438    
  0.09415260712884023    0.08760931899947147    0.08378274789737246    0.08224198298724049    0.08224156523247372    
  0.08378666019060398    0.08759233420434026    0.09415098071947628    0.10289919045063348    0.11159522982949865    
  0.14878419320201342    0.16909947777891085    0.17681957573763896    0.16910138318462173    0.14881484686563726    
  0.1233883425835563    0.10040909426366904    0.08379049818766723    0.07428206744077688    0.07126860664992998    
  0.07428176102069044    0.08378667593182147    0.1004254135458829    0.12339490410036542    0.14878419320201342    
  0.19018998748016402    0.234830069811996    0.2613843989626423    0.2613735362595293    0.23479253790703444    
  0.1901959216404911    0.14306742938827166    0.10574565083951888    0.08224229034507    0.07126755271303471    
  0.07126859960095558    0.08224156779481447    0.10575328149213978    0.14304467689608108    0.19018998748016402    
  0.22303907713573948    0.29375119555825974    0.3400471492514631    0.3538397208972431    0.34009441035347726    
  0.29374437236486184    0.22301123162906494    0.15511752870158507    0.10782274017931837    0.08224232634615868    
  0.0742820683007749    0.08224198589345508    0.10782400889114331    0.15510508184668614    0.22303907713573948    
  0.23538722462284867    0.32553967241545945    0.37685787959365347    0.3807282915697551    0.3806960394026436    
  0.376874388897063    0.3255932859255396    0.23535644312727108    0.15511751558943812    0.10574570418184133    
  0.08379055063196227    0.08378273847166699    0.10575424741695723    0.1551050295969916    0.23538722462284867    
  0.22300454107603887    0.3255891997995788    0.38206941384910165    0.35543474743905495    0.3273023187749137    
  0.3554271961845476    0.3820674275742161    0.3255932310201337    0.22301131628509271    0.14306746748982324    
  0.10040911297260383    0.08760934228175496    0.1004078992995643    0.14307095363650782    0.22300454107603887    
  0.19018684340718114    0.29374582808024674    0.3768808104423401    0.35542150053527727    0.2884663933236126    
  0.28850200742286075    0.35542710907187547    0.37687442257344583    0.29374429755608406    0.1901959270534693    
  0.1233883298995974    0.09415260251883956    0.09414809004500121    0.1233949710680378    0.19018684340718114    
  0.1488141223275125    0.23479525628073605    0.340101929394559    0.38063925843544255    0.32737176860221695    
  0.28846632057219956    0.3273023260283835    0.3806960345910248    0.3400944588783573    0.23479254267110777    
  0.14881487656133294    0.10287879441187736    0.08921178129513044    0.1028786409343324    0.1488141223275125    
  0.11158859920383729    0.16911112244989077    0.2613725325741952    0.353882703255482    0.3806391902676268    
  0.35542143253383285    0.35543471175268454    0.38072834661024585    0.35383962947292097    0.2613735180120232    
  0.16910139349850398    0.11159435008792909    0.08635459138520772    0.08636072224050191    0.11158859920383729    
  0.08524278005981344    0.11702271080059637    0.17681161136516102    0.26137250363991404    0.34010191643956017    
  0.3768808227995097    0.3820693668011938    0.3768578678629857    0.3400471745599299    0.2613843709125485    
  0.17681957499558792    0.11702252569837444    0.08524268502729718    0.07556147528326111    0.08524278005981344    
  0.07047508141459183    0.08503268382750631    0.11702274707503214    0.16911115821259073    0.23479521630367683    
  0.29374592618379863    0.32558924365287734    0.3255396683830086    0.293751218389139    0.23483010443514432    
  0.16909954062569865    0.11701802866750309    0.0850303664172958    0.0704765316863901    0.07047508141459183    
  0.06580257251593648    0.0704750676339996    0.08524279914737903    0.11158858617874112    0.1488141540998803    
  0.19018681900489925    0.22300455501927696    0.23538722167016712    0.22303900626305787    0.19018999281317578    
  0.14878418800743554    0.1115952261867132    0.08524601674283898    0.07047568921724111    0.06580257251593648    
  0.07161107063511633    0.07725425310241446    0.09518492553306704    0.1275630724107546    0.17374768442555408    
  0.2245990018346658    0.26372452077974734    0.27805970405800917    0.2638162928436094    0.22460752481280633    
  0.1736733919558015    0.12757599608500306    0.09519668082962024    0.07725359944044638    0.07161107063511633    
  0.07725362975265099    0.07725418236157325    0.08337460634627424    0.09644918295767879    0.11658645782251906    
  0.1418118513274739    0.16604427166454527    0.18077909894117097    0.18078269274734096    0.1659802037329266    
  0.14180915094400537    0.11664260334575553    0.09643856908393268    0.08336426691595761    0.07725362975265099    
  0.09519668154166458    0.09498504834153966    0.0951844792223435    0.09643059756934476    0.09982557786726494    
  0.10561650253237227    0.112913832082701    0.11922626642082161    0.12167939521934429    0.11921769605164685    
  0.11296270062949758    0.10561847663472301    0.09977508443806857    0.09643853334827367    0.09519668154166458    
  0.12757599971543016    0.13438349925348636    0.1343986372073269    0.1275835405878382    0.11658563000489867    
  0.10562337204801296    0.09724391597160267    0.09210936565063962    0.08998203576708942    0.08998575254251742    
  0.09211709323539283    0.09720221917585968    0.10561848139735557    0.11664256775762652    0.12757599971543016    
  0.17367336688682924    0.19888391511860112    0.2082985673563013    0.19887468025344096    0.17375047465367768    
  0.14180074112590538    0.1129162814571615    0.0921284632211135    0.08025112936286231    0.07649172655047734    
  0.08025011783504371    0.09211709331849718    0.11296266999600149    0.14180910691474655    0.17367336688682924    
  0.22460750643053792    0.27780561183837876    0.30724563628904217    0.30723035286084116    0.2777081770302379    
  0.22461685709915888    0.16603921460273421    0.11920388470219138    0.08998184343987906    0.07649473442174175    
  0.07649173040015238    0.08998574049204251    0.11921771765007516    0.16598016388180467    0.22460750643053792    
  0.2638163044760876    0.34060242746173897    0.37608287115119543    0.380908082495816    0.37621256826901955    
  0.34058985305472583    0.263737264412126    0.18080773132103756    0.12168050212423827    0.08998187638958983    
  0.08025111764455709    0.08998203150814355    0.1216793997887234    0.18078270437805619    0.2638163044760876    
  0.2780596798012101    0.36731999068415483    0.3742891342181772    0.33018260052775406    0.33010848457952247    
  0.37428455483839956    0.367469218168936    0.27798517953230384    0.1808076929677722    0.11920393721907387    
  0.09212848900273886    0.09210934136979068    0.11922628777342963    0.18077906199534058    0.2780596798012101    
  0.26372453502212184    0.36745000825356516    0.3575374967507537    0.24457467939276128    0.1891474881099141    