#     DFTpy    
  CRYSTAL 
    
  PRIMVEC    
  4.445103448275861    0.0    0.0    
  0.0    4.445103448275861    0.0    
  0.0    0.0    2.4489655172413793    
  PRIMCOORD    
  4    1    
  Si    0.0    0.0    0.0    
  Si    2.2225517241379307    2.2225517241379307    1.2244827586206897    
  Si    0.0    2.2225517241379307    0.6122413793103448    
  Si    2.2225517241379307    0.0    1.8367241379310346    
  BEGIN_BLOCK_DATAGRID_3D    
  3d_datagrid_density    
  BEGIN_DATAGRID_3D#0    
  19    19    11    
  0.0    0.0    0.0    
  4.445103448275861    0.0    0.0    
  0.0    4.445103448275861    0.0    
  0.0    0.0    2.4489655172413793    
  0.05022423993656024    0.10082478353544672    0.2949911491138442    0.4930482880405366    0.5199305963415599    
  0.4963118889793777    0.4908441608801051    0.4652326993100732    0.40277984901356034    0.36805755761422504    
  0.4027798708555271    0.46523261591218507    0.4908442697767502    0.4963117109088589    0.5199306761148832    
  0.49304808598867156    0.2949912510174139    0.10082479700443088    0.05022423993656024    0.10082477020432531    
  0.16122242324025124    0.34146472421147545    0.4808458135788163    0.4793519174616091    0.45265913554974213    
  0.45258354616419955    0.4455785559129702    0.4083328739561763    0.38457187795360886    0.4083328635732193    
  0.4455785546755982    0.45258356614529327    0.4526589360954296    0.47935197600790097    0.48084582554440636    
  0.3414646808713889    0.1612224151188849    0.10082477020432531    0.2949912237217471    0.34146470270323637    
  0.42185695420560226    0.42944359185442593    0.3822366219770217    0.35345415331231805    0.3617873485131226    
  0.384172741034523    0.3936884440339228    0.393160245145314    0.3936884970087464    0.38417273846667394    
  0.3617874415337891    0.35345411557443124    0.3822366779630447    0.4294435477204708    0.4218569779880371    
  0.3414647275239743    0.2949912237217471    0.4930480844469491    0.48084573018012927    0.4294435209458331    
  0.34856613595564256    0.2826897215019082    0.25602305617788307    0.2672222757951154    0.3015141385021202    
  0.3361404962079799    0.35021777591238534    0.3361404931545805    0.30151410511689225    0.26722228954800725    
  0.2560230671014762    0.2826897767239896    0.3485660665919025    0.4294436137528099    0.48084593842711515    
  0.4930480844469491    0.5199306114253596    0.4793518904071748    0.38223667905502445    0.28268975339937685    
  0.21751577714493528    0.19352693437705823    0.20454767575671395    0.2392523685161891    0.2775490801140464    
  0.29425493142824993    0.27754915625059906    0.23925235844229412    0.20454769268433343    0.19352688156134665    
  0.21751583106659092    0.28268970493823237    0.38223670388621306    0.4793519494454165    0.5199306114253596    
  0.49631179756527355    0.4526589777108907    0.3534542352995955    0.25602313579909003    0.1935269101611179    
  0.1711196916631277    0.18234443877389958    0.21670098165052792    0.2548187712259985    0.27149864279709657    
  0.25481875629659023    0.21670096093320382    0.18234452623940317    0.17111969026620308    0.193526933510178    
  0.25602305864121977    0.35345414441971235    0.4526589620760969    0.49631179756527355    0.490844259052033    
  0.45258350813309456    0.3617873303525086    0.26722233446791827    0.20454761439100225    0.1823444905341527    
  0.19457615006111406    0.2310651643394532    0.2720398713982204    0.29007303232836285    0.27203991496142466    
  0.231065131385982    0.19457616213489295    0.1823445135341337    0.20454764859149102    0.2672223150973725    
  0.3617874326936426    0.45258351119157025    0.490844259052033    0.465232649952975    0.4455784253805253    
  0.38417277893197793    0.3015141033447335    0.2392523458237591    0.21670101394840685    0.23106513311902607    
  0.2725072389191749    0.31905026065446607    0.3394173104580827    0.31905025495406886    0.27250717401829966    
  0.23106519880200613    0.21670094554235061    0.23925238018060244    0.3015141521645631    0.3841727321323792    
  0.4455785315540384    0.465232649952975    0.40277994254879157    0.40833277030193327    0.39368856449108514    
  0.33614057801750064    0.27754908404602757    0.2548187222721866    0.27203982150249023    0.3190502718463606    
  0.3713202915685375    0.39411893616651583    0.3713202367748475    0.31905023169260094    0.27203985213854187    
  0.25481873747074824    0.27754918645874027    0.33614042892053103    0.3936884658461052    0.4083328340117606    
  0.40277994254879157    0.36805752955600524    0.3845717549721754    0.39316009824101683    0.35021785230933566    
  0.2942548347244784    0.2714986555857905    0.29007301514334344    0.33941728631836077    0.3941189501197968    
  0.41808804546783035    0.3941190609007294    0.33941726856624393    0.2900730761759482    0.2714986232579798    
  0.29425502060185776    0.35021768996572544    0.3931601891027463    0.38457183325129296    0.36805752955600524    
  0.40277980007322917    0.40833282846960417    0.3936884894094124    0.33614050974919524    0.2775491205602046    
  0.2548188323720016    0.27203988322312544    0.3190502135818976    0.3713203017330278    0.3941189585195028    
  0.37132036574942123    0.31905024461526243    0.27203991034690334    0.2548187302972948    0.2775492356403949    
  0.33614042169895436    0.3936885226540815    0.40833282399943566    0.40277980007322917    0.4652326937889926    
  0.44557847627492314    0.38417268236657937    0.3015141923712734    0.23925239373587479    0.21670096143388434    
  0.2310650822802609    0.27250724221096473    0.31905018614057085    0.3394172831092786    0.31905020832827513    
  0.2725071889982479    0.23106516525560036    0.2167009322362442    0.23925237448666092    0.30151409371904664    
  0.3841726405128782    0.44557846231906484    0.4652326937889926    0.4908441703150933    0.45258344476287204    
  0.36178737633489855    0.2672223362246641    0.2045476436026313    0.18234450796688847    0.19457616886188342    
  0.23106517749365008    0.272039895772385    0.29007302198147994    0.2720399222373332    0.2310651825253621    
  0.19457615303927608    0.1823444596978234    0.20454767782074465    0.2672223124245956    0.3617874365949668    
  0.4525835270939832    0.4908441703150933    0.4963118045287662    0.45265899324897496    0.35345414120193697    
  0.25602317045332895    0.19352687294743093    0.17111969735961488    0.18234448663754724    0.21670098288540524    
  0.25481877612425974    0.2714985102244273    0.2548187699083101    0.21670100963734668    0.18234454350066343    
  0.17111965229882645    0.193526925578999    0.25602309360908265    0.35345417721435435    0.45265905420703056    
  0.4963118045287662    0.5199306100639751    0.479351918117333    0.3822366842663246    0.2826898160347184    
  0.21751580122030115    0.19352687992984904    0.20454760715938172    0.23925236808836423    0.2775491030339677    
  0.29425490921636693    0.2775491212380319    0.23925235808814702    0.20454771032865884    0.19352685436727327    
  0.21751585821390093    0.2826896821093287    0.3822366921517695    0.4793519056882897    0.5199306100639751    
  0.4930481158215508    0.48084578726901445    0.42944345866469047    0.34856615114097167    0.28268972883530624    
  0.25602312367867724    0.26722234204585144    0.3015141261807413    0.3361404830114743    0.35021779127420716    
  0.33614049007481556    0.3015141442600197    0.2672223368253868    0.2560231176107083    0.2826897352824129    
  0.34856602996931063    0.42944361934510966    0.48084583011760773    0.4930481158215508    0.2949912608941897    
  0.3414646836392636    0.42185697277776696    0.4294436069199037    0.38223660945499766    0.353454188979641    
  0.3617873756476978    0.38417273543135855    0.39368847706655    0.39316021459889927    0.3936885544524618    
  0.38417271966780453    0.3617873958303492    0.35345413761993527    0.38223670443795793    0.4294434953047119    
  0.42185703406031044    0.34146470470829965    0.2949912608941897    0.10082480097686744    0.16122243351040882    
  0.3414647225517677    0.4808459495865509    0.47935188220456365    0.4526590107405564    0.45258349761297795    
  0.44557854107934824    0.40833279893518176    0.3845717758817881    0.40833280965001645    0.44557852508753426    
  0.4525835091386119    0.4526589850646196    0.4793520934991601    0.4808458171057308    0.3414646803798161    
  0.1612224206581691    0.10082480097686744    0.05022423993656024    0.10082478353544672    0.2949911491138442    
  0.4930482880405366    0.5199305963415599    0.4963118889793777    0.4908441608801051    0.4652326993100732    
  0.40277984901356034    0.36805755761422504    0.4027798708555271    0.46523261591218507    0.4908442697767502    
  0.4963117109088589    0.5199306761148832    0.49304808598867156    0.2949912510174139    0.10082479700443088    
  0.05022423993656024    0.09708922897691288    0.15424929453421302    0.3213543603727287    0.4404363851535585    
  0.4242850954614595    0.3899106065588161    0.39218104569906237    0.41809752348363755    0.44084266701768    
  0.4481825994517589    0.4408426847842157    0.41809745957031347    0.3921810852661533    0.3899105204584852    
  0.42428516465157223    0.4404362797007344    0.32135449588025106    0.15424932047042397    0.09708922897691288    
  0.1602547845176002    0.21930440965504902    0.360224034649927    0.4301865066802016    0.3950728411290793    
  0.3589576737375249    0.3616754142714067    0.3897036564470527    0.4164316791038128    0.42600342634478483    
  0.4164316289773036    0.38970369258121673    0.3616755090242297    0.3589575324429694    0.3950729644054729    
  0.43018647006206795    0.3602240117012538    0.21930446835777273    0.1602547845176002    0.3598907944774988    
  0.39050283600305347    0.42562637777139667    0.391060519217086    0.325459781465338    0.2884942716123332    
  0.29158258968845147    0.32091997896297736    0.3529617938642106    0.366186956919989    0.352961843455832    
  0.3209199583886354    0.2915826745396187    0.2884942360404347    0.3254598186370806    0.39106041938342034    
  0.4256263537699404    0.39050291461401265    0.3598907944774988    0.5375026041110691    0.5121848126581501    
  0.43441815807400347    0.3327632471012829    0.25513810057382713    0.22032916927640953    0.22301711813872366    
  0.25022947706133947    0.2825220246344167    0.29687249940185384    0.2825220180451325    0.25022939232380365    
  0.22301710679621817    0.2203291746800437    0.2551381486027263    0.33276320473918725    0.4344181840419875    
  0.5121849965231916    0.5375026041110691    0.5697133423877758    0.5207358702065344    0.4057607883616203    
  0.28965585199670274    0.21292262845017643    0.1804128727707789    0.18280276751809038    0.20794776593162415    
  0.23811379249962997    0.25162824927727323    0.23811389637362804    0.2079477543772972    0.18280284250010112    
  0.18041284370542615    0.21292268468034528    0.28965580623050197    0.40576082165466126    0.5207359242154744    
  0.5697133423877758    0.5648254376370152    0.5148579913837713    0.3991570058120654    0.2835623543591402    
  0.2075173663577799    0.17549396194036612    0.17808104098599678    0.203250390464854    0.23338464702385525    
  0.24686094325228067    0.23338462696474005    0.2032503383713193    0.17808113848308427    0.17549396782559837    
  0.20751738133156072    0.28356222893774186    0.3991569501408979    0.5148580029808021    0.5648254376370152    
  0.5421158212591878    0.5092563838499639    0.4201707060008912    0.314528221452862    0.2376700336514444    
  0.20424148881122942    0.20745591189341564    0.2350316809057886    0.26810582051159976    0.2829063745767395    
  0.2681058866400161    0.23503164171433238    0.2074559278508293    0.20424152547946692    0.23767009919390764    
  0.31452815924106253    0.4201707653707468    0.5092563955850231    0.5421158212591878    0.41136286263604044    
  0.4250572863055142    0.42255368804657517    0.36349424170167943    0.29380400682107416    0.2587678461115755    
  0.2632021794925156    0.29491416642986584    0.33171618613984205    0.3477012181583952    0.33171620677609875    
  0.2949141446942099    0.26320224754299926    0.25876778257223965    0.2938040680243369    0.3634942555688736    
  0.42255365898134717    0.4250573746815375    0.41136286263604044    0.2352462378554511    0.28565894722262813    
  0.38203960122990077    0.4008968248400924    0.35072812991421537    0.3159016754433621    0.3216438411414884    
  0.35664132166106044    0.3956253294259653    0.4120712012209982    0.39562526788767405    0.35664130137712236    
  0.32164392235306033    0.3159015840484322    0.350728208655193    0.4008966140096106    0.3820395632156017    
  0.28565896996103013    0.2352462378554511    0.16796978389030356    0.22462332834890805    0.3547245882104065    
  0.4127100469868078    0.37484577271078456    0.34086554497215266    0.34712701455497413    0.3829170218176118    
  0.4223329077604637    0.4388832031785743    0.4223329173337717    0.3829169810524725    0.3471270672968525    
  0.34086546375783233    0.3748459460365941    0.4127098780342452    0.3547246984483936    0.2246234070792334    
  0.16796978389030356    0.23524616148394392    0.28565891687853934    0.38203959017122047    0.4008967244645727    
  0.3507281736453029    0.31590170128539935    0.3216438716630978    0.35664133114195046    0.39562532734175443    
  0.41207124960444713    0.395625402573994    0.3566413336867382    0.3216439055039409    0.31590160422083136    
  0.3507282372699009    0.4008966017662465    0.38203964188955586    0.2856589811869454    0.23524616148394392    
  0.4113628644583202    0.4250574377303968    0.4225536578670174    0.3634943008782034    0.2938040622206798    
  0.2587677989629852    0.26320212959778194    0.29491417315823887    0.3317161146785074    0.34770125359329107    
  0.33171617046191015    0.29491413065634214    0.26320216320554246    0.25876780710753805    0.2938040626884862    
  0.3634942164783134    0.42255356190487847    0.42505733411418073    0.4113628644583202    0.542115762684622    
  0.509256273333653    0.4201707352198177    0.31452816889672314    0.2376700715065764    0.20424152748802532    
  0.20745595489466884    0.23503168114557424    0.2681059067962737    0.2829063649121992    0.26810588842707606    
  0.23503167038373138    0.20745592023045337    0.20424149951406903    0.2376700887134025    0.31452813869561547    
  0.4201708275952985    0.509256433076951    0.542115762684622    0.5648254536891387    0.5148579990514829    
  0.39915694060563184    0.2835623322244423    0.20751731062203047    0.17549397404314004    0.17808107049371594    
  0.20325040345980033    0.23338461985808456    0.2468608812114011    0.23338463928206504    0.20325038431996043    
  0.17808111506571514    0.17549393923118248    0.2075173623020646    0.2835622707263745    0.3991569766476459    
  0.514858044141189    0.5648254536891387    0.5697133814743546    0.5207358700717286    0.405760818397554    
  0.28965590039188616    0.21292261694893705    0.18041285793144127    0.1828027537974143    0.20794774739047217    
  0.23811390628002635    0.2516282286188274    0.23811384445255174    0.20794773342891554    0.18280283203970496    
  0.18041282606519296    0.21292272340182894    0.2896557662992919    0.40576071787058055    0.520735844035252    
  0.5697133814743546    0.5375026017071108    0.5121848743833819    0.4344179831518364    0.3327632838160805    
  0.2551380966913123    0.22032920179227486    0.22301712466407633    0.25022944072111875    0.2825220179707617    
  0.2968725698746636    0.28252204098832645    0.2502294178041186    0.22301710311915723    0.22032920954288138    
  0.25513811540670384    0.3327631997134999    0.43441820478174403    0.5121849370372187    0.5375026017071108    
  0.3598908162009287    0.3905028000696869    0.42562641631701154    0.3910605304134314    0.32545971114833755    
  0.2884943349931564    0.29158259594810293    0.32091994308281707    0.3529617521002651    0.3661869776084386    
  0.3529618702614906    0.32091994834104043    0.2915826640009271    0.2884942163840753    0.3254598097352828    
  0.39106040550045373    0.4256264119824616    0.39050283725692425    0.3598908162009287    0.16025483001126042    
  0.21930443551519516    0.3602239796565944    0.43018656235488484    0.3950728958134415    0.3589576009234627    
  0.3616753526113548    0.38970362413851073    0.4164316413948832    0.42600343480172664    0.4164316740092505    
  0.38970359311166225    0.3616754644369227    0.3589575569516672    0.3950730039151106    0.4301864928049026    
  0.3602239797638608    0.21930444516051825    0.16025483001126042    0.09708922897691288    0.15424929453421302    
  0.3213543603727287    0.4404363851535585    0.4242850954614595    0.3899106065588161    0.39218104569906237    
  0.41809752348363755    0.44084266701768    0.4481825994517589    0.4408426847842157    0.41809745957031347    
  0.3921810852661533    0.3899105204584852    0.42428516465157223    0.4404362797007344    0.32135449588025106    
  0.15424932047042397    0.09708922897691288    0.26871726613856634    0.3110224409761125    0.3826917074820528    
  0.3822160083242659    0.33057709560333814    0.30080280681128235    0.31245155201460295    0.35502256274132754    
  0.40324880165912974    0.42433530074570003    0.4032488144721878    0.3550225007737086    0.312451562954369    
  0.3008026709136863    0.330577171259449    0.3822158828451644    0.38269175427348295    0.31102248280702416    
  0.26871726613856634    0.3263852265147252    0.3570138707066981    0.3959218487345916    0.36891677241868653    
  0.310677728381239    0.2806562409265946    0.2912404676128499    0.33182573185184777    0.3779720526069184    
  0.39807955705473075    0.3779720291785475    0.33182572424226464    0.29124054978138636    0.28065615925560555    
  0.310677831449227    0.3689167631620001    0.39592190595875226    0.357013863531754    0.3263852265147252    
  0.451772189783569    0.44678161992162585    0.40897083025833514    0.33273498649707167    0.2643220562563206    
  0.2344193238225947    0.24271888268653427    0.27822063928830904    0.31933470780475204    0.33740107060959246    
  0.319334772454216    0.2782205783584709    0.24271897784912438    0.23441925490369023    0.26432204081602867    
  0.3327348444476229    0.40897079928666635    0.4467816525249419    0.451772189783569    0.5263762913147746    
  0.4887440970215881    0.3949132427898415    0.29181277076734075    0.22025546817859398    0.19128066643902866    
  0.19782422477187245    0.22851495252371645    0.26439138714908833    0.28034219361008267    0.2643914443545658    
  0.22851489636736502    0.19782419047964642    0.1912806578208663    0.22025553878125465    0.2918127142843501    
  0.39491329831787625    0.48874429658702767    0.5263762913147746    0.5390074364156697    0.49089580703052743    
  0.3807873402235826    0.2718213502015391    0.20076782357022885    0.17225670977821825    0.17789827901308441    
  0.20620583693324201    0.2389816857304854    0.2534805006530057    0.2389817834341848    0.2062058126653788    
  0.17789834318017808    0.1722566575268175    0.20076792157970683    0.2718213018336667    0.38078735964673405    
  0.49089590784909565    0.5390074364156697    0.5535873710653114    0.5080135150232483    0.399723543730025    
  0.289314133901226    0.21635162050390866    0.1865644023292722    0.19178936667425264    0.22012985830320242    
  0.253013851217719    0.26759782485658157    0.2530138215230865    0.22012978109704756    0.19178945033861552    
  0.1865643918499657    0.21635159610446728    0.28931398490731547    0.39972349340325525    0.5080134898975411    
  0.5535873710653114    0.518461992138682    0.5008140680533711    0.43705897346018335    0.34451342752393577    
  0.27077233240819726    0.2381820959643092    0.24350518238103733    0.27305210368605454    0.3061066386815519    
  0.32037072145883405    0.3061066918073388    0.27305202893732927    0.24350516803017136    0.23818211368444886    
  0.2707723833373782    0.34451343004455137    0.43705904191588174    0.5008141916950067    0.518461992138682    
  0.316858845591381    0.35861823187332104    0.42342040424779953    0.4135382412066976    0.3562038989689814    
  0.32125175281114554    0.32569266708499744    0.35260109591621697    0.3766386398385097    0.38488335009567237    
  0.3766386528158584    0.35260104493578515    0.3256926747906392    0.32125169415371047    0.3562039934793958    
  0.41353823079363855    0.4234204042608955    0.3586183291397051    0.316858845591381    0.11567694247577022    
  0.17586907455509593    0.34325121056770674    0.4567480450169062    0.439736879428579    0.40640166888614637    
  0.4075076242390632    0.4231253868621386    0.4260445511984285    0.42249583872265495    0.4260444845200837    
  0.423125371979336    0.4075076464136728    0.4064015799405179    0.43973703205317216    0.45674782130418307    
  0.3432511567246133    0.17586907236272242    0.11567694247577022    0.060746003349663416    0.11312349965675977    
  0.29782094405276094    0.46666963344738793    0.4746103453021565    0.44392879184814193    0.4428187362527771    
  0.45025942870536523    0.44039515905870735    0.430392602009571    0.44039515926567596    0.4502594682557032    
  0.4428188157852853    0.44392871777537635    0.47461059436139574    0.46666951332817286    0.2978209962911416    
  0.11312354215519756    0.060746003349663416    0.11567690689302257    0.17586903534153914    0.34325122928120094    
  0.4567479325223331    0.4397368895323239    0.40640175294263664    0.40750759561740285    0.42312546273589347    
  0.4260445359816975    0.4224958672737903    0.4260446083151528    0.4231254181417339    0.40750767632875984    
  0.4064016232492419    0.4397369715421227    0.4567478739975824    0.34325128128971577    0.17586907883880806    
  0.11567690689302257    0.31685888823647196    0.3586183344502878    0.42342040818199317    0.41353825067051664    
  0.3562039322225265    0.32125165880493567    0.3256926293813525    0.35260103719747143    0.3766385419026546    
  0.38488330319606706    0.37663860110381936    0.35260098000426093    0.32569264813702126    0.3212517316784783    
  0.35620398289749655    0.41353816443811686    0.4234203222248897    0.35861826961094195    0.31685888823647196    
  0.5184619526490543    0.5008140413157847    0.43705902895502213    0.34451340627500904    0.27077233743242207    
  0.23818210596705375    0.24350519190219164    0.27305208408609566    0.30610663456332554    0.32037069121217776    
  0.30610671658302085    0.2730520799642627    0.24350519880040322    0.23818209833696197    0.2707724224208941    
  0.3445133963995491    0.43705907290955315    0.5008141437712256    0.5184619526490543    0.5535873306291677    
  0.5080134575667737    0.39972348614947245    0.289314084059383    0.2163515394753924    0.18656443495219194    
  0.1917893914788559    0.22012985082002204    0.25301378716067785    0.2675978007692604    0.25301383464341043    
  0.22012984781047984    0.19178948260025594    0.1865643983305272    0.2163516415274799    0.2893140140442258    
  0.39972348826764625    0.5080135685023167    0.5535873306291677    0.5390074807358073    0.49089581751724043    
  0.38078731183635184    0.27182134910647654    0.20076787618805708    0.1722566945471757    0.17789824244331573    
  0.2062058207461838    0.23898178574633697    0.25348047894886994    0.23898173084710805    0.20620578352157665    
  0.1778983358510964    0.17225667925510463    0.20076793805857757    0.2718212346634921    0.3807873233914896    
  0.49089573691706784    0.5390074807358073    0.5263764675630155    0.48874420344057357    0.3949132008829607    
  0.2918128150512896    0.2202555137539041    0.19128064069261752    0.19782419224630313    0.22851497533296145    
  0.26439141955646894    0.2803422336924181    0.26439143405887666    0.2285148772424815    0.19782416633444042    
  0.19128066264334526    0.22025552379815586    0.29181271712609586    0.3949132719928491    0.48874421831183135    
  0.5263764675630155    0.4517722175124265    0.44678162288650164    0.40897085847836845    0.33273487215961095    
  0.2643220225673176    0.2344193696444964    0.2427188771437777    0.2782205834963516    0.31933473110427946    
  0.3374011152089977    0.31933477447998754    0.27822062381557416    0.2427189474342809    0.23441928385127322    
  0.2643221017163696    0.3327348002003404    0.4089709232607675    0.4467815993901793    0.4517722175124265    
  0.32638526389648487    0.35701387844224647    0.3959218511972817    0.36891684345221026    0.31067778919842554    
  0.28065623978881515    0.29124049504869687    0.33182565482901927    0.3779719905836792    0.3980795190155591    
  0.3779719781636847    0.33182568474203455    0.2912405333117084    0.2806562075345705    0.31067792745604467    
  0.36891681099396567    0.39592185234764127    0.3570138866222438    0.32638526389648487    0.26871726613856634    
  0.3110224409761125    0.3826917074820528    0.3822160083242659    0.33057709560333814    0.30080280681128235    
  0.31245155201460295    0.35502256274132754    0.40324880165912974    0.42433530074570003    0.4032488144721878    
  0.3550225007737086    0.312451562954369    0.3008026709136863    0.330577171259449    0.3822158828451644    
  0.38269175427348295    0.31102248280702416    0.26871726613856634    0.43039090375619876    0.4224974398281181    
  0.3848817118983834    0.3203721842321627    0.26759646732390463    0.2534818540191553    0.2803408526673679    
  0.33740247902657067    0.3980779585592072    0.42433690268057    0.3980779784664398    0.3374024943786918    
  0.28034088819240466    0.253481733806537    0.26759649671266106    0.32037207884496965    0.38488176739307484    
  0.4224974506547886    0.43039090375619876    0.4403968325652037    0.4260429180683575    0.3766401133457475    
  0.3061052969658465    0.2530150478816307    0.2389805344625589    0.26439266946498896    0.3193334045458549    
  0.3779735508738377    0.4032472445527858    0.37797353896541214    0.3193334114127816    0.26439275283902536    
  0.2389804677041301    0.2530151097967816    0.3061052794787345    0.37664020150399674    0.42604289920241606    
  0.4403968325652037    0.45025780342841815    0.42312702940731917    0.3525995265153154    0.2730534682877063    
  0.2201286095795635    0.2062070001469918    0.228513651359992    0.27822195035115893    0.3318241646772359    
  0.3550240514702423    0.3318242054964554    0.2782219280632642    0.22851375383342673    0.20620692502963495    
  0.2201286230203719    0.2730533501432311    0.3525994824806676    0.4231270359786767    0.45025780342841815    
  0.44282029040662435    0.40750591242322703    0.3256940838976566    0.24350395344358214    0.19179051284063947    
  0.1778972098907503    0.1978253704143475    0.24271772156819485    0.29124187177845123    0.3124501098698701    
  0.29124192009504263    0.2427176264780132    0.19782532540258044    0.17789720250953353    0.191790592816392    
  0.24350388458002675    0.3256941411515298    0.40750604145845054    0.44282029040662435    0.4439270594778835    
  0.4064032164533195    0.3212502931625932    0.23818342176328203    0.18656322565870237    0.17225780508493083    
  0.1912794925130207    0.23442061909630832    0.28065481345696214    0.30080409104827516    0.2806549139768987    
  0.23442054301421847    0.19127954610705467    0.17225773882779555    0.18656330570220114    0.2381833710164651    
  0.3212502965956381    0.4064033097380656    0.4439270594778835    0.47461228996860694    0.4397352926626514    
  0.3562055392586091    0.27077113165668293    0.21635281113483718    0.20076674846329876    0.22025667982727257    
  0.26432077379010915    0.31067923050300167    0.3305756826158256    0.31067921404438537    0.2643207068144746    
  0.22025677632694862    0.20076671417359693    0.21635281332588113    0.27077100793527126    0.35620544715206587    
  0.43973523408239007    0.47461228996860694    0.46666787222899603    0.45674949878430887    0.41353660055071256    
  0.3445149183171839    0.2893126019142903    0.271822617280126    0.29181137264259666    0.33273634226236176    
  0.3689152421079659    0.3822174500554378    0.36891528397703605    0.33273627694071095    0.2918113940018212    
  0.27182263962602154    0.2893126425763547    0.34451488399630364    0.41353663652073697    0.4567495297541696    
  0.46666787222899603    0.2978223915236059    0.3432496776180046    0.4234219462943123    0.43705741083843286    
  0.3997249937837337    0.38078584113133224    0.3949147821475257    0.4089693346308893    0.3959233634295228    
  0.3826902610838922    0.39592341616663557    0.40896931826245747    0.3949148399825562    0.38078574905967666    
  0.39972506678815467    0.4370574033768961    0.42342199535868685    0.34324971947968497    0.2978223915236059    
  0.11312259004527012    0.17587021794418603    0.3586168223043981    0.5008160011373776    0.508011723365251    
  0.4908975770920563    0.488742538479165    0.4467832019441375    0.3570124191502722    0.3110238684655596    
  0.3570123363579539    0.4467832396647277    0.48874255007632417    0.49089746506964976    0.5080118866419242    
  0.500815838265701    0.3586167884260809    0.17587020881070442    0.11312259004527012    0.06074676126675839    
  0.11567590450852663    0.3168602505740581    0.5184602894154389    0.5535890750455541    0.5390057161373326    
  0.5263781791727732    0.45177055992777315    0.3263866282653733    0.26871594287151745    0.32638668318195363    
  0.45177051256308454    0.526378246037669    0.5390055958643958    0.5535892666736061    0.5184601540999615    