#     DFTpy    
  CRYSTAL 
    
  PRIMVEC    
  4.041513641989976    -2.2204864e-10    4.208771751724138e-10    
  -2.2204864e-10    4.0415136417551345    2.0279897379310347e-10    
  7.690999724137931e-10    3.706511448275862e-10    7.404131319212962    
  PRIMCOORD    
  4    1    
  Si    2.020756820917989    2.0207568219896537    2.2752469771691106    
  Si    7.493487677761423e-10    -6.935122967120094e-10    1.4268186799484597    
  Si    1.1493248786224365e-10    5.237673983173166e-10    5.977312635064822    
  Si    2.0207568215238574    2.020756820454479    5.128884346867206    
  BEGIN_BLOCK_DATAGRID_3D    
  3d_datagrid_density    
  BEGIN_DATAGRID_3D#0    
  19    19    33    
  0.0    0.0    0.0    
  4.041513641989976    -2.2204864e-10    4.208771751724138e-10    
  -2.2204864e-10    4.0415136417551345    2.0279897379310347e-10    
  7.690999724137931e-10    3.706511448275862e-10    7.404131319212962    
  0.21175350231905593    0.1989997353522095    0.16650124467189448    0.12671639586204422    0.09091024280378295    
  0.0643807251814717    0.047070366426411644    0.036865606601011805    0.03160646349386017    0.029978860351561096    
  0.03160646079235987    0.036865606867433905    0.04707036097852504    0.06438072065916163    0.09091026028750564    
  0.12671642543806955    0.16650122517853497    0.19899974298449458    0.21175350231905593    0.1989997896988259    
  0.18723353575749593    0.15721472730743405    0.12031356144049973    0.08695050816805015    0.062135890515207286    
  0.04586864097824853    0.03621753795309528    0.0312262015406071    0.029682942529865378    0.03122621408779499    
  0.03621754315921777    0.045868640281932556    0.06213588395192229    0.08695047529910072    0.12031355175182877    
  0.1572147336369536    0.18723348767870476    0.1989997896988259    0.16650121781990332    0.15721476557434674    
  0.1334056421285304    0.10383251205240739    0.07671371706135612    0.05627119188472369    0.042687461185742556    
  0.03450552327094057    0.03024002434569413    0.028926367376180873    0.030240033238610586    0.03450552026824825    
  0.042687471331738266    0.05627117033492766    0.07671374354773731    0.10383251169970699    0.13340565683458017    
  0.1572147587475147    0.16650121781990332    0.1267163808724477    0.12031356859919501    0.1038325274921495    
  0.0830932463771977    0.06367528747390698    0.04871940911537844    0.038574404164008605    0.03234090833065317    
  0.029061039608885855    0.02805578564455115    0.029061032272624306    0.03234090927656961    0.03857439718650595    
  0.04871940779182323    0.063675301246134    0.0830932625103387    0.10383249859551681    0.12031356043369065    
  0.1267163808724477    0.09091023262922258    0.08695052089479113    0.0767137243845431    0.06367527846904467    
  0.0512168626774308    0.04138541746304486    0.03457565363780001    0.03033792889208592    0.02811438503317799    
  0.027442998376234373    0.028114387557738728    0.030337916791900274    0.034575658995974735    0.04138542081253565    
  0.05121687371111417    0.06367529400911831    0.07671371769289963    0.08695051016435486    0.09091023262922258    
  0.06438072998215166    0.06213589508597798    0.056271168976038524    0.048719387870735494    0.04138541832368784    
  0.03547853258435794    0.0313708052022803    0.02887624504874189    0.027626286095348094    0.027263046600496044    
  0.027626303308451425    0.028876245702714652    0.03137079635954562    0.035478539232134565    0.04138541721515461    
  0.048719397310281916    0.05627117374818102    0.0621358908487957    0.06438072998215166    0.047070365547857825    
  0.045868664248670865    0.042687469743912826    0.0385743960410686    0.03457566793881633    0.03137082854696902    
  0.029252312338706683    0.02811595835286498    0.027624970823034785    0.027493486841992727    0.02762497145172859    
  0.02811594115082915    0.029252335298535215    0.031370822651529066    0.03457567448679739    0.03857439617211125    
  0.04268746439960207    0.045868658937204085    0.047070365547857825    0.03686560374296232    0.03621754165198488    
  0.034505524979207135    0.03234090050079146    0.030337928164480894    0.028876254850899983    0.028115933634012054    
  0.02792924879075952    0.02797672430338693    0.028010483869634072    0.027976733333029365    0.027929241785453963    
  0.028115949522586656    0.028876232090591952    0.030337922811118186    0.03234092082878922    0.0345055229423747    
  0.03621753092721478    0.03686560374296232    0.03160646440964811    0.031226215516899244    0.030240012934983466    
  0.029061020077314474    0.028114388965489574    0.02762629943439162    0.027624969243089815    0.027976742942282237    
  0.028377641940114762    0.02854197134280259    0.028377653473873412    0.027976722198623245    0.027624955820826486    
  0.027626294353620837    0.02811439320670279    0.029061032250983734    0.0302400181652199    0.03122621505715687    
  0.03160646440964811    0.029978859489556642    0.029682937316886173    0.028926362053794966    0.02805577539695401    
  0.02744299098475065    0.027263063094479293    0.02749347843495742    0.02801048121493887    0.028541984511352758    
  0.028763384441023    0.028541964756694814    0.028010484092241467    0.027493474578333368    0.02726305021278682    
  0.02744299983153394    0.028055783137276004    0.028926362352264593    0.029682948549845902    0.029978859489556642    
  0.03160645877144155    0.03122622459637799    0.030240008906632688    0.02906102471587373    0.02811438400768582    
  0.02762631050225075    0.02762496084231471    0.02797673434404353    0.028377651228787625    0.028541978464768795    
  0.028377660458165074    0.02797674450101836    0.027624963311514764    0.02762630873099414    0.028114381286689635    
  0.02906103157306775    0.030240010916063636    0.031226208634330104    0.03160645877144155    0.03686560850750517    
  0.0362175512490154    0.03450551127079407    0.032340901285517774    0.03033792439970015    0.028876246229561985    
  0.028115936381805106    0.027929249343131974    0.02797672677486679    0.028010492345956827    0.027976743540225568    
  0.02792922759523833    0.028115946931440625    0.02887624133472571    0.030337918855039073    0.03234089816966169    
  0.034505517191121854    0.036217537690636604    0.03686560850750517    0.047070362549436445    0.04586866135560527    
  0.04268746601294197    0.038574393416028425    0.03457566576523747    0.0313708154608392    0.029252314001706917    
  0.028115950203834783    0.027624971267582156    0.027493474855176732    0.027624968489148284    0.028115942658663403    
  0.029252320572491948    0.031370815626866964    0.03457567823081068    0.03857439778158793    0.042687460354130895    
  0.04586866707588771    0.047070362549436445    0.06438071926534941    0.062135910427281435    0.05627117253934845    
  0.04871939868196859    0.04138542309964847    0.035478540024903124    0.03137080843364697    0.028876243869957238    
  0.027626309726585762    0.02726305559265553    0.0276263108790316    0.02887624510148473    0.031370808789598637    
  0.03547853845966156    0.04138541871038575    0.04871939878267004    0.056271176368270545    0.06213588165294459    
  0.06438071926534941    0.09091024814224719    0.08695050963587644    0.07671370222915776    0.0636752763317707    
  0.05121687787754588    0.04138540982700526    0.03457566410283972    0.030337918858011965    0.02811437906917922    
  0.027442984047566107    0.028114385896072284    0.03033791738079043    0.03457566153529999    0.0413854131484698    
  0.05121687391748631    0.0636752907953794    0.07671370721895181    0.08695050223736729    0.09091024814224719    
  0.12671640285229271    0.12031357941651805    0.10383252065643256    0.08309325125074835    0.06367530477175633    
  0.048719411271440395    0.038574397076857274    0.032340917422800194    0.029061030250087733    0.028055786583894918    
  0.029061032427222758    0.03234091660318638    0.03857439617362597    0.04871940285454658    0.06367530534770435    
  0.08309325107904886    0.10383254017048561    0.12031360005797283    0.12671640285229271    0.16650124472728173    
  0.15721474622945744    0.1334056561930305    0.1038324896541825    0.0767137261444433    0.05627118379312198    
  0.0426874615137278    0.0345055287522418    0.03024002827212555    0.028926368989840023    0.030240030633430153    
  0.03450553409114035    0.04268746384530058    0.056271183222905856    0.07671370234111415    0.10383254166820274    
  0.13340567622929897    0.1572147212088656    0.16650124472728173    0.19899970567802816    0.18723351078479325    
  0.1572146993639331    0.12031355255701062    0.08695049359852086    0.06213588843698706    0.045868660411724285    
  0.036217530411661265    0.03122620677509271    0.029682935070225548    0.031226211211928173    0.036217536614318105    
  0.045868636215038464    0.062135878784927066    0.0869504992603482    0.12031357484497844    0.15721473473607886    
  0.1872335179124573    0.19899970567802816    0.21175350231905593    0.1989997353522095    0.16650124467189448    
  0.12671639586204422    0.09091024280378295    0.0643807251814717    0.047070366426411644    0.036865606601011805    
  0.03160646349386017    0.029978860351561096    0.03160646079235987    0.036865606867433905    0.04707036097852504    
  0.06438072065916163    0.09091026028750564    0.12671642543806955    0.16650122517853497    0.19899974298449458    
  0.21175350231905593    0.24410675684508346    0.2291438373037235    0.19078048131378222    0.14369617166461696    
  0.10145871931088454    0.07037360497161459    0.050294789930648204    0.03859490354512647    0.0326593417298138    
  0.030852917578585944    0.032659344589287514    0.03859489881023775    0.050294784683649174    0.07037360629349462    
  0.10145871730981247    0.14369620309976905    0.19078045821056366    0.2291438121090858    0.24410675684508346    
  0.22914382058173807    0.21528169509636577    0.1797646961210682    0.13615117851446804    0.09688875912112822    
  0.0678408889860455    0.04896793740617871    0.037914066346227106    0.032284506101258596    0.030568681904719286    
  0.03228451560064419    0.03791408005615748    0.04896793611186953    0.06784087943372753    0.09688873482823515    
  0.13615115163860886    0.17976471980471173    0.21528166981264174    0.22914382058173807    0.19078048507036446    
  0.17976472055494247    0.1515489641463902    0.11672012557545301    0.08499835691706907    0.06117067456910686    
  0.04545722603369242    0.036130680384883415    0.031334444456682604    0.02986466934633924    0.031334445758762854    
  0.03613067863742649    0.045457222048311235    0.06117067886098319    0.08499833822778004    0.11672014593398028    
  0.1515489646181185    0.17976467805517288    0.19078048507036446    0.1436961773031582    0.13615120118122848    
  0.1167201509592833    0.09242463230019823    0.0698646171323549    0.052561773894719464    0.040925953696881484    
  0.033898469699769555    0.03023870038332041    0.02911077224686998    0.030238688735390453    0.03389845998425994    
  0.04092595086430473    0.052561755874858285    0.06986462320786091    0.09242464487515482    0.1167201325286281    
  0.13615118344891802    0.1436961773031582    0.10145870185240419    0.09688875299564745    0.08499836464239882    
  0.06986458923507986    0.05551438286636701    0.044282479994407264    0.036596005285252795    0.03189645805204782    
  0.029444863359152834    0.028691776325466285    0.029444867289861565    0.031896449107008944    0.0365960009383506    
  0.04428249615201406    0.05551437153475039    0.06986459572627868    0.08499833668004812    0.09688872410581928    
  0.10145870185240419    0.07037360451978622    0.06784089586888836    0.0611706620555077    0.05256174157804708    
  0.04428250220913345    0.03772468613727584    0.03323339971552065    0.030544903313033448    0.029199397500108713    
  0.028804082472584147    0.029199402070708234    0.0305448927323642    0.03323340095817724    0.037724689267827016    
  0.044282485210701404    0.05256175224652259    0.06117067550634043    0.06784088745405495    0.07037360451978622    
  0.0502947964485986    0.048967965060361635    0.04545723389869881    0.040925947453504974    0.0365960140328233    
  0.03323341167147968    0.031077444353289317    0.029957771027608358    0.02951147040851233    0.029405775641041763    
  0.029511465060540434    0.02995776518919246    0.03107745254576699    0.03323340985473593    0.036596019093086324    
  0.040925939195951555    0.04545722040186919    0.048967952600610445    0.0502947964485986    0.038594897531805325    
  0.03791407279234323    0.036130678586685915    0.03389845435551988    0.0318964574495686    0.030544897981745662    
  0.02995774538529919    0.029956365921044364    0.030173119698941202    0.030284505814044366    0.030173119152227104    
  0.02995636994055842    0.029957748205491665    0.030544886395863308    0.03189644564769386    0.033898473516348254    
  0.0361306741795891    0.037914061443045516    0.038594897531805325    0.032659344732609105    0.03228451692153678    
  0.03133444345839896    0.03023868364815331    0.02944487602460178    0.029199387687268215    0.029511461095744845    
  0.030173125352813746    0.03081326598107656    0.03107244038675139    0.03081327254113863    0.030173122056941042    
  0.0295114570472526    0.029199402190233526    0.02944486919253293    0.030238691033771376    0.031334443626698766    
  0.032284509021116924    0.032659344732609105    0.03085291713167317    0.03056867795269577    0.029864667582088417    
  0.02911076853723803    0.028691773064702344    0.028804083033579737    0.029405759777380032    0.030284516038402667    
  0.031072447313874516    0.03138821131174186    0.031072446799100283    0.030284513886090034    0.029405772726584786    
  0.028804081470338184    0.02869177990497197    0.029110772166704674    0.02986466489013225    0.030568688321432027    
  0.03085291713167317    0.03265934210696352    0.032284521516473444    0.031334430089572034    0.03023868009884971    
  0.0294448642020948    0.029199408115213394    0.029511450767859822    0.030173119871652936    0.030813259944457737    
  0.031072453033448074    0.030813268070583755    0.030173135051746874    0.029511453208637    0.02919941120458818    
  0.029444868367000096    0.03023869371785662    0.03133442660212459    0.032284505235041304    0.03265934210696352    
  0.03859489729182207    0.03791408495894619    0.03613067563731874    0.03389845787508412    0.03189645510100662    
  0.03054489639624614    0.02995773835802756    0.0299563570812752    0.030173117686230475    0.030284509158639568    
  0.030173131962341216    0.029956366079671594    0.02995774224952401    0.03054489286710561    0.031896454195387385    
  0.03389846197984893    0.03613067982550065    0.03791407061625549    0.03859489729182207    0.05029478602684434    
  0.048967949515059526    0.04545722834247825    0.04092594254634244    0.036596012612546434    0.03323340964959587    
  0.03107745197582924    0.029957768312894182    0.02951147289400294    0.029405768123467388    0.029511453710454483    
  0.02995774451852225    0.03107743901169558    0.03323340094328989    0.036596023043140066    0.04092593797346338    
  0.04545721762468843    0.048967951550733635    0.05029478602684434    0.0703735968667957    0.06784089022239877    
  0.06117067437690855    0.05256175036302862    0.04428249406835161    0.037724697571086506    0.03323339531640316    
  0.03054488244587201    0.029199406187868225    0.02880408226111796    0.02919940312077931    0.030544889686565133    
  0.03323339936355723    0.03772470136922875    0.04428247751443586    0.05256174827697747    0.06117068229672952    
  0.06784086896164544    0.0703735968667957    0.10145871029514122    0.09688874318128006    0.08499835220984989    
  0.06986460639454052    0.05551439029511687    0.0442824831690472    0.036596020987990384    0.031896453869894474    
  0.02944486344256987    0.028691765880955608    0.029444867158764168    0.03189644840934688    0.03659599939307513    
  0.044282474508469054    0.0555143863521361    0.06986460332033723    0.08499833609934154    0.09688873055509482    
  0.10145871029514122    0.14369619104345158    0.13615119485771227    0.11672013604449702    0.0924246270629898    
  0.06986461124666474    0.05256175760572144    0.04092593928206561    0.033898472561043794    0.03023869507556569    
  0.029110773901607018    0.030238687271278684    0.03389846784408246    0.04092594947421645    0.05256175783146989    
  0.06986463631872036    0.09242462928427767    0.11672014491598934    0.13615119678311471    0.14369619104345158    
  0.19078047747182966    0.17976470518727558    0.1515489583447546    0.11672012465852773    0.08499836417919099    
  0.061170675288844185    0.04545722338026998    0.03613069245363921    0.03133444549448148    0.02986467559874652    
  0.03133445146719565    0.0361306924842258    0.04545721990874505    0.06117068131650668    0.08499833745104517    
  0.11672014221477144    0.1515489310254719    0.17976466474253797    0.19078047747182966    0.22914381340158366    
  0.21528169464550895    0.1797646805345445    0.1361511801611746    0.09688872219083555    0.0678408710643908    
  0.048967952872975964    0.037914074271073205    0.03228450953649936    0.03056867469653698    0.03228450604070717    
  0.037914068820516865    0.04896794146393553    0.06784086740097464    0.09688874013423597    0.13615119330737932    
  0.17976472957068043    0.21528168431687916    0.22914381340158366    0.24410675684508346    0.2291438373037235    
  0.19078048131378222    0.14369617166461696    0.10145871931088454    0.07037360497161459    0.050294789930648204    
  0.03859490354512647    0.0326593417298138    0.030852917578585944    0.032659344589287514    0.03859489881023775    
  0.050294784683649174    0.07037360629349462    0.10145871730981247    0.14369620309976905    0.19078045821056366    
  0.2291438121090858    0.24410675684508346    0.33684906649541596    0.3175356971476925    0.2650986871673599    
  0.19705859904636538    0.13452674625146363    0.08879349635274426    0.06002413955078504    0.0437653391552344    
  0.03577087011668041    0.033404350169426285    0.035770871111383246    0.043765337630372075    0.06002413750069834    
  0.08879348574826582    0.13452675767197952    0.19705863281715283    0.26509868664001196    0.31753568283333794    
  0.33684906649541596    0.31753571066080366    0.2990585370256911    0.2495104181743438    0.18601291249666124    
  0.1279216722496085    0.08528973906240442    0.05831169255042991    0.04299863791333249    0.03543758186717748    
  0.03318739227776844    0.03543758938144599    0.042998649988558124    0.058311689291608404    0.08528971704711873    
  0.12792164612438645    0.18601288946542383    0.2495103905463831    0.29905849120112166    0.31753571066080366    
  0.26509866491936396    0.24951048845669654    0.20860431882109917    0.1573214473394953    0.11067874552788855    
  0.07609422680538848    0.053849568260387934    0.041057004492849575    0.034653201461574065    0.03271953822173884    
  0.03465320765951226    0.041056995534166696    0.0538495700164654    0.07609421740835451    0.11067876603898695    
  0.1573214654897573    0.20860432803328147    0.24951042483020916    0.26509866491936396    0.19705857228200183    
  0.18601290208705037    0.15732149937538262    0.12159673926958332    0.08895418409782341    0.06435660758237799    
  0.0481968810677392    0.03873445657686524    0.033912717290450235    0.03242990547865212    0.03391270049935177    
  0.03873445673181568    0.04819687729979301    0.06435659411628133    0.08895418420173413    0.12159678293736671    
  0.15732145748452137    0.18601290974746348    0.19705857228200183    0.13452672153272774    0.1279216877992683    
  0.11067873752951525    0.08895417147314404    0.06878730214387457    0.05332248247912879    0.0429811307178418    
  0.036858373169982056    0.03372002954090513    0.03275079813288709    0.03372003208189126    0.03685837002295263    
  0.04298113996200875    0.05332248926316055    0.0687873146901711    0.08895418275648688    0.11067874176770234    
  0.12792165726222957    0.13452672153272774    0.08879349488643118    0.08528974785490068    0.07609421265615246    
  0.06435657996051539    0.053322500478570165    0.044833554279507803    0.03920975796301697    0.03597145756623338    
  0.03440128302764851    0.03393767849355761    0.034401297497375395    0.035971442211938494    0.03920975230491549    
  0.044833551363711456    0.05332249359349415    0.0643565864192252    0.07609421735552177    0.08528973893779493    
  0.08879349488643118    0.06002413719697338    0.058311713869614486    0.053849581376257734    0.04819687810712793    
  0.04298114529386683    0.03920977636116472    0.03703735389196952    0.036117094324096474    0.03591728368241029    
  0.03592806997627049    0.0359172939503066    0.03611706749033014    0.0370373804259628    0.03920977249191866    
  0.04298114503632542    0.048196869394784875    0.05384956617334934    0.058311714990695825    0.06002413719697338    
  0.043765337449494526    0.04299865282446097    0.041057002064266976    0.03873443834826    0.03685837591457605    
  0.03597146123175226    0.03611706501407942    0.03692170505504536    0.03782576357521168    0.03822536063437777    
  0.03782577203110649    0.03692169151624405    0.03611707921045366    0.035971452111177624    0.036858364553498495    
  0.03873446134525447    0.041057002821995744    0.04299863348944242    0.043765337449494526    0.03577086636065653    
  0.035437597333229216    0.03465319036397391    0.033912705535427794    0.03372003122014769    0.03440128765124838    
  0.035917283347841604    0.0378257694044104    0.039434910497047004    0.040075117968470096    0.039434922877257424    
  0.0378257653813538    0.035917266277989426    0.034401293381507506    0.03372003570767897    0.03391270984685853    
  0.034653198069059477    0.03543760142622603    0.03577086636065653    0.033404341620527994    0.03318738732208774    
  0.03271953522693866    0.032429896706573424    0.032750794468492335    0.033937689173586784    0.03592807024900215    
  0.03822535752646049    0.04007512914141929    0.04078682646401377    0.040075116560463885    0.038225353498548796    
  0.03592806244291498    0.03393767906709514    0.032750802554195727    0.032429903363158805    0.03271952492887678    
  0.033187395144554835    0.033404341620527994    0.03577087132273952    0.035437607835735845    0.03465319023627869    
  0.03391269687768523    0.03372002669932502    0.03440129917229596    0.03591727288972141    0.03782577425077961    
  0.039434918306269294    0.04007512432015449    0.03943492045286774    0.03782579361072159    0.03591727279484549    
  0.03440130052056401    0.03372002605992942    0.03391270175820871    0.03465319429596356    0.03543758435742494    
  0.03577087132273952    0.04376534230700794    0.04299866534827336    0.04105699371344213    0.03873444675433666    
  0.03685837235379815    0.03597146155248714    0.03611706412325242    0.03692170852210045    0.03782577814280488    
  0.03822536252337129    0.03782578611474753    0.03692169341725409    0.03611707387878814    0.03597145184671864    
  0.036858375072516686    0.03873444552077372    0.04105699562597339    0.04299864698077843    0.04376534230700794    
  0.060024126257150846    0.05831170932694161    0.05384957123563567    0.04819686602468024    0.04298114040250821    
  0.039209780867102015    0.03703737418075138    0.03611708248882388    0.03591728743720015    0.035928062190724704    
  0.03591728461558309    0.036117077822614946    0.03703736980316243    0.03920977604382521    0.04298115139385167    
  0.048196869932347085    0.05384957354142754    0.05831171203153475    0.060024126257150846    0.08879348695642927    
  0.0852897544437946    0.07609422133509525    0.06435658951869314    0.05332249499199135    0.044833558011637624    
  0.03920975210141613    0.035971452569590355    0.03440130118104306    0.033937686842272524    0.034401297647451985    
  0.03597146054847131    0.03920976355166147    0.04483355898398838    0.053322487137450074    0.0643565860771514    
  0.07609422434497098    0.08528971832099268    0.08879348695642927    0.13452673078412644    0.12792167113868047    
  0.11067871540263578    0.08895418913878093    0.06878731450864727    0.053322485639112245    0.04298113712668923    
  0.036858369429325924    0.03372001976120489    0.032750793131343305    0.03372003023884498    0.03685836931221104    
  0.04298112965895256    0.05332248253708129    0.06878732778722838    0.08895419096825648    0.11067872670424342    
  0.12792167408635674    0.13452673078412644    0.19705861226919785    0.18601291806764508    0.15732147307776    
  0.12159674283601282    0.08895418005068806    0.06435659591046808    0.048196870581935995    0.03873445662718684    
  0.033912703808613436    0.03242990695397448    0.03391270562957871    0.03873445743754545    0.04819687637511783    
  0.06435659714074023    0.08895419757645441    0.12159676953757068    0.1573214876942478    0.18601294234231183    
  0.19705861226919785    0.2650987168414952    0.24951040337026675    0.20860428667336575    0.15732144903508716    
  0.11067876170447859    0.07609423126960499    0.05384957124941308    0.04105700905030101    0.034653210466767836    
  0.03271953637957661    0.03465320385769892    0.04105700419837051    0.053849568907323134    0.07609422677957352    
  0.11067872674601488    0.15732149305226775    0.20860432173872065    0.24951039437929526    0.2650987168414952    
  0.31753564552538016    0.2990584945692202    0.2495104084725844    0.18601289110592967    0.12792166415862816    
  0.08528971773209962    0.05831170928989042    0.04299864681063663    0.03543758298947256    0.03318738741704901    
  0.035437593312020385    0.04299865204158557    0.05831168448357559    0.08528971281377125    0.12792168069729262    
  0.18601293191893176    0.24951042662727915    0.2990584792472776    0.31753564552538016    0.33684906649541596    
  0.3175356971476925    0.2650986871673599    0.19705859904636538    0.13452674625146363    0.08879349635274426    
  0.06002413955078504    0.0437653391552344    0.03577087011668041    0.033404350169426285    0.035770871111383246    
  0.043765337630372075    0.06002413750069834    0.08879348574826582    0.13452675767197952    0.19705863281715283    
  0.26509868664001196    0.31753568283333794    0.33684906649541596    0.41759515739104125    0.4087684028438951    
  0.3660890475727007    0.28247751395856124    0.19017515338247107    0.11951554647053665    0.07586076973860904    
  0.05205077196110145    0.0407183727867006    0.037436956290075055    0.04071837252269855    0.052050767795764084    
  0.07586076076995767    0.11951555583359479    0.19017519101079589    0.2824775686833037    0.3660890767067559    
  0.40876836819726414    0.41759515739104125    0.40876843562469034    0.3967028394422129    0.3494797934875467    
  0.2670902915944214    0.18015692802531605    0.11433725863797542    0.0735693805225721    0.051220407774367746    
  0.040528948576904145    0.03741915315790211    0.04052896030803742    0.05122041475278457    0.07356937668873105    
  0.11433723286779698    0.18015689384115088    0.26709028415410735    0.3494797738733304    0.39670281496111015    
  0.40876843562469034    0.3660890641226783    0.349479857950957    0.29875395860883297    0.22532796480819742    
  0.15401761723483864    0.10098784396686657    0.06776487509300888    0.049234808371044596    0.04022194638784979    
  0.03756319978436384    0.04022194736875525    0.049234812060624834    0.06776487328447174    0.10098785881447962    
  0.1540176052749461    0.2253279793957573    0.2987539090214647    0.34947984293447476    0.3660890641226783    
  0.2824775407009379    0.2670903400888077    0.22532797203604327    0.17121928675565654    0.12133471953617185    
  0.08434537891747161    0.060667822713550305    0.04714790114720331    0.04044017286584525    0.03842860896628638    
  0.0404401597771904    0.04714790008761959    0.06066782530029345    0.08434536291793855    0.12133474064357437    
  0.1712193182674305    0.2253279655087011    0.26709029577568    0.2824775407009379    0.19017515245921207    
  0.18015694826501136    0.15401762974234898    0.12133471319547824    0.09147119154955402    0.06906237653538425    
  0.05445471197138024    0.04604731718644951    0.04188487967635195    0.04063269428773852    0.04188488348412954    
  0.04604729918984276    0.0544547073052251    0.06906238901141444    0.09147118710554235    0.12133472047214983    
  0.1540175830532102    0.18015692877294634    0.19017515245921207    0.11951555059767419    0.11433727363948083    
  0.10098783881191616    0.08434534991802811    0.06906238998033924    0.0576692367636525    0.05049163643016281    
  0.04667545650569216    0.04500013378497758    0.04454474246168002    0.04500013602531188    0.04667543290298436    
  0.05049163105083826    0.057669236770914026    0.06906238129754833    0.08434535870074464    0.10098784767492602    
  0.11433727169186868    0.11951555059767419    0.07586077143276361    0.07356939380717882    0.06776487986047894    
  0.0606678231530429    0.05445472038973976    0.05049165410174265    0.04891179703200359    0.04898102009116187    
  0.04966563672427582    0.05002729820753858    0.04966562757577969    0.04898100834545063    0.048911806514571804    
  0.050491649590005926    0.05445472387410959    0.06066781296824539    0.06776486552843944    0.07356939622687182    
  0.07586077143276361    0.05205077206095179    0.05122042068787518    0.049234807531356437    0.04714789413312231    