#     DFTpy    
  CRYSTAL 
    
  PRIMVEC    
  4.2620689655172415    0.0    0.0    
  0.0    4.2620689655172415    0.0    
  0.0    0.0    4.2620689655172415    
  PRIMCOORD    
  2    1    
  Si    0.0    0.0    0.0    
  Si    2.1310344827586207    2.1310344827586207    2.1310344827586207    
  BEGIN_BLOCK_DATAGRID_3D    
  3d_datagrid_density    
  BEGIN_DATAGRID_3D#0    
  19    19    19    
  0.0    0.0    0.0    
  4.2620689655172415    0.0    0.0    
  0.0    4.2620689655172415    0.0    
  0.0    0.0    4.2620689655172415    
  0.06880470153736343    0.12130346649677844    0.2893308303350332    0.3919707312217662    0.29813991089469793    
  0.17223447223976399    0.09529974411541318    0.05749899373370016    0.04107576413612053    0.03656375863082613    
  0.041075754004259425    0.057498986981961736    0.09529973226826424    0.1722344773491186    0.29813987998182206    
  0.39197076576920986    0.2893308756989827    0.12130347956260322    0.06880470153736343    0.1213034811425573    
  0.18006287746457175    0.3310325820098133    0.38694546852260614    0.28081072396411577    0.16214654101545797    
  0.09089740066248697    0.055685842868482216    0.04027755885610361    0.036032544624969624    0.04027756022437876    
  0.05568585017657944    0.0908973972813684    0.16214655237866815    0.28081069112173906    0.38694550061089705    
  0.33103254159882134    0.18006290871844782    0.1213034811425573    0.28933086487770776    0.3310324995029894    
  0.39078337491018156    0.34875356010610076    0.23340113099208878    0.13632732984375476    0.07956782714294457    
  0.050987502112841955    0.03824751933793948    0.034695106546727764    0.03824751418348521    0.050987515613655436    
  0.0795678279495176    0.13632735120447306    0.23340115566510133    0.34875357024165177    0.39078332570700397    
  0.331032499801527    0.28933086487770776    0.3919707312039802    0.38694545195559527    0.34875359573380516    
  0.26401963968089637    0.17165745833241525    0.10478200106054396    0.065613287894168    0.04523483943919457    
  0.035883767964514875    0.03321869976996206    0.03588376865079519    0.045234825390108716    0.06561329697029783    
  0.1047819983019981    0.1716574529912081    0.2640196069244848    0.34875356071215485    0.38694549360807146    
  0.3919707312039802    0.29813993038681913    0.2808106954871133    0.23340115204102618    0.171657442201908    
  0.11595509024486654    0.07668332729352972    0.05296688065212988    0.04014602421917303    0.03407565725985332    
  0.03230516763259157    0.034075654586137344    0.04014603435638036    0.05296687458269118    0.07668333960028763    
  0.1159550661634474    0.17165746768780588    0.23340112794398205    0.28081070195569313    0.29813993038681913    
  0.17223448110650166    0.16214653258684908    0.13632734097495305    0.10478198253121064    0.07668332691312169    
  0.05635280693918982    0.04366430866781585    0.03664048693687776    0.03328417896126283    0.03230539014496255    
  0.033284168383814594    0.03664049981010224    0.043664309927144526    0.05635281578536116    0.07668332235557783    
  0.1047819973857857    0.13632731887922975    0.1621465218475329    0.17223448110650166    0.09529974205311004    
  0.09089738225081982    0.07956782014122359    0.06561330365698023    0.05296688433432857    0.043664310117756115    
  0.03791967425992085    0.034883085075927474    0.0335605988660264    0.03321847897407455    0.03356059263963897    
  0.034883081471070006    0.03791967529805615    0.04366431245877558    0.05296687341546365    0.06561331012227166    
  0.07956782793352447    0.09089739358017247    0.09529974205311004    0.05749898562507219    0.05568583847265355    
  0.050987524488185415    0.04523482503392415    0.04014603081548136    0.03664048702179222    0.03488307844316589    
  0.034408505368986084    0.034549272913554425    0.03469531951537454    0.03454927650644565    0.03440851011698106    
  0.03488306861231642    0.03664049586253129    0.040146023399287634    0.045234837899953764    0.050987502620773555    
  0.05568583667374874    0.05749898562507219    0.041075776468283795    0.04027756059482031    0.03824752024050995    
  0.03588376296194016    0.03407565862769019    0.03328417440384891    0.03356058658004909    0.03454929146389249    
  0.03559038270285361    0.03603231697732724    0.035590380725888965    0.03454928735798238    0.03356060629385928    
  0.03328417337320379    0.034075651170275445    0.03588377825154493    0.038247514846975354    0.040277552516748985    
  0.041075776468283795    0.0365637659599249    0.03603253500834385    0.03469509494447628    0.03321870369025831    
  0.032305160778135486    0.03230538363483564    0.03321847520787544    0.034695327076807114    0.036032313462664105    
  0.03656399535891129    0.036032303751820476    0.03469531642460587    0.033218471606836684    0.03230538499583076    
  0.032305166779576046    0.0332186962224462    0.03469510547269427    0.036032536404952395    0.0365637659599249    
  0.04107576425023891    0.04027755482296815    0.03824752523243854    0.03588377297094914    0.03407565826297088    
  0.033284175187304386    0.033560611087416474    0.03454927745339678    0.0355903769753435    0.036032318200988275    
  0.03559038071216255    0.03454929456732007    0.0335605922709996    0.033284165747450266    0.03407565029053683    
  0.03588378075442875    0.03824751906667705    0.040277558782690785    0.04107576425023891    0.0574989855927037    
  0.05568583794661262    0.050987507188482044    0.04523482716248107    0.040146028026562273    0.03664048906465778    
  0.03488307226343809    0.03440850980607193    0.034549275763027694    0.034695335361609236    0.034549278509683985    
  0.0344085177107806    0.034883089335483744    0.03664049405191843    0.040146030550227765    0.04523482856878046    
  0.05098750689529345    0.0556858358331265    0.0574989855927037    0.09529973268638524    0.09089739496315584    
  0.07956783283594221    0.06561330209343401    0.05296688850242784    0.04366431366941244    0.03791967335148184    
  0.034883075181488275    0.03356060913032691    0.03321846517686126    0.03356060117786857    0.03488307508565068    
  0.037919676191782235    0.04366431347486891    0.052966870303995814    0.06561330146160527    0.07956781778541051    
  0.09089740410280116    0.09529973268638524    0.17223447427263971    0.16214651392620016    0.13632735681363356    
  0.1047819835184774    0.07668332311127363    0.05635279978220675    0.043664317958944786    0.03664048559044837    
  0.03328417526135993    0.032305380050407125    0.033284164696799706    0.03664050029043323    0.0436643053982862    
  0.056352820073646524    0.07668331750693316    0.10478199544351921    0.13632733787641474    0.16214651331155397    
  0.17223447427263971    0.2981399258577686    0.2808107265527141    0.2334011215609692    0.17165746020479802    
  0.11595507794408066    0.07668333060615536    0.052966877971364186    0.04014601939304181    0.03407567142301983    
  0.03230517382335135    0.034075662497188165    0.04014604454359806    0.0529668730971697    0.07668334182084305    
  0.1159550569510596    0.17165746870530119    0.23340111865628674    0.2808107161117624    0.2981399258577686    
  0.39197074584369623    0.38694545805841024    0.3487535759688219    0.26401962887689945    0.17165747362748224    
  0.10478199551488154    0.06561329434086223    0.04523482622184958    0.03588376967771833    0.03321868805472274    
  0.03588375866061824    0.045234834940576424    0.06561329047489374    0.10478200094832017    0.17165745369024876    
  0.26401963324403344    0.3487535688810879    0.386945492527699    0.39197074584369623    0.2893308735192978    
  0.33103249919212563    0.39078338884927594    0.3487535149735617    0.2334011589188577    0.1363273245077376    
  0.07956783225777334    0.050987501141410936    0.038247521342249916    0.03469510294689369    0.03824751759840594    
  0.050987510835353515    0.07956780809601921    0.13632734168145144    0.23340112500917426    0.3487535412988055    
  0.390783356086346    0.33103250721926014    0.2893308735192978    0.12130348721822962    0.18006289563301547    
  0.33103255418224276    0.3869454540659994    0.28081072120734274    0.16214654305351373    0.09089739403184967    
  0.055685839999448906    0.04027756854640948    0.03603254308227872    0.04027755819870047    0.05568585496491991    
  0.0908973976129667    0.16214655322864852    0.2808107177527186    0.3869455027404867    0.3310325210446018    
  0.1800628811578885    0.12130348721822962    0.06880470153736343    0.12130346649677844    0.2893308303350332    
  0.3919707312217662    0.29813991089469793    0.17223447223976399    0.09529974411541318    0.05749899373370016    
  0.04107576413612053    0.03656375863082613    0.041075754004259425    0.057498986981961736    0.09529973226826424    
  0.1722344773491186    0.29813987998182206    0.39197076576920986    0.2893308756989827    0.12130347956260322    
  0.06880470153736343    0.12130347907850784    0.18006286873834595    0.3310325535586788    0.38694551147555234    
  0.280810725688208    0.16214653168491397    0.09089740450058943    0.05568585606035882    0.0402775596519572    
  0.03603254320122158    0.04027755137786948    0.05568584902232787    0.09089739375986487    0.16214654281326207    
  0.28081071210891595    0.38694552781687075    0.3310325522206486    0.18006291330604218    0.12130347907850784    
  0.18006291578421907    0.2379071499220659    0.36135384474944293    0.3770905011119852    0.264235633334394    
  0.15291817116530607    0.08689758227952904    0.05406210376343089    0.039593387981991524    0.035590160007846365    
  0.03959339100884314    0.05406211266938128    0.0868975618793067    0.15291817265864066    0.26423559497422594    
  0.37709053990074953    0.36135379244404214    0.2379071549728325    0.18006291578421907    0.3310325217382663    
  0.3613537598364563    0.3919037745338344    0.3319767301191978    0.21945122224265556    0.12921010644240985    
  0.07657589042185299    0.0498902274519071    0.03790721958830378    0.034549509446945806    0.037907216531064436    
  0.049890235058197285    0.07657589056382322    0.12921013251435834    0.2194512523180897    0.331976740642415    
  0.39190374916531656    0.36135377163273347    0.3310325217382663    0.3869455011004713    0.37709048662967937    
  0.3319767707743649    0.24829674361377033    0.16200265196477123    0.10020042510513644    0.06388332231866106    
  0.04486538390590713    0.036079385032501764    0.03356038162397131    0.036079380639850056    0.04486537285633258    
  0.06388332607703713    0.10020042865355663    0.16200264488944136    0.24829675516781538    0.33197674178929903    
  0.37709053774906937    0.3869455011004713    0.28081074580772486    0.26423559428128673    0.21945127727514907    
  0.16200263139747453    0.11063277213663882    0.07443528242447026    0.05249047081805454    0.04059029022824668    
  0.03494017519664622    0.033284395264841456    0.03494017089174813    0.04059030388038492    0.052490463325788966    
  0.07443528449147975    0.1106327484394232    0.1620026576870246    0.21945122587998311    0.26423561879030044    
  0.28081074580772486    0.16214655521161214    0.1529181756463436    0.1292101121714292    0.10020040546670925    
  0.07443528223213654    0.055842246107826815    0.044269200232379194    0.03792520542920697    0.034940393080090365    
  0.034075448355855804    0.03494039192009825    0.037925219635676154    0.044269197757568074    0.05584224426167558    
  0.07443526836182753    0.1002004199130899    0.12921008448782154    0.15291816031137603    0.16214655521161214    
  0.0908974010087242    0.08689756872952628    0.07657589795349008    0.06388331817787796    0.05249047380087811    
  0.04426919924939985    0.03937053650590127    0.036978021997320226    0.03607915019993887    0.03588399927397493    
  0.036079162618678474    0.03697801861872074    0.03937052704954532    0.044269212588405556    0.052490455201683495    
  0.06388333184354994    0.07657588795608437    0.08689756903500308    0.0908974010087242    0.05568585032505992    
  0.054062100102191764    0.04989024320068637    0.044865362394779756    0.04059030425748931    0.03792520774472966    
  0.03697802029451459    0.037234024396878146    0.037907451549919716    0.03824728470623527    0.037907453777424716    
  0.03723403471605515    0.036978013684719556    0.03792520922728325    0.0405902905584513    0.04486538463688648    
  0.049890220410921574    0.05406210387422772    0.05568585032505992    0.04027756607005608    0.039593388210605214    
  0.03790722247259781    0.03607938086173618    0.034940173594480546    0.03494041151051018    0.03607915583480587    
  0.03790745609994762    0.03959315461835981    0.040277802984318455    0.03959315600434585    0.0379074587795431    
  0.036079154780805665    0.03494040251579547    0.034940165985275266    0.036079389877084596    0.03790721419017084    
  0.039593386922472044    0.04027756607005608    0.03603254775593833    0.03559014902496788    0.034549498879995894    
  0.03356039139404266    0.033284383976254474    0.03407543963292857    0.03588399757963346    0.038247285864728565    
  0.04027779706066222    0.04107552852071788    0.04027779027662033    0.03824727983958232    0.0358840050157778    
  0.034075429227691495    0.03328438107769478    0.033560384914577926    0.034549507768766634    0.03559015544631022    
  0.03603254775593833    0.040277561925651774    0.03959338629834399    0.03790722943768532    0.03607937808570875    
  0.03494017121489374    0.034940389621065084    0.03607917008636766    0.03790745094744209    0.03959315078055113    
  0.04027780636198502    0.03959314602737629    0.03790746295536489    0.03607914813546829    0.03494040512805604    
  0.034940173436109896    0.036079392541312996    0.03790722234335755    0.039593390647592555    0.040277561925651774    
  0.05568585242911925    0.05406210304561629    0.049890233932468414    0.04486537551415199    0.04059029751811167    
  0.037925207893586325    0.03697802584873209    0.03723402914414493    0.03790744694096442    0.03824729911658347    
  0.037907442248969664    0.037234049464143285    0.03697801804691199    0.0379252025125239    0.04059029152272165    
  0.04486537849939895    0.04989022437858229    0.054062099384919175    0.05568585242911925    0.09089740316273273    
  0.08689757174528119    0.07657589199528733    0.06388332336583222    0.05249047781970429    0.044269198744700755    
  0.039370533805424726    0.036978022283946616    0.03607915830748478    0.03588399697070697    0.03607915741114632    
  0.03697800913981779    0.039370536290383146    0.04426920720871125    0.052490458705625215    0.06388332934724276    
  0.07657589167270411    0.08689758122959883    0.09089740316273273    0.16214653758009345    0.1529181402550317    
  0.1292101307691034    0.10020041146564874    0.0744352861191646    0.05584224985255301    0.044269208832255394    
  0.03792521110925507    0.034940395047460285    0.034075429613638575    0.03494039871026869    0.03792521469138443    
  0.044269189781306346    0.0558422528879063    0.07443527343872448    0.10020043761824898    0.1292101130770162    
  0.152918142615882    0.16214653758009345    0.28081072467423573    0.2642355963032408    0.2194512327893192    
  0.16200262848673186    0.11063276215999326    0.07443527011348051    0.05249046890511475    0.04059029061120833    
  0.03494017928181616    0.033284396590497534    0.034940172142039    0.04059030560100562    0.0524904565934234    
  0.07443529107650203    0.11063273931220988    0.16200264914992973    0.21945123285538878    0.264235621135719    
  0.28081072467423573    0.38694548328640116    0.37709047594712847    0.33197675629836965    0.24829676481101493    
  0.16200266161487345    0.10020042068460903    0.0638833227074958    0.044865370890313075    0.03607937547083107    
  0.03356038143397648    0.03607937785836469    0.04486537911890274    0.0638833097305586    0.1002004268738105    
  0.16200263000569473    0.24829673871592964    0.331976760187469    0.377090493497577    0.38694548328640116    
  0.3310325726353486    0.36135377336229096    0.39190379102328765    0.33197674348140205    0.21945124156457096    
  0.12921009955290863    0.07657589960632183    0.0498902266458435    0.03790721831818087    0.03454950444856236    
  0.0379072221884581    0.04989023624314472    0.07657587817494545    0.1292101230368513    0.21945121010910734    
  0.3319767435873507    0.3919037715406138    0.36135375719488244    0.3310325726353486    0.18006290775394074    
  0.2379071656781807    0.36135380847162407    0.37709050064644223    0.2642356133750159    0.15291818058389137    
  0.08689756547353843    0.0540621055893788    0.03959339512126007    0.03559015291723589    0.03959338772436931    
  0.054062120936577064    0.08689757696021524    0.1529181792768955    0.2642356083688777    0.3770905472490472    
  0.3613537826837687    0.23790713324883414    0.18006290775394074    0.12130347907850784    0.18006286873834595    
  0.3310325535586788    0.38694551147555234    0.280810725688208    0.16214653168491397    0.09089740450058943    
  0.05568585606035882    0.0402775596519572    0.03603254320122158    0.04027755137786948    0.05568584902232787    
  0.09089739375986487    0.16214654281326207    0.28081071210891595    0.38694552781687075    0.3310325522206486    
  0.18006291330604218    0.12130347907850784    0.28933085300614286    0.3310325084172421    0.39078333133371146    
  0.34875354530375713    0.23340115039722925    0.136327333170609    0.07956783142491856    0.050987510363183906    
  0.03824751672487925    0.034695102530345565    0.038247517285964455    0.050987509403343255    0.0795678265857117    
  0.13632734205951533    0.23340112681057518    0.34875357894143405    0.3907833778145791    0.33103253465961685    
  0.28933085300614286    0.33103254801557225    0.3613537566422603    0.39190380451607365    0.3319767265572007    
  0.21945124740050576    0.12921011938070276    0.07657589624104821    0.04989022841927892    0.03790721849452731    
  0.034549510348771136    0.037907219853385785    0.04989023249930783    0.07657588493069692    0.12921011715554684    
  0.2194512110210388    0.33197676470878024    0.39190377018643285    0.36135379909018217    0.33103254801557225    
  0.39078335007483583    0.39190373548681257    0.36376950147778514    0.2804515471090979    0.18284048749676865    
  0.11092526509194967    0.06890321886632013    0.04717294971789623    0.03723425847002462    0.0344082855706133    
  0.03723425677988975    0.047172964025390285    0.06890320616057279    0.11092527986213227    0.1828405096051125    
  0.28045157413888894    0.3637694649016108    0.39190372616383196    0.39078335007483583    0.34875354685641347    
  0.3319767059962641    0.2804515964941332    0.2064948467022682    0.13733746240997485    0.08861592454327419    
  0.05962028444771368    0.04419969677687261    0.03697778662233705    0.03488330184382697    0.03697778495492783    
  0.044199687434760375    0.0596202875029618    0.08861593032608303    0.1373374476817307    0.20649485173671384    
  0.2804515593721894    0.3319767671260172    0.34875354685641347    0.23340114199636883    0.21945123486533233    
  0.18284051095261658    0.13733744855927107    0.0972501179236447    0.06893917041836656    0.05165721620418754    
  0.04231329651899315    0.037925442638224297    0.03664026196873244    0.03792543388776256    0.042313304070296875    
  0.05165721054085934    0.06893917909240405    0.09725010946956589    0.1373374794608646    0.18284047386680188    
  0.21945123154506524    0.23340114199636883    0.13632735429052859    0.12921010582795095    0.11092526344297499    
  0.08861591043936912    0.06893917665524986    0.05495102493286472    0.04654466293806985    0.042313535425035576    
  0.040590057005939255    0.040146269037801885    0.04059005293939397    0.04231355110036275    0.04654466366951441    
  0.054951017683495695    0.06893917036368231    0.08861593522014645    0.11092525451545525    0.12921009704916414    
  0.13632735429052859    0.07956782788660473    0.0765758836250102    0.06890321965717554    0.05962028662127703    
  0.05165721179130798    0.04654466924254828    0.044347578404384067    0.044199436192863435    0.044865630847757534    
  0.04523457731265727    0.044865613145218176    0.044199446421998204    0.04434758608278989    0.046544666244228844    
  0.05165720508869597    0.05962029247379421    0.06890321312203657    0.0765758932581313    0.07956782788660473    
  0.05098751731303822    0.049890226744356725    0.04717296938382761    0.044199682415373864    0.04231329669915887    
  0.04231353647720688    0.044199446555513826    0.047173208837851886    0.049889964034279526    0.050987773855194415    
  0.04988996289783795    0.047173223299369516    0.04419943877343957    0.04231353880819229    0.04231328787265202    
  0.04419970242558822    0.04717294455186643    0.04989022473471864    0.05098751731303822    0.038247525680945055    
  0.03790721958565529    0.0372342661938265    0.036977781350092595    0.037925440094109815    0.04059006481776194    
  0.0448656194217198    0.04988997719607355    0.05406239024496858    0.05568557590688186    0.05406238319093108    
  0.04988996949152113    0.04486562580285832    0.04059005908851469    0.037925428488149025    0.0369777950914742    
  0.03723425627689703    0.03790720924127262    0.038247525680945055    0.03469510742735788    0.03454949496965601    
  0.03440827836863829    0.03488330957881314    0.03664025374082055    0.04014627182029544    0.04523458062526182    
  0.0509877800754961    0.05568557260776326    0.05749927568072086    0.055685551466183765    0.05098776378694939    
  0.04523458457966571    0.0401462577641593    0.03664026111903092    0.03488330474597964    0.034408280948299626    
  0.034549500679307225    0.03469510742735788    0.03824752276593346    0.037907210940252296    0.037234268193673994    
  0.0369777884673856    0.0379254410510041    0.0405900626051521    0.044865632310574735    0.04988995656354971    
  0.0540623805614847    0.05568556484155698    0.05406237253412024    0.049889968854310095    0.044865621862128426    
  0.040590064208996385    0.037925440670469546    0.03697779652777091    0.03723425856961577    0.03790721799864603    
  0.03824752276593346    0.05098750858830014    0.04989022592735402    0.04717295765817655    0.044199687178622646    
  0.04231329278953314    0.04231353601780494    0.0441994387200983    0.047173204124949006    0.04988995499932608    
  0.0509877850014495    0.0498899580735997    0.04717322108643646    0.04419944553932442    0.04231354262615849    
  0.04231328820858851    0.044199697390358776    0.04717294776432385    0.04989022565581733    0.05098750858830014    
  0.0795678319630383    0.0765758799239014    0.06890321833529342    0.0596202943869719    0.05165721281227748    
  0.04654466797211943    0.04434757721414511    0.04419944632349979    0.04486563511142749    0.045234576559372866    
  0.044865617670960194    0.044199437896721434    0.04434759483072973    0.046544673778989756    0.0516572070689629    
  0.05962028305312131    0.06890321158151354    0.07657589548665067    0.0795678319630383    0.13632733435555303    
  0.12921009117355586    0.1109252807707814    0.08861592083858866    0.06893917451843755    0.05495102395519262    
  0.046544682770236816    0.04231354051753237    0.04059005844330551    0.04014625817090141    0.040590055284191795    
  0.04231354814598231    0.04654465467917256    0.05495102749077983    0.06893916373831602    0.08861593185543376    
  0.11092527707648081    0.12921008232146303    0.13632733435555303    0.23340117105604502    0.2194512528343985    
  0.18284049221886425    0.13733744635983383    0.09725011817213121    0.06893917008445628    0.0516572073933868    
  0.04231329014980846    0.03792544324396592    0.03664026712116582    0.03792543410936345    0.04231331208555855    
  0.05165720629552894    0.06893918077534111    0.09725009820645913    0.13733746159726803    0.18284046722228495    
  0.21945121558006309    0.23340117105604502    0.34875354829083205    0.3319767463669446    0.2804515832076093    
  0.20649483824256848    0.1373374697399501    0.088615917066294    0.05962029060913044    0.04419968700800951    
  0.03697778919921157    0.03488329336853354    0.03697778430824406    0.044199697037798656    0.05962028010277078    
  0.088615927751105    0.13733745851200813    0.20649486134703432    0.280451595226308    0.3319767191098231    
  0.34875354829083205    0.3907833322324632    0.39190376352320166    0.36376952684818475    0.2804515312041081    
  0.18284050414777736    0.11092526502539703    0.06890321485785612    0.047172958676843985    0.0372342651885247    
  0.03440828242824875    0.03723426352006785    0.047172963848297216    0.06890319755016182    0.11092527755691482    
  0.18284046885201752    0.28045156627998963    0.3637695074289388    0.3919037465045056    0.3907833322324632    
  0.33103256358388594    0.3613537756158973    0.3919037744876656    0.3319767230896195    0.21945123830965294    
  0.12921010825901671    0.07657589230017511    0.049890223453574994    0.03790722907995174    0.034549504002364166    
  0.037907216085070354    0.04989023895910992    0.07657588827959728    0.12921011884909653    0.21945123182605827    
  0.33197678039825174    0.3919037467172045    0.3613537322819253    0.33103256358388594    0.28933085300614286    
  0.3310325084172421    0.39078333133371146    0.34875354530375713    0.23340115039722925    0.136327333170609    
  0.07956783142491856    0.050987510363183906    0.03824751672487925    0.034695102530345565    0.038247517285964455    
  0.050987509403343255    0.0795678265857117    0.13632734205951533    0.23340112681057518    0.34875357894143405    
  0.3907833778145791    0.33103253465961685    0.28933085300614286    0.39197073311819586    0.3869454962482378    
  0.34875354593732333    0.26401961579245187    0.17165747621573582    0.10478200479017849    0.06561329406827904    
  0.04523483413470557    0.03588377252474548    0.03321869467658401    0.03588376001692087    0.045234836109818974    
  0.06561329223538238    0.10478200137580038    0.17165744093153437    0.26401962451560435    0.34875357771316773    
  0.3869454943430873    0.39197073311819586    0.38694553632287065    0.3770905015341652    0.33197678051454715    
  0.24829672833514554    0.16200266340264963    0.10020042509803238    0.06388332366080443    0.044865371597062005    
  0.03607938143408849    0.033560389345708506    0.03607938239859797    0.04486537684367238    0.06388331629529281    
  0.10020043126483372    0.16200263262742967    0.24829676143996773    0.33197673704100894    0.3770905248033134    
  0.38694553632287065    0.34875359892156316    0.3319767220946871    0.28045158369100265    0.20649484550170463    
  0.1373374657190896    0.08861592224790155    0.05962028550067604    0.04419968823183287    0.036977792041408004    
  0.03488330241882244    0.03697778799884382    0.044199698975413856    0.0596202940060037    0.08861593331899566    
  0.1373374683728232    0.20649483736734248    0.2804515275840471    0.3319767444615396    0.34875359892156316    
  0.2640196192030631    0.24829670977188675    0.2064948525219891    0.1539235233848207    0.10745351936868455    
  0.07476643112499241    0.05497565361873545    0.04434734228757613    0.03937076631210359    0.03791944997401057    
  0.0393707729170702    0.044347328615579586    0.05497564972765172    0.0747664324133447    0.10745350790617005    
  0.15392350900309593    0.20649482499397212    0.2482967571851915    0.2640196192030631    0.17165745122397938    
  0.1620026450433974    0.13733747681583763    0.10745349933771195    0.08133100914490586    0.06296598322918462    
  0.05203706412087103    0.04654491810109101    0.04426895076362953    0.04366456214332693    0.04426894769288622    
  0.046544931818663815    0.05203705335453496    0.06296598508792367    0.08133099147349611    0.10745351754967182    
  0.13733745112805332    0.1620026448655196    0.17165745122397938    0.10478200414062086    0.1002004186138976    
  0.08861592387360749    0.07476642031630368    0.06296598563480776    0.0553903461141838    0.05203733662864092    
  0.051656947620675575    0.05249075032796648    0.052966621810669856    0.05249074914851824    0.05165696143311034    
  0.052037339154755086    0.05539034431228685    0.06296597880198598    0.07476642910599926    0.08861591209537482    
  0.10020040933112519    0.10478200414062086    0.0656133034270913    0.06388330865078891    0.05962028762996207    
  0.05497566720676797    0.05203706397896726    0.05203733616675402    0.054975374193040015    0.05962057954505042    
  0.06388303091847702    0.06561359578617014    0.06388301909864783    0.059620582087214075    0.05497537588522896    
  0.052037333019481095    0.05203705711834963    0.054975667970208676    0.0596202893937329    0.06388332193767941    
  0.0656133034270913    0.045234837506556415    0.044865368481691086    0.04419970152393368    0.04434732889097866    
  0.04654492882288149    0.05165693592928209    0.059620569246749335    0.06890290152280977    0.07657620774719362    
  0.07956749754735125    0.07657621813390134    0.06890290728436835    0.05962056399965737    0.05165694669818226    
  0.046544918561449884    0.04434734619317581    0.04419968495274842    0.04486536986338969    0.045234837506556415    
  0.035883781313443774    0.036079388516880896    0.036977793735974714    0.039370764285764574    0.04426895762136975    
  0.05249075286852485    0.06388301209358423    0.07657621382849858    0.08689723578732295    0.0908977620357863    