#     DFTpy    
  CRYSTAL 
    
  PRIMVEC    
  6.534965517241378    0.0    0.0    
  0.0    6.534965517241378    0.0    
  0.0    0.0    3.600344827586206    
  PRIMCOORD    
  4    1    
  Si    0.0    0.0    0.0    
  Si    3.267482758620689    3.267482758620689    1.800172413793103    
  Si    0.0    3.267482758620689    0.9000862068965515    
  Si    3.267482758620689    0.0    2.7002586206896546    
  BEGIN_BLOCK_DATAGRID_3D    
  3d_datagrid_density    
  BEGIN_DATAGRID_3D#0    
  29    29    17    
  0.0    0.0    0.0    
  6.534965517241378    0.0    0.0    
  0.0    6.534965517241378    0.0    
  0.0    0.0    3.600344827586206    
  0.07065750302203368    0.12257997264058502    0.2893021621380817    0.3976453679584598    0.3094842655464623    
  0.18484866110154236    0.1104649516619869    0.07895493027320605    0.07485290349574904    0.09255896673816517    
  0.13275238790820065    0.19425210409408405    0.26284807610331035    0.31376915553774226    0.3316111490804296    
  0.3137690822197922    0.2628480939058146    0.19425210506117013    0.13275241902195029    0.092558953601439    
  0.07485291072307945    0.0789549317388084    0.11046494095785564    0.18484870859413333    0.30948424094885124    
  0.397645446238428    0.2893022021031077    0.1225799767693498    0.07065750302203368    0.12257997844084277    
  0.18063539243897822    0.3316521251175253    0.394088487808912    0.2922235617425703    0.17397849801880663    
  0.10491518430348842    0.0755833671264134    0.07174550693657308    0.08824565148833838    0.12557329001324458    
  0.18268842690385084    0.24712180199502126    0.29622822968392715    0.3139357605638673    0.2962282839420536    
  0.24712182204410452    0.18268843227188805    0.12557329913131696    0.08824566615757125    0.07174551829807534    
  0.07558335767972331    0.10491518644105141    0.1739784625238938    0.29222355074272666    0.394088499771756    
  0.33165214257148784    0.18063537827600454    0.12257997844084277    0.2893021651545738    0.3316521366007753    
  0.39497440773431514    0.35823508646739405    0.2437305012048013    0.14576849989161017    0.09049190638324026    
  0.06674276168736716    0.06360505182080356    0.07703741222613644    0.10713415770119199    0.15296483842438713    
  0.20548721566610012    0.24738454250797365    0.26322275435543957    0.24738464721630687    0.20548724577341118    
  0.15296487409749734    0.10713415956249649    0.07703740614446883    0.0636050427078552    0.06674277712479613    
  0.0904919045722082    0.1457685185102156    0.2437305056263493    0.3582350830526392    0.3949745267629012    
  0.3316521194033208    0.2893021651545738    0.3976454085920402    0.3940885785457154    0.3582351696983129    
  0.2737775056128958    0.17935360364555353    0.11080543824842844    0.07234154230233683    0.05544441460412925    
  0.0532133406656356    0.06289435815887492    0.084213037919574    0.11609090697718033    0.15255463743686337    
  0.18227461262972292    0.19379380653395314    0.18227465880853352    0.1525546546974937    0.116090921650266    
  0.08421304803354362    0.06289434162907674    0.05321333905383487    0.055444424947189916    0.0723415621613224    
  0.11080543697068469    0.17935357110804545    0.2737775110928958    0.3582352136296938    0.3940885989028245    
  0.3976454085920402    0.309484283908496    0.2922235847198386    0.24373044248904438    0.17935358658259062    
  0.12060374488170197    0.07929511233669079    0.05547363358349112    0.04469427570986331    0.043279756369455226    
  0.04955857890231771    0.06305492847028739    0.08262656521783962    0.1045813270828373    0.12236305540192485    
  0.12922309412530322    0.12236302612924038    0.10458129610037303    0.08262656180409118    0.06305494654258982    
  0.04955856901003091    0.04327975875151936    0.04469428291479203    0.05547363833499461    0.07929508984074386    
  0.12060369770333346    0.1793535950216779    0.24373052085438685    0.2922235112684574    0.309484283908496    
  0.18484859960537786    0.1739784568663444    0.14576847809998744    0.1108054030442465    0.0792950831968423    
  0.05646538926301021    0.042694542730899954    0.036233742511088365    0.03535340619701217    0.03911644537041891    
  0.0470260050819223    0.05807984769406932    0.0701222979432118    0.07966311801757588    0.08328609295806748    
  0.07966314604298234    0.07012228034258342    0.05807984433727323    0.04702602004931221    0.039116437110127245    
  0.03535340063407854    0.036233728173090014    0.04269456431464275    0.05646538499696289    0.07929509528980695    
  0.1108054198760893    0.14576848545215362    0.17397848664178753    0.18484859960537786    0.11046495894884206    
  0.1049151928794049    0.09049195380651584    0.0723415529346806    0.05547366305742209    0.04269458902384686    
  0.03458222262920258    0.030577248040399    0.029942679092155748    0.03211785979163337    0.03661874042454169    
  0.042701793758781505    0.04910570523674175    0.05405647699514886    0.05591783953576163    0.05405649603162462    
  0.04910568470237454    0.04270178605428855    0.03661873456766533    0.03211786205075388    0.029942682705591393    
  0.030577245563966536    0.03458219759591399    0.04269457779438464    0.05547364930937241    0.07234156986974419    
  0.09049193162681557    0.10491522121443432    0.11046495894884206    0.07895489121424921    0.07558334338578278    
  0.06674278379956756    0.05544441433725018    0.04469428033152116    0.036233745803057195    0.030577234068586822    
  0.027601762370400164    0.026958339835838237    0.028213967294740475    0.030917051348563256    0.03451288769662127    
  0.03818355714104803    0.04096366453988453    0.04201265315137767    0.04096366732760157    0.0381835522449431    
  0.03451287788994634    0.030917060111831585    0.028213965658447013    0.026958332068720933    0.02760176958942636    
  0.03057722673806636    0.036233751291550535    0.0446942865537682    0.05544442493186102    0.06674277670200987    
  0.07558335787021735    0.07895489121424921    0.07485290749775793    0.07174551792989979    0.0636050965121208    
  0.05321333409684567    0.04327978385919675    0.035353426160913026    0.02994267945402155    0.026958336398494622    
  0.026048294976341924    0.026785888057667222    0.02873765532377981    0.03139601064916211    0.034084376624233345    
  0.03610279671070418    0.036864980027574074    0.03610279554566368    0.034084364303812266    0.031396006019040176    
  0.02873764789704044    0.026785879022411883    0.02604830204281588    0.02695833504825859    0.029942677866576752    
  0.03535342675509578    0.043279765281901944    0.053213337278055835    0.06360507105210471    0.07174552575935184    
  0.07485290749775793    0.09255894172656681    0.08824564673946776    0.07703739764055156    0.06289435195450387    
  0.049558560018022425    0.03911646124160423    0.032117856629232305    0.028213949050082582    0.02678586272077022    
  0.027279846706500504    0.029168892259008303    0.031850661592692675    0.03461075138855751    0.03669679643956771    
  0.037472141722406684    0.036696802969132324    0.03461075871040649    0.03185068330439598    0.029168895933019197    
  0.027279840081186443    0.026785869591097945    0.028213952716598302    0.03211784655810156    0.03911645331717633    
  0.049558582355520846    0.06289431581458815    0.07703740589631414    0.08824567583818238    0.09255894172656681    
  0.13275241421400896    0.12557331692520096    0.10713416398287796    0.08421303561261168    0.0630549326580177    
  0.0470260245999454    0.03661873253906288    0.030917055536751503    0.028737643718130305    0.029168902160668    
  0.03148544282463062    0.03488663543064613    0.03847021368324196    0.041192872575982774    0.042196118722958816    
  0.04119286641338931    0.038470187843081524    0.0348866341761343    0.03148543179053931    0.029168901032935783    
  0.02873763514258504    0.03091705532786878    0.0366187316206609    0.04702601202758815    0.06305494897877434    
  0.0842130464554984    0.10713417984032376    0.1255732991119293    0.13275241421400896    0.19425205515070512    
  0.18268840973513545    0.1529648381331712    0.11609091292878769    0.08262657889238548    0.05807985510686536    
  0.042701785915084174    0.03451288351157474    0.03139598486592943    0.031850668795248144    0.034886635739732594    
  0.039502159505623885    0.044457642575744624    0.04827017084734711    0.04968728792386098    0.04827017850586073    
  0.04445766902181638    0.03950213381127002    0.03488663636554919    0.03185067282585279    0.03139600993417973    
  0.0345128815085005    0.04270178977342379    0.05807984653123635    0.0826265660987959    0.11609095129465484    
  0.1529648904981576    0.18268840009597095    0.19425205515070512    0.26284799769993883    0.24712186912309883    
  0.20548720012672875    0.15255458856955526    0.10458130874788253    0.07012230137192088    0.049105675065116094    
  0.038183541620358245    0.034084350218420253    0.034610761122902414    0.03847019134807476    0.04445765357875358    
  0.05097880762373095    0.05608044378629195    0.058011566953067174    0.05608047592822893    0.05097881082024456    
  0.04445766688504386    0.03847020551185421    0.03461076832480378    0.03408434384508105    0.038183547548494734    
  0.04910567253868102    0.07012231358797552    0.10458127188994372    0.15255459902003238    0.20548726866166572    
  0.2471218474711928    0.26284799769993883    0.3137690538629736    0.2962282864537293    0.24738461759970015    
  0.18227462604045097    0.12236303745966547    0.07966315563148879    0.05405649042526301    0.04096367469045089    
  0.03610278767719605    0.03669680357421633    0.0411928785814475    0.048270173937836704    0.05608046899443011    
  0.062240295915443423    0.06458176833114293    0.06224032681305497    0.05608046196936608    0.048270171381291915    
  0.0411928732835628    0.03669680086172589    0.036102795941051105    0.04096366863316555    0.05405648085898568    
  0.07966316008215792    0.12236304987831909    0.18227461792379673    0.24738468057680665    0.2962283973262718    
  0.3137690538629736    0.331611054137497    0.31393575923446876    0.2632227752880301    0.19379382877896495    
  0.12922311430983494    0.08328612569169114    0.0559178210173063    0.04201265244203764    0.03686497862407359    
  0.03747216334488229    0.04219613003872264    0.04968730356170629    0.05801163050044494    0.06458178920860852    
  0.06707168704222646    0.06458177817448031    0.05801160495012976    0.04968732744474065    0.04219613625743643    
  0.03747215494104437    0.03686498599909621    0.04201267421794915    0.05591782578364453    0.08328615495113739    
  0.12922310528123276    0.19379380299207624    0.2632227992303893    0.3139358059276971    0.331611054137497    
  0.3137690550936445    0.29622827235796245    0.24738464207850736    0.18227466266359862    0.12236303624779031    
  0.07966316751943901    0.05405647941041487    0.040963671655307836    0.03610279821155378    0.0366968065004337    
  0.04119289911450501    0.048270173474616984    0.056080458240572534    0.062240315643547955    0.06458175713489503    
  0.0622403069668079    0.0560804483117836    0.048270176456242805    0.041192881948212974    0.036696806909726196    
  0.036102806937537556    0.04096366436001729    0.054056475676248814    0.07966314687536166    0.12236304121447227    
  0.18227459396529683    0.24738463696963994    0.2962282971898658    0.3137690550936445    0.2628480367353472    
  0.2471218544047501    0.20548719852732011    0.15255458240295885    0.1045813096095254    0.0701223235258368    
  0.049105690371509934    0.03818354459866259    0.03408435201808745    0.03461078343038458    0.03847018558947092    
  0.04445764227372712    0.05097879605487243    0.05608044889525812    0.058011585844487894    0.05608049665499926    
  0.050978796124961326    0.04445764990358695    0.03847020285472206    0.034610763440857124    0.034084338030795566    
  0.03818354384127065    0.049105670555352345    0.07012231425767898    0.104581302552531    0.15255459652236011    
  0.20548721109721    0.24712181682785656    0.2628480367353472    0.1942520644684704    0.18268842616420616    
  0.15296484917828723    0.11609091936933397    0.08262658622322913    0.05807986154836137    0.04270177801150971    
  0.034512881338460984    0.03139599371677408    0.03185067546739203    0.03488664087284724    0.03950215026063604    
  0.04445765244754097    0.04827018604052216    0.04968731538932067    0.04827017812015571    0.04445765214539719    
  0.03950214806638929    0.03488663501489818    0.03185066565048528    0.031395999203661366    0.03451288727595953    
  0.0427017808207624    0.05807984152621776    0.0826265687369692    0.1160909152058809    0.1529649194962123    
  0.1826884113695142    0.1942520644684704    0.132752419587614    0.12557332138821767    0.10713414555191994    
  0.08421302614215871    0.06305492804665541    0.047026023299202316    0.036618733799550225    0.03091705413942131    
  0.028737640176431926    0.02916889646451604    0.03148543043819466    0.03488663276544206    0.03847018881956743    
  0.041192889481913054    0.04219612786349088    0.041192875175180506    0.038470194433401404    0.034886637113239076    
  0.031485431135050826    0.029168892602864142    0.028737652787761348    0.030917063479437044    0.03661872831670455    
  0.04702601416032146    0.06305491868675918    0.08421302755994857    0.10713417825859411    0.12557328395737777    
  0.132752419587614    0.09255891212750761    0.08824564624537079    0.07703738956351133    0.06289432029345526    
  0.0495585740669841    0.039116451327612045    0.032117852975580743    0.028213956974025085    0.02678587401248169    
  0.027279850567659247    0.029168890168044585    0.03185067087848382    0.034610764811156706    0.03669677967777671    
  0.03747213624147722    0.03669680697323588    0.03461075540321103    0.03185067983040787    0.02916889728813353    
  0.027279841591415686    0.02678587511044771    0.028213958901014632    0.0321178603709259    0.03911645410640975    
  0.04955857498908079    0.06289434273576612    0.07703740298759608    0.08824567153030659    0.09255891212750761    
  0.07485290304285142    0.07174550528066037    0.06360507692095327    0.05321333324982677    0.04327977002653342    
  0.03535342666574504    0.029942681690871577    0.026958345654248022    0.02604829856112418    0.026785892151273676    
  0.028737658826585973    0.031396001893416174    0.034084362539896426    0.03610279458607429    0.03686498930327248    
  0.03610279940697841    0.034084352911940834    0.031396012246524406    0.028737642191413726    0.026785878686204072    
  0.02604830382422776    0.026958343717175526    0.029942670294785152    0.035353431043606984    0.04327976869286067    
  0.05321335215547706    0.06360507694373448    0.07174554254808714    0.07485290304285142    0.07895490075490057    
  0.07558335158888958    0.06674279012997679    0.05544441712312863    0.044694272890091404    0.036233748419721774    
  0.030577224128026697    0.027601761197525245    0.026958332803050836    0.02821397185369248    0.030917056228987053    
  0.03451288878850931    0.038183563227526585    0.04096366628240923    0.04201265625145206    0.04096366890393657    
  0.03818354876242547    0.03451287935429404    0.03091705742104059    0.02821395821751315    0.026958333520853157    
  0.02760175888171029    0.0305772314523686    0.03623374415925262    0.044694282744700345    0.055444434570291676    
  0.06674277722441191    0.07558336620098002    0.07895490075490057    0.11046495598879107    0.10491520743709852    
  0.09049193051643621    0.07234154059294029    0.05547365804350048    0.042694572491020745    0.034582210681790175    
  0.030577237900628124    0.02994268164344793    0.03211786764759151    0.03661874163877344    0.04270178573267307    
  0.04910570163235753    0.054056482795751384    0.05591782270860748    0.05405649342337259    0.04910569331169238    
  0.0427017960682907    0.03661873524339683    0.03211786916084915    0.02994268260631428    0.030577236779129522    
  0.03458220023402875    0.042694571528635664    0.055473647018728846    0.0723415640353682    0.09049192497496153    
  0.10491520970592111    0.11046495598879107    0.18484861293703425    0.17397845920949867    0.1457684832567747    
  0.11080539647676849    0.07929507570438486    0.05646539677227626    0.04269455662270133    0.0362337385384687    
  0.035353402932520026    0.03911645839296379    0.04702599841130733    0.05807981517266981    0.07012227899787202    
  0.07966311465920202    0.08328608711500894    0.07966315636342336    0.07012227981390454    0.058079848394188546    
  0.04702600506254539    0.03911645636276083    0.03535340764228368    0.03623373511557544    0.042694549842666345    
  0.05646539428059882    0.07929508298437532    0.11080537767403538    0.14576848392254854    0.1739784792803234    
  0.18484861293703425    0.3094843138287409    0.2922234788527385    0.24373047189471383    0.1793535760461162    
  0.12060371326538798    0.0792951095132418    0.05547363456655619    0.044694269273637795    0.043279763172328845    
  0.04955858718432088    0.0630549153828236    0.08262657479000328    0.10458132971301659    0.1223629708763089    
  0.1292231226494646    0.12236306644145915    0.10458128199195049    0.08262655689104793    0.06305493388651652    
  0.04955857673029881    0.04327976329767071    0.044694285917844766    0.055473646376931196    0.0792950837158968    
  0.12060371800433271    0.17935355445079393    0.2437304774257703    0.2922235968704169    0.3094843138287409    
  0.3976454359688825    0.39408856139568216    0.3582350865444051    0.273777465756221    0.17935358494839224    
  0.11080545158619205    0.07234155970531927    0.055444417468895    0.05321333291077808    0.06289435250358336    
  0.08421302248607503    0.11609095146567319    0.15255465207753383    0.1822746286285678    0.1937937716082321    
  0.18227466817122484    0.15255464522670664    0.11609090359970846    0.08421304893891103    0.06289434671356157    
  0.053213341095534904    0.05544442991312606    0.07234156763366657    0.11080543142176107    0.17935357394548432    
  0.2737775068075258    0.3582351941089264    0.3940885424005212    0.3976454359688825    0.28930210765617104    
  0.33165216434258676    0.39497439435037285    0.35823511236672084    0.24373047066253967    0.14576852384437194    
  0.09049191014417747    0.0667427555237668    0.06360505321744653    0.07703740812645607    0.10713414078786548    
  0.15296489103006541    0.20548725359456954    0.24738454718857236    0.2632226664879178    0.24738466460739542    
  0.2054872224831933    0.1529648673319063    0.10713416693551762    0.07703739537886693    0.06360504781308918    
  0.0667427673218424    0.09049190135643244    0.14576850541126868    0.2437304517251613    0.35823513080003205    
  0.3949744205282602    0.3316521026581998    0.28930210765617104    0.12257997991510002    0.18063539838716838    
  0.33165219310612276    0.3940884290630921    0.2922235493415505    0.17397851212084256    0.10491518912672494    
  0.0755833814045099    0.07174550969875451    0.0882456679638951    0.12557327220339598    0.18268841859654544    
  0.24712182454825718    0.2962282168329861    0.31393575265850715    0.2962282959564718    0.2471217945437226    
  0.1826883925136795    0.12557328316621422    0.08824565661599648    0.07174551324835482    0.07558338105331147    
  0.10491519024887154    0.17397848363763901    0.29222352219963454    0.3940885072591367    0.33165216298191136    
  0.1806354322367534    0.12257997991510002    0.07065750302203368    0.12257997264058502    0.2893021621380817    
  0.3976453679584598    0.3094842655464623    0.18484866110154236    0.1104649516619869    0.07895493027320605    
  0.07485290349574904    0.09255896673816517    0.13275238790820065    0.19425210409408405    0.26284807610331035    
  0.31376915553774226    0.3316111490804296    0.3137690822197922    0.2628480939058146    0.19425210506117013    
  0.13275241902195029    0.092558953601439    0.07485291072307945    0.0789549317388084    0.11046494095785564    
  0.18484870859413333    0.30948424094885124    0.397645446238428    0.2893022021031077    0.1225799767693498    
  0.07065750302203368    0.11890891639230301    0.17687759707493664    0.3295045918678577    0.39470043725244675    
  0.29289248449000616    0.17280612329122777    0.10158625229504074    0.06944697391837176    0.060741834507762604    
  0.06800835628794609    0.08895791160180398    0.12190228660202698    0.16034405922264358    0.19181882475409892    
  0.20401251223326883    0.1918188274089181    0.16034406154013944    0.12190228616530348    0.08895795994550151    
  0.06800833266421695    0.06074183307567741    0.0694469721248299    0.1015862553582564    0.17280615163116642    
  0.2928924108179963    0.39470045990200475    0.3295045707197883    0.1768776004047382    0.11890891639230301    
  0.17671881847134915    0.23456777045117594    0.36176275541715874    0.3863310376630022    0.2761109100324228    
  0.16285207489166773    0.0966905512873322    0.0667074985529155    0.05854509258121713    0.06535020182191838    
  0.08492538862303248    0.11558700248686751    0.15125813832324875    0.18053433296103763    0.191910219962976    
  0.1805343168405574    0.15125814482641234    0.11558700590499099    0.08492543106129245    0.06535021774653005    
  0.05854510350558146    0.06670749627540233    0.09669054317792346    0.16285205281012058    0.2761109295346679    
  0.38633100172758295    0.36176278372514137    0.23456781624401635    0.17671881847134915    0.3291940728832342    
  0.3616737156988404    0.39824851485167495    0.34323509359704096    0.2297755850895863    0.13688995440738352    
  0.08387175548231456    0.0595064178745936    0.05279692933984211    0.05840751546545028    0.07444459795658646    
  0.09927295346691882    0.1278811339939313    0.15131540393129045    0.1604557518280514    0.15131549101447037    
  0.12788114489655864    0.09927297179901208    0.07444460242486779    0.05840749860323365    0.052796929432210364    
  0.05950640465760504    0.08387175331757243    0.13688994230996443    0.2297756296933106    0.34323503791438165    
  0.3982486016427788    0.36167376219086095    0.3291940728832342    0.3949282085163537    0.3866969049019428    
  0.3436060995033475    0.259017363549174    0.16939669402319696    0.10470038689914209    0.06768334258306193    
  0.05023555309781065    0.045378113226749124    0.049503856514864074    0.06115117395963442    0.07883401823865871    
  0.0988613512938505    0.11508112905060623    0.12135074951388823    0.11508114297750567    0.09886132933794868    
  0.07883400786222242    0.06115117282310863    0.04950384644350458    0.045378104381004154    0.050235564291897315    
  0.06768334762971671    0.10470038387095554    0.16939665965892217    0.2590173761374906    0.34360615841585723    
  0.3866969669619755    0.3949282085163537    0.29482595688965185    0.2778952560772653    0.23121241394214317    
  0.1702574938122532    0.11495047236326482    0.07577874044894183    0.0526286485437625    0.041332718749402655    
  0.038143657987078014    0.040913944225895886    0.04857100076491633    0.05986930800037446    0.07237794991700013    
  0.08234421032865921    0.0861435704460529    0.08234419815404695    0.07237792288051724    0.059869312508847285    
  0.04857101250940337    0.040913935984436545    0.038143656671261655    0.0413327240294123    0.05262865361353316    
  0.0757787182396438    0.11495045553451562    0.17025747787919218    0.23121248900782684    0.27789525086645445    
  0.29482595688965185    0.17786289721500717    0.16745335052532756    0.14053291120565858    0.10716513761185349    
  0.07698560278511499    0.05491007565056397    0.04125548446396286    0.034317240488815993    0.032310589979903416    
  0.03404665594823638    0.03877128330754435    0.0455125441175682    0.05277726234251462    0.05846342567552708    
  0.060605770851368534    0.058463461899715505    0.05277724584180641    0.04551254999741773    0.0387712874222982    
  0.034046657916150865    0.03231058662256939    0.03431723767141188    0.04125549479745777    0.054910061180033894    
  0.0769855951265099    0.10716514509651905    0.14053290060674337    0.16745336261409507    0.17786289721500717    
  0.1108863061188401    0.10526916430810433    0.09076922945781654    0.07256572802647096    0.05558020832854378    
  0.04261255764101097    0.034207589329232096    0.02974049459698508    0.028377075397688183    0.02943786394853276    
  0.03233210145280975    0.03636478817798288    0.04057642682717629    0.04381365710454742    0.045030192521708715    
  0.04381367167005049    0.04057642364782928    0.036364784987714754    0.03233209580139913    0.029437875163950186    
  0.028377078597420446    0.029740481849056703    0.03420758208721836    0.04261255482387297    0.05558020741753093    
  0.07256574918490424    0.0907691989579606    0.10526918938928763    0.1108863061188401    0.08562730145079674    
  0.08177045002653623    0.0717518815751788    0.05905337814437477    0.046999996792606136    0.03752993357391315    
  0.03115177895793876    0.027611740613035105    0.026427450782772307    0.027066628137854116    0.029024143647650213    
  0.03175041977470262    0.03454394128401337    0.03665230836422371    0.03744801065627904    0.03665231476323965    
  0.03454392795714891    0.031750409704630715    0.029024140078342024    0.0270666133998421    0.026427449031352638    
  0.02761175560713539    0.031151769394687657    0.037529940416425024    0.047000000189619535    0.05905339202301103    
  0.07175186691211109    0.08177046063007824    0.08562730145079674    0.09002140386544805    0.08587720206803097    
  0.07508613179942326    0.06143962658053309    0.04855273595574005    0.03843773656495035    0.03161216015518355    
  0.027768646119636867    0.026325319638706064    0.026702190810385152    0.02836843051257367    0.030774232213227528    
  0.03325523179517238    0.03512486804876225    0.03582549358676304    0.03512487280399292    0.03325521482376222    
  0.030774234546036    0.028368432986670914    0.026702185485504154    0.02632532148603199    0.027768634362509457    
  0.031612160234198    0.03843772623666794    0.04855272821454742    0.06143962643150103    0.07508610445816333    
  0.08587721120581414    0.09002140386544805    0.12331076301734809    0.11683306707241774    0.10004311579507214    
  0.07907624740624392    0.05972841571607448    0.04498583331782566    0.035325345194399255    0.02996143901067322    
  0.027820327593760324    0.028042312479338322    0.029925614790764915    0.032757083338939605    0.035760771161614344    
  0.038050247831390265    0.038896302670987856    0.03805025160248531    0.035760777136537934    0.03275711044146027    
  0.02992562159146246    0.02804231154433848    0.027820339834564885    0.029961441701038913    0.03532532415399419    
  0.044985819757221095    0.05972842549656803    0.07907622546002362    0.10004312929859191    0.11683309190232366    
  0.12331076301734809    0.19094665172278466    0.17963115829034018    0.15034939487852217    0.11405598656412996    
  0.0812680176181175    0.057186049308138025    0.04202203244506257    0.03385544665371787    0.03059088211718925    
  0.030719198150761528    0.0332274569609163    0.03716904904059132    0.04144923617484938    0.044745566024906244    
  0.0459621307048799    0.04474558784404198    0.04144922427313403    0.037169046247889324    0.03322745727326127    
  0.030719204861331374    0.030590890882951364    0.033855454415790735    0.042022038894730135    0.05718602428773205    
  0.08126804721491639    0.11405598411441387    0.15034941913674474    0.17963116169079393    0.19094665172278466    
  0.28695491138231344    0.27020368442705944    0.22479152747123837    0.16597099676826518    0.11243365690364165    
  0.07411969432935774    0.05093155474266725    0.038876361644103116    0.03413595787457899    0.03419676745914781    
  0.037627819414795385    0.04320375336348263    0.0493565173051455    0.05416268570289452    0.05596732752283927    
  0.05416268954197685    0.0493565265668433    0.043203735600065    0.03762780991249123    0.03419678058289488    
  0.03413597466170485    0.03887636379044124    0.05093155850566959    0.07411968921443536    0.11243363928686123    
  0.16597100122691189    0.2247915960381558    0.27020370924324455    0.28695491138231344    0.37042257671473944    
  0.35476851820296806    0.30325993830876774    0.22443383716550439    0.14770742458763303    0.0927778505376391    
  0.06037914510957944    0.04400099191566778    0.03767093656946892    0.03771011782393367    0.0421770439180612    
  0.04955654895486337    0.0578021567542626    0.06434778390917975    0.06686146125568108    0.06434781731634862    
  0.0578021335670469    0.04955653919870914    0.04217705480028881    0.03771011426692875    0.03767093838834749    
  0.04400100576764511    0.06037914019626343    0.09277783531728284    0.14770737575104048    0.2244338309201208    
  0.30326001767817823    0.354768533307571    0.37042257671473944    0.400307279094399    0.39443660940238046    
  0.35507815225240313    0.26989300301601243    0.17627414044990783    0.1077010268984444    0.06776418640855611    
  0.04793006751007718    0.040344936522321365    0.04036307361508739    0.0456257080647911    0.054424168358833624    
  0.06437723199317988    0.07234900802459768    0.07541364695612165    0.07234905085587953    0.0643772427962747    
  0.05442417431749766    0.04562569805925797    0.04036306548362865    0.040344947960164336    0.047930065442459445    
  0.06776416133156726    0.10770102443155377    0.17627417775456886    0.269892981961246    0.35507826988552943    