#     DFTpy    
  CRYSTAL 
    
  PRIMVEC    
  1.2921986983872304    -2.2381537990810547    0.0    
  1.2921986983872304    2.2381537990810547    0.0    
  0.0    0.0    2.4323357087586204    
  PRIMCOORD    
  1    1    
  Si    0.0    0.0    0.0    
  BEGIN_BLOCK_DATAGRID_3D    
  3d_datagrid_density    
  BEGIN_DATAGRID_3D#0    
  11    11    11    
  0.0    0.0    0.0    
  1.2921986983872304    -2.2381537990810547    0.0    
  1.2921986983872304    2.2381537990810547    0.0    
  0.0    0.0    2.4323357087586204    
  0.05128729332673172    0.10489271529116104    0.28740380545718497    0.4131730609300271    0.378133621115198    
  0.34714779107970695    0.37813365442206903    0.41317304808055844    0.2874038281855899    0.10489275607566198    
  0.05128729332673172    0.10489268433402345    0.10461882863575041    0.2307576746998989    0.3908322977957567    
  0.39655830413304666    0.3455673626352699    0.34569715297411474    0.3964419002947552    0.3907391569177078    
  0.23071924017598583    0.10489268433402345    0.28740388367576736    0.23075773094436103    0.2879557368241594    
  0.3906332396638211    0.3999476052525468    0.34317198840784985    0.31624212466098284    0.34314942903440615    
  0.4001536995113603    0.39073919993722    0.28740388367576736    0.4131730762260583    0.3908323066890186    
  0.3906333210743366    0.4128179967016617    0.3964369151207809    0.3434042590155269    0.3046808603314444    
  0.3047639867166124    0.3431493692148952    0.39644200724698403    0.4131730762260583    0.3781336325601432    
  0.3965583351606336    0.39994752643351517    0.3964369439746341    0.37855820209530266    0.34562914562362534    
  0.3160564438219046    0.3046808517326528    0.31624203137703405    0.34569709537566673    0.3781336325601432    
  0.34714777328839597    0.3455674101831262    0.3431719454229631    0.34340416016647796    0.34562913441792165    
  0.34674916766677577    0.34562916319044895    0.34340415619571224    0.3431719298287603    0.345567426304444    
  0.34714777328839597    0.37813357014873267    0.34569723730408963    0.3162419787123292    0.30468091852186574    
  0.31605644989889126    0.34562909462627417    0.37855825044471825    0.3964368738664725    0.39994759203339053    
  0.3965583279563923    0.37813357014873267    0.41317311350942265    0.3964420638623512    0.3431493827914302    
  0.3047639002476001    0.3046809002017238    0.3434042236861826    0.3964369627963084    0.41281804163850044    
  0.39063333756323093    0.39083227512468716    0.41317311350942265    0.28740387588223526    0.3907391270791198    
  0.4001536927203389    0.3431493555580453    0.3162420854523971    0.3431720131309917    0.3999476122396806    
  0.390633381676765    0.2879557103778956    0.23075775981661775    0.28740387588223526    0.1048927121864758    
  0.23071924412023082    0.3907391540087317    0.3964419868519386    0.34569713120716916    0.34556737189070474    
  0.3965582481767429    0.3908322264852004    0.23075768259436294    0.10461877084176427    0.1048927121864758    
  0.05128729332673172    0.10489271529116104    0.28740380545718497    0.4131730609300271    0.378133621115198    
  0.34714779107970695    0.37813365442206903    0.41317304808055844    0.2874038281855899    0.10489275607566198    
  0.05128729332673172    0.10072917209775197    0.16325724988835044    0.32748717374308295    0.4032742159604388    
  0.3530396637773381    0.3217458390574074    0.35303973057754223    0.40327422856618145    0.32748714854514716    
  0.16325728400492656    0.10072917209775197    0.16325722934262454    0.16295810983984443    0.28193241405423436    
  0.3962131976530178    0.3738991900464187    0.32065587675756246    0.3207544086849608    0.3738061769360013    
  0.3961644103227332    0.2818736398724493    0.16325722934262454    0.32748723747837744    0.28193244388667965    
  0.3279564627870539    0.39606807184974224    0.3791648550616869    0.31879870179422765    0.29280129632149005    
  0.3187866199340881    0.37929655433868625    0.39616446964684565    0.32748723747837744    0.4032742396594141    
  0.39621318110875947    0.39606812202364167    0.4029913375555522    0.37381628582549725    0.3189533461695845    
  0.28199391390357653    0.28204722110108227    0.3187865737836153    0.3738062802097786    0.4032742396594141    
  0.35303973292593627    0.37389919443500674    0.3791648072507878    0.37381629714956244    0.35335771683400374    
  0.3206985164143169    0.2926806539746682    0.28199386577789926    0.2928012102656531    0.32075436555247483    
  0.35303973292593627    0.32174576657200205    0.320655924386194    0.31879863000150516    0.31895326955051734    
  0.3206985107643495    0.3214533362297983    0.32069848496713055    0.31895328759616876    0.31879860687636613    
  0.32065596518118633    0.32174576657200205    0.35303963531963034    0.32075444873589465    0.29280118468798166    
  0.281993927919728    0.29268067677048853    0.3206985035221616    0.35335775478949455    0.373816260633622    
  0.37916479676440346    0.37389915450711847    0.35303963531963034    0.40327424098210113    0.373806273964316    
  0.31878656784193893    0.2820470801894208    0.2819938808756619    0.3189533512984469    0.3738163181175227    
  0.4029914278524897    0.39606809985177455    0.39621320686063904    0.40327424098210113    0.32748721077949305    
  0.39616443636081927    0.37929656979065696    0.3187865879804105    0.29280125034786797    0.3187986869170973    
  0.3791648709202056    0.3960682081674549    0.32795642441048256    0.2819324847426071    0.32748721077949305    
  0.1632572812921539    0.2818736643508571    0.3961643938538523    0.3738062087924941    0.320754374006564    
  0.32065595956185533    0.37389912468191666    0.3962131306464311    0.2819323763718614    0.1629580604023018    
  0.1632572812921539    0.10072917209775197    0.16325724988835044    0.32748717374308295    0.4032742159604388    
  0.3530396637773381    0.3217458390574074    0.35303973057754223    0.40327422856618145    0.32748714854514716    
  0.16325728400492656    0.10072917209775197    0.28808387931580426    0.33364197159415643    0.39574354606152284    
  0.3641525679246927    0.29204322946218075    0.2622115306848505    0.2920432472907087    0.3641525992400714    
  0.39574359364757394    0.3336420593800687    0.28808387931580426    0.33364195390842244    0.33345857951084296    
  0.385937198654834    0.3850813580159387    0.3154144172551887    0.26180271344715367    0.2618324163014976    
  0.31538223633382373    0.3850714806659107    0.38589697663335576    0.33364195390842244    0.3957436922678369    
  0.3859372368156973    0.39594444783219884    0.3850300712939554    0.32342431586749243    0.2607184443262466    
  0.23762560198212576    0.2607192055892644    0.32345736993727203    0.38507151445377874    0.3957436922678369    
  0.36415257185985467    0.385081308079136    0.38503009151177126    0.36405101772605386    0.31539222388743665    
  0.2607643055521452    0.22846960143441508    0.2284808029700235    0.2607191701542976    0.3153823173963797    
  0.36415257185985467    0.2920432311554968    0.31541445613623154    0.32342429825412644    0.31539222372119324    
  0.292145430934748    0.26181287132240455    0.23759118684875885    0.22846953080956214    0.23762558424893657    
  0.2618323200888988    0.2920432311554968    0.2622115138688946    0.2618027738956356    0.26071840630428467    
  0.26076426407935355    0.2618128751224608    0.2621207353165822    0.26181290519500106    0.26076428655361594    
  0.2607183723276953    0.26180279615277274    0.2622115138688946    0.2920431971400133    0.26183248181482655    
  0.23762551328654022    0.22846957072054244    0.23759117463561238    0.2618128554183187    0.2921454393239787    
  0.3153921665115227    0.32342431371811325    0.315414421267185    0.2920431971400133    0.36415262985379404    
  0.3153823011196155    0.2607191323102896    0.2284807240914591    0.22846960515201542    0.2607643235726313    
  0.3153922852151437    0.36405106594545805    0.38503006439401943    0.3850813155362037    0.36415262985379404    
  0.3957436710629728    0.38507152959864965    0.32345738916106975    0.2607191535980875    0.23762558278649484    
  0.26071844279134315    0.3234243246413879    0.3850301792249742    0.3959444454004378    0.3859373192064646    
  0.3957436710629728    0.3336419893352702    0.38589702518285707    0.3850715227648853    0.3153822410629206    
  0.2618323681019541    0.2618027431948623    0.3154143822278982    0.3850812917953112    0.3859372155644294    
  0.33345847385018    0.3336419893352702    0.28808387931580426    0.33364197159415643    0.39574354606152284    
  0.3641525679246927    0.29204322946218075    0.2622115306848505    0.2920432472907087    0.3641525992400714    
  0.39574359364757394    0.3336420593800687    0.28808387931580426    0.4795115983018119    0.46353545149780984    
  0.39915873117376677    0.3010425374311531    0.22579124164465564    0.20008314602657676    0.22579126546884143    
  0.3010425531425571    0.39915875190490335    0.46353555047616485    0.4795115983018119    0.463535453560444    
  0.4635112365993012    0.42171354828744323    0.3354599966767482    0.24794598198545847    0.20010873139221305    
  0.20011032698753198    0.24794323348907243    0.33544805329353433    0.42171906104614404    0.463535453560444    
  0.39915886068227535    0.421713588770997    0.39919552030191435    0.3354462514164976    0.2566484975190416    
  0.1998909863219105    0.18068303646809952    0.1998908014439648    0.2566597479681766    0.3354480934986781    
  0.39915886068227535    0.3010425460042084    0.3354599556098114    0.33544624643425675    0.3010297623431558    
  0.24794553668578512    0.19990085136557312    0.1735019725337485    0.1735030658533614    0.1998907915529444    
  0.24794326774514516    0.3010425460042084    0.22579125469458708    0.24794604097830103    0.25664849742468054    
  0.24794550214801475    0.2258013282705286    0.2001083567053033    0.18067459296980584    0.17350195265367108    
  0.18068303132741154    0.20011023625293492    0.22579125469458708    0.20008311727580008    0.20010878147097244    
  0.1998909451184517    0.1999008255056897    0.20010836734737547    0.20007448696195296    0.2001083786820209    
  0.19990081960204129    0.1998909273943245    0.200108791314415    0.20008311727580008    0.22579122564144988    
  0.20011035764171886    0.18068295934358022    0.17350194974065125    0.18067461502758436    0.20010834299458363    
  0.22580131823393879    0.2479454744373211    0.25664851723022947    0.24794601474246633    0.22579122564144988    
  0.3010425807429255    0.24794329227456788    0.19989074967537251    0.17350300520317194    0.1735019805742838    
  0.1999008618221426    0.24794556720102326    0.3010297800870754    0.33544624313689014    0.3354599629774073    
  0.3010425807429255    0.3991588312363873    0.3354480865775835    0.2566597753544125    0.1998907729831565    
  0.1806830363397593    0.19989098970959654    0.25664851536797195    0.3354463061028573    0.39919547461727795    
  0.42171367691579226    0.3991588312363873    0.46353551832066586    0.42171909922732104    0.33544807415917577    
  0.2479432360024744    0.20011029977033737    0.20010874815381824    0.24794596696395155    0.3354599236525002    
  0.4217135674028752    0.46351112536049344    0.46353551832066586    0.4795115983018119    0.46353545149780984    
  0.39915873117376677    0.3010425374311531    0.22579124164465564    0.20008314602657676    0.22579126546884143    
  0.3010425531425571    0.39915875190490335    0.46353555047616485    0.4795115983018119    0.5044237996716077    
  0.46024128072486287    0.35491554745807335    0.2481141490179723    0.18005814744268003    0.157918997522824    
  0.18005819472827062    0.24811415321620117    0.3549155693779482    0.460241339860405    0.5044237996716077    
  0.46024125117097037    0.460245681425359    0.3857650934177094    0.2821985477225637    0.19970411818679892    
  0.15824730648971777    0.1582457757580904    0.19970460930330708    0.2821910800327457    0.38577505182991984    
  0.46024125117097037    0.35491564706788437    0.3857651275479639    0.35492361372304765    0.28219160285191935    
  0.20772349229851134    0.15877473365282513    0.1424447961956026    0.1587753721478381    0.20772691316391498    
  0.2821911235608219    0.35491564706788437    0.24811415043669088    0.2821985358716986    0.28219164610687886    
  0.24811558312307594    0.19970549910593222    0.15877733427864246    0.13680690320506833    0.13680536139674748    
  0.15877534418907763    0.19970469867638826    0.24811415043669088    0.18005817268794894    0.19970411261565807    
  0.20772347681903766    0.19970550971865245    0.18005579673073285    0.1582468442133179    0.1424418768701121    
  0.1368068632112521    0.14244474497738926    0.1582457729543721    0.18005817268794894    0.1579189542915353    
  0.15824733252212897    0.15877468118927254    0.15877728594674453    0.158246834500318    0.15792042283461535    
  0.1582468175189305    0.1587773038235007    0.15877468020317256    0.15824738193889687    0.1579189542915353    
  0.1800581367961409    0.15824582880492125    0.14244472243849943    0.13680690251331282    0.1424418705810436    
  0.15824682357482792    0.1800558251800769    0.19970547571496813    0.20772349321119532    0.1997040795768513    
  0.1800581367961409    0.2481141666534456    0.19970469238091482    0.15877536249007665    0.13680528884330503    
  0.1368068950046985    0.15877730044499758    0.19970550288148595    0.24811561818181294    0.28219161848227364    
  0.28219856247496156    0.2481141666534456    0.3549155916174164    0.2821910773124226    0.207726909406897    
  0.15877536271401285    0.1424447614791142    0.15877473089319916    0.20772351015486415    0.2821916953130853    
  0.35492354721961683    0.38576518363557977    0.3549155916174164    0.46024132686487507    0.3857750786000575    
  0.28219106196620786    0.19970464836008814    0.15824576795956666    0.1582473337986019    0.1997040588823977    
  0.2821985161386154    0.38576506241253905    0.46024554684493807    0.46024132686487507    0.5044237996716077    
  0.46024128072486287    0.35491554745807335    0.2481141490179723    0.18005814744268003    0.157918997522824    
  0.18005819472827062    0.24811415321620117    0.3549155693779482    0.460241339860405    0.5044237996716077    
  0.48595945313575856    0.4392545769268751    0.3322532343699412    0.2288612325560208    0.16454458550972023    
  0.14364508955059085    0.1645446087420038    0.22886123020738816    0.3322532625582276    0.4392546140042934    
  0.48595945313575856    0.43925454090746463    0.4392634790084393    0.3629391751557468    0.2612836340311109    
  0.18307990372531127    0.14406139251664696    0.1440611214971295    0.1830797681159159    0.26128053483152874    
  0.3629452257436704    0.43925454090746463    0.3322533250664258    0.3629392651957522    0.3322520022713367    
  0.26128078271294025    0.19063459595348972    0.14481176356819978    0.12945414438601482    0.14481212731367735    
  0.19063445861885236    0.2612805596333777    0.3322533250664258    0.2288612333666937    0.26128361951050727    
  0.2612808515054915    0.22886634070317596    0.18308185012533026    0.14480959145439912    0.12433501376423171    
  0.12433307398688344    0.14481210233500327    0.1830798170681945    0.2288612333666937    0.16454459329611015    
  0.18307990605452218    0.19063456999516626    0.1830818735795425    0.1645378594895593    0.14406163284307447    
  0.12945542471781477    0.12433501091341825    0.12945409526794618    0.14406110310078696    0.16454459329611015    
  0.14364507926768594    0.1440614336494758    0.14481174063718705    0.14480954393436918    0.1440616269177421    
  0.1436504822266864    0.144061642557016    0.1448095377124912    0.14481173358383775    0.14406145840007736    
  0.14364507926768594    0.16454455163614748    0.1440611636997111    0.1294540661948723    0.12433505826507563    
  0.12945542816259906    0.1440615857237417    0.16453788813010667    0.18308181408943752    0.19063460434863277    
  0.18307991063739446    0.16454455163614748    0.22886125935117846    0.18307986842274776    0.14481211065189908    
  0.12433301657655854    0.12433504810175514    0.14480956677156312    0.18308186579853047    0.2288663660853465    
  0.26128085827825775    0.2612835911678581    0.22886125935117846    0.3322533164659492    0.26128048989408775    
  0.19063444562177542    0.14481208740873533    0.12945412478766088    0.14481178286839425    0.19063460785477174    
  0.2612808967226277    0.33225197315518545    0.3629392961011633    0.3322533164659492    0.43925461968062723    
  0.3629452489205116    0.261280533657881    0.18307981931332928    0.14406110396423188    0.14406141364907193    
  0.18307985934253132    0.2612835619999172    0.3629391803075942    0.4392632937642196    0.43925461968062723    
  0.48595945313575856    0.4392545769268751    0.3322532343699412    0.2288612325560208    0.16454458550972023    
  0.14364508955059085    0.1645446087420038    0.22886123020738816    0.3322532625582276    0.4392546140042934    
  0.48595945313575856    0.5044237971182278    0.46024126464985804    0.3549155713702603    0.2481141416581013    
  0.18005815063268704    0.15791899858461275    0.18005820027036504    0.2481141449010234    0.3549155407848893    
  0.4602412998791732    0.5044237971182278    0.46024124628682    0.4602457075281057    0.38576507488598866    
  0.28219856735326915    0.19970410335328004    0.15824730481178845    0.1582457758160052    0.19970462910508427    
  0.2821910676162569    0.385775035172216    0.46024124628682    0.3549156409246304    0.385765119755046    
  0.3549235736481133    0.2821915867423421    0.20772349054561687    0.15877473577617324    0.14244479990775394    
  0.15877537945920123    0.20772692747836446    0.2821911088109453    0.3549156409246304    0.24811415117282482    
  0.28219853058531946    0.2821916293774408    0.2481155774307567    0.19970548822080045    0.15877731931117775    
  0.13680689847010086    0.1368053735833434    0.1587753498005748    0.19970468794167737    0.24811415117282482    
  0.1800581933485564    0.19970410263158925    0.20772347986188028    0.19970550123261255    0.18005578896752786    
  0.15824682925700878    0.14244187409169215    0.13680686654534746    0.14244474590535272    0.15824576779231206    
  0.1800581933485564    0.15791894536667925    0.15824732614001005    0.15877469210189524    0.15877727376417905    
  0.15824682916025373    0.1579204136317343    0.15824681780803568    0.15877728245520753    0.158774676044201    
  0.15824736039659537    0.15791894536667925    0.180058119051693    0.15824580780303663    0.14244473010517072    
  0.13680691549302684    0.14244188395370094    0.15824681419412207    0.18005580856326328    0.19970548616218955    
  0.20772347902870092    0.19970408722040844    0.180058119051693    0.24811415147114596    0.19970469565984472    
  0.15877534551068717    0.13680528588682414    0.1368068892521761    0.15877732627764796    0.19970551219080854    
  0.2481156337199277    0.2821916083207999    0.28219856487220946    0.24811415147114596    0.3549156189497774    
  0.28219106250222886    0.2077269249897644    0.15877535281842273    0.14244477439365616    0.15877472890801125    
  0.2077235181701443    0.2821917038976832    0.3549235584438314    0.38576517643014935    0.3549156189497774    
  0.4602413309851477    0.3857750573778104    0.28219105952513823    0.1997046481652205    0.1582457636753701    
  0.15824735418178906    0.19970405771182653    0.2821985152927544    0.3857650454810683    0.46024552163972915    
  0.4602413309851477    0.5044237971182278    0.46024126464985804    0.3549155713702603    0.2481141416581013    
  0.18005815063268704    0.15791899858461275    0.18005820027036504    0.2481141449010234    0.3549155407848893    
  0.4602412998791732    0.5044237971182278    0.4795116048463948    0.4635354803302293    0.3991587268040089    
  0.30104254292617194    0.22579124773842985    0.20008312493330654    0.22579125546087436    0.3010425640311633    
  0.3991587667784923    0.4635355783325741    0.4795116048463948    0.46353546448207134    0.4635112808968353    
  0.42171353644206355    0.3354600155832259    0.24794600438515813    0.20010872612036057    0.20011032794236425    
  0.24794323008924396    0.3354480416178807    0.42171907803414604    0.46353546448207134    0.39915887009735795    
  0.421713586882961    0.3991954690103143    0.3354462236585555    0.2566485005209173    0.19989098241143607    
  0.18068304430927662    0.1998908083640346    0.25665975753404957    0.33544809173949064    0.39915887009735795    
  0.30104253820594257    0.3354599536375158    0.33544624409846385    0.3010297620969829    0.24794551273354465    
  0.19990083595354968    0.17350197930875663    0.17350306683805813    0.19989078143621408    0.2479433007914721    
  0.30104253820594257    0.22579125030209612    0.2479460199813804    0.2566484967179995    0.2479455212618533    
  0.22580130490501565    0.20010835580305625    0.18067460741751715    0.17350192086149804    0.18068301724762645    
  0.2001102411872309    0.22579125030209612    0.20008311678727755    0.200108763958676    0.19989095915869967    
  0.1999008127518082    0.2001083784136402    0.20007448411424847    0.2001083992562549    0.19990082301672085    
  0.19989092774382058    0.20010879287754252    0.20008311678727755    0.22579119617154175    0.20011037064773204    
  0.18068296959562163    0.17350195971453866    0.18067459147374648    0.20010835754397205    0.22580132175039172    
  0.24794547625001126    0.25664850816901197    0.24794599989101038    0.22579119617154175    0.3010425755967758    
  0.24794328077991673    0.1998907584371599    0.17350301295776976    0.17350199464587435    0.19990086598047804    
  0.24794556387992342    0.3010298143130257    0.3354462308397497    0.3354599690502453    0.3010425755967758    
  0.39915885228902964    0.3354480888353743    0.2566597759246837    0.19989076550490298    0.1806830368253324    
  0.19989099211484132    0.2566485165086825    0.33544634400654505    0.3991954902318413    0.42171368966712774    
  0.39915885228902964    0.4635355090186494    0.4217191215008803    0.33544809562820566    0.24794323090552456    
  0.20011029035304645    0.2001087492152289    0.2479459741638179    0.33545994821587355    0.42171358480393706    
  0.46351112118697035    0.4635355090186494    0.4795116048463948    0.4635354803302293    0.3991587268040089    
  0.30104254292617194    0.22579124773842985    0.20008312493330654    0.22579125546087436    0.3010425640311633    
  0.3991587667784923    0.4635355783325741    0.4795116048463948    0.2880838856626601    0.3336419581211789    
  0.3957435579212605    0.36415257696695635    0.2920432320045281    0.2622115581661632    0.2920432543605942    
  0.3641525806374468    0.39574356661719556    0.3336420538954508    0.2880838856626601    0.3336419635049949    
  0.33345857886753566    0.385937184006754    0.3850813554711039    0.31541438744943184    0.26180273140645705    
  0.26183240983154954    0.315382248850808    0.3850714748069478    0.3858969714218895    0.3336419635049949    
  0.39574367115242626    0.3859372246744373    0.39594447405673017    0.3850300864881331    0.32342429660578637    
  0.2607184365835636    0.23762559104171949    0.2607191823538885    0.32345736114816415    0.3850715388240813    
  0.39574367115242626    0.364152589185729    0.38508128756597576    0.3850300705482249    0.3640509883177675    
  0.31539223511967723    0.2607643022587506    0.22846960274786504    0.2284807828308404    0.2607191824811237    
  0.3153822892240211    0.364152589185729    0.292043255828739    0.31541445903809373    0.32342429621776914    
  0.3153921839794963    0.2921454486849349    0.26181285389675085    0.23759118427090004    0.22846955379119785    
  0.23762557604247353    0.2618323093320338    0.292043255828739    0.26221150713884867    0.2618027807846405    
  0.26071839122342644    0.2607642718842017    0.2618128723215566    0.26212074282723924    0.26181289833561144    
  0.2607642687950395    0.26071835877159616    0.26180277459921386    0.26221150713884867    0.292043196330725    
  0.26183245577996456    0.23762550416413045    0.22846956425622117    0.2375912040568179    0.2618128685445658    
  0.29214543637378604    0.31539217216122056    0.3234243272743372    0.31541442325682817    0.292043196330725    
  0.3641526232129399    0.3153823038623539    0.2607191241894986    0.22848071633708633    0.22846960340124078    
  0.2607643387350242    0.31539227612610105    0.36405103151590285    0.38503009615821815    0.3850813247362813    
  0.3641526232129399    0.3957436550117763    0.3850715134573032    0.3234574036026988    0.2607191573079567    
  0.2376255876263496    0.2607184538834563    0.3234243231551574    0.38503016784908073    0.39594445590402627    
  0.38593732334315034    0.3957436550117763    0.3336419924395066    0.3858970095045067    0.38507150262981005    
  0.31538224495905287    0.2618323906755957    0.2618027511161389    0.31541438473750405    0.3850812777827438    
  0.385937216014847    0.3334584957614446    0.3336419924395066    0.2880838856626601    0.3336419581211789    
  0.3957435579212605    0.36415257696695635    0.2920432320045281    0.2622115581661632    0.2920432543605942    
  0.3641525806374468    0.39574356661719556    0.3336420538954508    0.2880838856626601    0.10072916741334217    
  0.16325726437794927    0.3274871447372818    0.4032742172754168    0.35303965449243147    0.3217458411215684    
  0.3530397331697903    0.4032742224956677    0.3274871660232237    0.16325730701083402    0.10072916741334217    
  0.16325723056819944    0.16295810946634257    0.28193241429847204    0.396213184743156    0.37389919785209663    
  0.3206558783514279    0.32075440415194395    0.37380615977214554    0.39616442148544817    0.281873655071567    
  0.16325723056819944    0.32748723816199626    0.2819324426189933    0.32795647592525706    0.396068083212167    
  0.3791648503576555    0.3187986922309395    0.2928012876884054    0.31878660698779254    0.37929653982141825    
  0.3961644886934566    0.32748723816199626    0.40327423859120826    0.39621316568807924    0.3960681365080724    
  0.40299133882820304    0.37381629317517023    0.3189533619778702    0.28199391869524304    0.28204718803867695    
  0.3187865621481969    0.3738062728137665    0.40327423859120826    0.3530397023544309    0.37389919513672126    
  0.37916480140568665    0.3738163087849345    0.35335773253600206    0.3206985342878871    0.2926806641295394    
  0.2819938552625711    0.29280120238811197    0.32075436292204057    0.3530397023544309    0.32174577348066363    
  0.3206559179990584    0.31879861581871527    0.31895327953225827    0.3206985036625296    0.32145336261836344    
  0.32069849710988557    0.31895329765607455    0.31879859684453854    0.32065597541502944    0.32174577348066363    
  0.3530396393787724    0.32075447639223464    0.29280116912222376    0.28199390636363025    0.2926806584653083    
  0.3206985320712463    0.35335777170287586    0.37381626748355595    0.3791648157716798    0.3738991540731102    
  0.3530396393787724    0.4032742552086887    0.3738062674536525    0.31878657818151057    0.2820470864139174    
  0.2819938960109035    0.3189533333285584    0.3738163102686168    0.40299140388375626    0.39606811198372244    
  0.39621320288434925    0.4032742552086887    0.32748719254688907    0.39616443942569296    0.3792965456849897    
  0.3187865974856043    0.2928012375260745    0.318798689437416    0.3791648579793473    0.3960682054215536    
  0.32795642171295736    0.2819325042900024    0.32748719254688907    0.16325727246668584    0.2818736657934193    
  0.3961644075566038    0.3738061901975538    0.32075438894384384    0.3206559168415207    0.37389914092445464    
  0.3962131429997577    0.2819324095906603    0.16295806379441227    0.16325727246668584    0.10072916741334217    
  0.16325726437794927    0.3274871447372818    0.4032742172754168    0.35303965449243147    0.3217458411215684    
  0.3530397331697903    0.4032742224956677    0.3274871660232237    0.16325730701083402    0.10072916741334217    
  0.05128729332673172    0.10489271529116104    0.28740380545718497    0.4131730609300271    0.378133621115198    
  0.34714779107970695    0.37813365442206903    0.41317304808055844    0.2874038281855899    0.10489275607566198    
  0.05128729332673172    0.10489268433402345    0.10461882863575041    0.2307576746998989    0.3908322977957567    
  0.39655830413304666    0.3455673626352699    0.34569715297411474    0.3964419002947552    0.3907391569177078    
  0.23071924017598583    0.10489268433402345    0.28740388367576736    0.23075773094436103    0.2879557368241594    
  0.3906332396638211    0.3999476052525468    0.34317198840784985    0.31624212466098284    0.34314942903440615    
  0.4001536995113603    0.39073919993722    0.28740388367576736    0.4131730762260583    0.3908323066890186    
  0.3906333210743366    0.4128179967016617    0.3964369151207809    0.3434042590155269    0.3046808603314444    
  0.3047639867166124    0.3431493692148952    0.39644200724698403    0.4131730762260583    0.3781336325601432    
  0.3965583351606336    0.39994752643351517    0.3964369439746341    0.37855820209530266    0.34562914562362534    
  0.3160564438219046    0.3046808517326528    0.31624203137703405    0.34569709537566673    0.3781336325601432    
  0.34714777328839597    0.3455674101831262    0.3431719454229631    0.34340416016647796    0.34562913441792165    
  0.34674916766677577    0.34562916319044895    0.34340415619571224    0.3431719298287603    0.345567426304444    