#     DFTpy    
  CRYSTAL 
    
  PRIMVEC    
  3.903734767831226    -2.1447879999999997e-10    4.0652908965517236e-10    
  -2.1447879999999997e-10    3.903734767604391    1.958853724137931e-10    
  7.428806551724137e-10    3.5801531034482757e-10    7.15171775151252    
  PRIMCOORD    
  4    1    
  Si    1.9518673838412388    1.95186738487637    2.197681739311073    
  Si    7.238027870565009e-10    -6.698698320513726e-10    1.3781771340411255    
  Si    1.1101433486693987e-10    5.05911691556499e-10    5.773540613414884    
  Si    1.9518673844264527    1.951867383393531    4.9540360168603685    
  BEGIN_BLOCK_DATAGRID_3D    
  3d_datagrid_density    
  BEGIN_DATAGRID_3D#0    
  17    17    31    
  0.0    0.0    0.0    
  3.903734767831226    -2.1447879999999997e-10    4.0652908965517236e-10    
  -2.1447879999999997e-10    3.903734767604391    1.958853724137931e-10    
  7.428806551724137e-10    3.5801531034482757e-10    7.15171775151252    
  0.2535126745150412    0.23524827135072301    0.18960366121516375    0.13697966594532565    0.09341193739097693    
  0.06390513383416943    0.04659892536732268    0.037886240773437226    0.03525017655366891    0.03788621633405043    
  0.04659893317675035    0.06390516847507811    0.09341196986483802    0.13697963770033916    0.18960367747053483    
  0.2352482547420749    0.2535126745150412    0.23524825544036634    0.2185550779824082    0.17694880051665018    
  0.1289323205852592    0.08890549193694414    0.06160389843655479    0.04550907337452935    0.03736357268199097    
  0.03488716756893985    0.037363544781807326    0.0455090708190876    0.06160390867286471    0.08890549053938004    
  0.12893224251329655    0.17694885934556562    0.21855510115581311    0.23524825544036634    0.18960365903794138    
  0.17694878212500084    0.14542059399330215    0.10865404922042374    0.07745851931278144    0.05576852558897809    
  0.042744254383212346    0.03602094014008297    0.03393790804526095    0.03602092986061415    0.04274428005295937    
  0.05576854789722517    0.07745850848212966    0.10865396859978149    0.14542060908235413    0.17694890557759796    
  0.18960365903794138    0.13697960985545699    0.12893225073153938    0.1086540452430021    0.0845136335379528    
  0.06354931287592881    0.04859803085465887    0.0393620664939332    0.03448279437163941    0.03295581225063759    
  0.03448276742785897    0.03936204450044991    0.04859802259531244    0.06354932519859703    0.0845135875441579    
  0.10865398222924771    0.12893229738715428    0.13697960985545699    0.09341194987910807    0.0889054680944715    
  0.07745848278896973    0.06354934510167613    0.05118120058053608    0.04213163704253121    0.03641725895949368    
  0.03340934795990647    0.032478131768783954    0.0334093467399986    0.03641723805848426    0.042131660881772635    
  0.051181208326676345    0.06354932813757436    0.077458510937779    0.08890548780329965    0.09341194987910807    
  0.06390514454507835    0.061603906020463665    0.05576850407180219    0.048598052946073896    0.04213162659156488    
  0.037412883989560615    0.03451014730489909    0.03305825726424229    0.03263436060635742    0.03305822127098065    
  0.03451018518837704    0.03741288299895598    0.04213164918774935    0.04859800207533527    0.0557685502405531    
  0.06160390014685613    0.06390514454507835    0.04659894259455523    0.04550905912924207    0.04274425289928378    
  0.03936209355782406    0.03641722757560745    0.034510131326453704    0.03359555246839174    0.03331587647448048    
  0.03327330715658784    0.03331587604581467    0.033595524483758146    0.03451017069934196    0.03641726040433893    
  0.03936204960399768    0.04274424694962453    0.04550909537609206    0.04659894259455523    0.03788619162133059    
  0.03736354322355399    0.03602091516001347    0.034482807158270984    0.03340933779224874    0.0330582676830091    
  0.03331586531996592    0.033773057036726284    0.033990221311523246    0.03377304692573018    0.03331587322498261    
  0.033058260334006946    0.033409378803480036    0.03448277019822615    0.036020913752956    0.037363560762082124    
  0.03788619162133059    0.035250188191607246    0.03488717779942729    0.03393792812618795    0.032955858912938195    
  0.03247808563325976    0.03263437228183958    0.0332732813110933    0.03399025304452098    0.03429466592301221    
  0.0339902316267639    0.033273320544042244    0.03263440210988434    0.032478111926899    0.03295580972639332    
  0.03393795329264006    0.03488716738585835    0.035250188191607246    0.0378862189922872    0.03736352766346492    
  0.03602091260599157    0.034482802866302176    0.033409332368621085    0.03305824944820198    0.03331586732567873    
  0.03377307927422197    0.03399024119798767    0.03377303428140531    0.03331585450732814    0.03305825287245428    
  0.03340934701863992    0.03448278542097837    0.036020951562325265    0.037363549610134404    0.0378862189922872    
  0.04659893698090132    0.04550906445750918    0.04274426416839077    0.03936210493696098    0.0364172324760454    
  0.03451017760298471    0.03359554033820763    0.03331587584413994    0.03327329844426905    0.03331588529096663    
  0.03359556918034644    0.034510189261397234    0.03641725649115724    0.03936203631645419    0.042744262161971094    
  0.045509111122293125    0.04659893698090132    0.06390511046085103    0.061603870002242475    0.05576852989084261    
  0.048598034462822494    0.042131639549705786    0.037412895512081906    0.03451015555980526    0.033058233944880736    
  0.03263437895142458    0.03305821510444767    0.034510158265263234    0.037412898342782795    0.04213166732025475    
  0.04859797580194359    0.05576855416318499    0.06160390410779395    0.06390511046085103    0.09341195978966639    
  0.08890547976095828    0.07745847825031925    0.06354935566642858    0.05118117899862952    0.042131639372480136    
  0.03641723140040761    0.033409347897643826    0.0324780861627315    0.033409375336145755    0.036417235120371434    
  0.042131661048228214    0.051181210097554886    0.06354930218161166    0.07745851179967057    0.08890544414745546    
  0.09341195978966639    0.13697964985801878    0.1289322672815139    0.10865397239293158    0.08451369114181681    
  0.06354931507032119    0.04859801941616842    0.03936203819494837    0.03448281224853559    0.03295581572698357    
  0.03448279185928912    0.039362072961302105    0.04859800334902281    0.06354932621179835    0.08451359407642192    
  0.10865400702235635    0.1289323445981451    0.13697964985801878    0.18960364269557167    0.17694875918701908    
  0.14542057318691523    0.10865404620076488    0.07745853428424655    0.055768547951845555    0.042744265031009185    
  0.03602095216907228    0.03393791922643841    0.036020938360209476    0.042744256711364635    0.055768540347464576    
  0.07745852463403473    0.10865400461798876    0.1454206167534212    0.1769488566855111    0.18960364269557167    
  0.23524824321752627    0.2185550147394458    0.17694881560334122    0.12893230513736437    0.08890546326710946    
  0.0616039062591118    0.04550909972902789    0.0373635581170548    0.03488716757180874    0.037363529685718155    
  0.045509089674296094    0.061603941733239416    0.0889055168508844    0.12893223342664945    0.17694875700192744    
  0.21855506807581357    0.23524824321752627    0.2535126745150412    0.23524827135072301    0.18960366121516375    
  0.13697966594532565    0.09341193739097693    0.06390513383416943    0.04659892536732268    0.037886240773437226    
  0.03525017655366891    0.03788621633405043    0.04659893317675035    0.06390516847507811    0.09341196986483802    
  0.13697963770033916    0.18960367747053483    0.2352482547420749    0.2535126745150412    0.28961758432198276    
  0.26839652211350323    0.21529620843562342    0.1539634093651643    0.10323324458575055    0.06910646116968097    
  0.049263397557610326    0.03941299936227687    0.036480122657243624    0.039412986597018564    0.04926343161268403    
  0.06910649120740713    0.10323328715655973    0.1539633229185266    0.2152961867633958    0.2683965617169877    
  0.28961758432198276    0.2683965799005103    0.24904584118167608    0.20067099835773392    0.1446728997066542    
  0.09810002555514713    0.06654824887136175    0.04809730336213635    0.03889420036039666    0.036140863104220954    
  0.038894149304747196    0.04809729562308871    0.06654827682866317    0.09810001651192077    0.14467283011785162    
  0.20067106011876062    0.24904590133829252    0.2683965799005103    0.21529615786079298    0.200670976102231    
  0.16402600190540595    0.12121450402682853    0.0850470908495577    0.06007346914549759    0.04518704074907435    
  0.03762697639791075    0.03533145472462201    0.037626973976435885    0.04518705216904776    0.06007350662504038    
  0.08504708124857835    0.12121440082303984    0.16402608449102826    0.20067111579145816    0.21529615786079298    
  0.15396332190293804    0.14467284689267448    0.12121449082200614    0.09332322524177494    0.06922956730591306    
  0.052160444241254524    0.04171673725282418    0.03628986814089531    0.03461593176209517    0.03628984547417722    
  0.04171670906067199    0.05216045247184827    0.06922958463985432    0.09332316598745372    0.12121442191729506    
  0.1446728805141061    0.15396332190293804    0.10323326367097663    0.09810002004198083    0.0850470527468391    
  0.06922958464923301    0.055228707243133564    0.04509842228972084    0.038802845671482754    0.035515512680316295    
  0.034505230744370105    0.03551551559990658    0.03880285197320962    0.04509843669980008    0.05522872221867444    
  0.06922956267913402    0.08504706435761218    0.09810007083613048    0.10323326367097663    0.06910648876744806    
  0.06654826691506119    0.06007346552927259    0.052160474832916574    0.04509842387145356    0.040058521694381545    
  0.037045433971349295    0.03557257997943566    0.03514527404302998    0.03557255249599781    0.0370454759818921    
  0.04005850159322907    0.04509844415900059    0.05216042660937535    0.060073495207043144    0.06654829342936379    
  0.06910648876744806    0.04926342650618837    0.04809729708283909    0.045187043731284335    0.041716753210465383    
  0.038802832410545066    0.03704544780106672    0.03635554467827865    0.03627250868892279    0.036316927328581584    
  0.03627250993859995    0.03635555037874606    0.0370454675343903    0.038802849405316565    0.04171671479196062    
  0.04518703738623607    0.04809731786641379    0.04926342650618837    0.0394129436451031    0.03889416151700964    
  0.03762696916719932    0.036289862112775045    0.03551551409690766    0.03557259596473935    0.036272510630423464    
  0.037084532190513206    0.03743946649713918    0.03708449146471877    0.036272497115538205    0.03557260742774867    
  0.0355155412741279    0.0362898389601443    0.037626968834357635    0.0388941801336544    0.0394129436451031    
  0.036480125601172836    0.0361408770969796    0.035331492820069664    0.03461595532588734    0.03450520437113793    
  0.035145264319066366    0.036316888180391534    0.03743946623987858    0.03790620685671737    0.03743946945695192    
  0.03631690589699624    0.035145277781490764    0.03450521731400886    0.03461590498594589    0.03533149766257483    
  0.0361408688297853    0.036480125601172836    0.03941296297002446    0.03889416529824059    0.03762696230461584    
  0.036289885031411256    0.03551551189298959    0.035572583910179326    0.036272503903523975    0.03708452946055546    
  0.0374394904263773    0.03708452774700091    0.036272482566648986    0.03557258633254889    0.03551552949193544    
  0.03628985722859892    0.037626990356954035    0.03889418096617624    0.03941296297002446    0.04926343606630988    
  0.04809730250346218    0.04518703619594724    0.0417167544878479    0.03880284616487984    0.03704544585706855    
  0.03635558366977934    0.03627249016423691    0.03631689437363357    0.036272524842146506    0.036355552661787374    
  0.03704546307553355    0.038802867395645944    0.041716697639994714    0.04518705808637566    0.048097337839556456    
  0.04926343606630988    0.06910644561184791    0.06654824713555642    0.06007349480315288    0.05216045463836214    
  0.045098412779332485    0.04005852314542155    0.03704544043306091    0.03557258425384254    0.03514525991946633    
  0.03557255731581526    0.03704544077333823    0.04005856294965517    0.045098438536542156    0.052160409346789546    
  0.060073483820313994    0.06654827070283671    0.06910644561184791    0.10323329945394306    0.09810004645895146    
  0.08504704636488383    0.06922960504162887    0.05522869988595945    0.04509841715271479    0.038802847442071305    
  0.0355155148470106    0.03450522404634913    0.03551552976595281    0.038802842982223335    0.04509844515569684    
  0.05522872778200938    0.06922955978091637    0.08504709631581726    0.09810002076128993    0.10323329945394306    
  0.15396331696683022    0.14467284770402813    0.12121440025935412    0.09332323859891267    0.06922955462504704    
  0.052160444550117195    0.04171670090801837    0.03628989702404827    0.03461591311902708    0.03628984434360525    
  0.04171674077365297    0.05216043359917254    0.06922957637851368    0.09332317127732868    0.1212144502456038    
  0.14467292968996695    0.15396331696683022    0.21529618269137946    0.2006709675298788    0.16402600725215055    
  0.1212145092072934    0.08504705715038655    0.060073475538945334    0.045187035512383865    0.037626992486338606    
  0.035331473264111096    0.037626981630270125    0.04518704089640332    0.060073486909373496    0.08504710280683349    
  0.12121440281857825    0.16402602370935196    0.20067105446569805    0.21529618269137946    0.2683965002301017    
  0.24904582805198408    0.20067103350298218    0.1446728991525868    0.09810002510839375    0.06654826277883732    
  0.048097312000071696    0.03889416888709503    0.03614085708073231    0.03889413484033726    0.04809730853737465    
  0.06654831307552347    0.09810007058616457    0.1446728140096289    0.20067099865197371    0.2490458614580023    
  0.2683965002301017    0.28961758432198276    0.26839652211350323    0.21529620843562342    0.1539634093651643    
  0.10323324458575055    0.06910646116968097    0.049263397557610326    0.03941299936227687    0.036480122657243624    
  0.039412986597018564    0.04926343161268403    0.06910649120740713    0.10323328715655973    0.1539633229185266    
  0.2152961867633958    0.2683965617169877    0.28961758432198276    0.38137897646652036    0.35714757835994565    
  0.2906248238004946    0.20612558408456083    0.13327006053047152    0.08462918893988447    0.057132960784808076    
  0.04388667778989279    0.040036307201418535    0.043886646194867075    0.057132983954178325    0.08462919643400872    
  0.13327008674205973    0.20612541352151145    0.290624771573089    0.35714763934892985    0.38137897646652036    
  0.3571475632789277    0.33388300200318843    0.2712249917589687    0.19307800488947485    0.12617632914752994    
  0.08137477423362148    0.0558439597265308    0.04346699464176615    0.039855139674127744    0.043466924930279816    
  0.055843946703840505    0.08137481103644854    0.12617633908306622    0.19307791069103122    0.27122517240894184    
  0.3338830934117114    0.3571475632789277    0.2906246937458482    0.27122502002884147    0.2207655186405276    
  0.15987043359237413    0.10819129861177236    0.07310044348574751    0.052661914564809446    0.04256812170305176    
  0.03959716837538952    0.042568109558030615    0.05266193323946648    0.07310046602045804    0.10819127836658271    
  0.15987031350821576    0.2207654847505313    0.2712251817200728    0.2906246937458482    0.20612543756537877    
  0.1930778310775666    0.15987043963901224    0.12040883916492248    0.08663649314321976    0.06313507183461416    
  0.04907581366766334    0.04197533823326474    0.039850943297699684    0.041975317672722494    0.049075784624514895    
  0.06313510445240327    0.086636536667622    0.12040877269824567    0.15987033631428288    0.19307796100081995    
  0.20612543756537877    0.1332700666967389    0.1261762758405566    0.10819127111814955    0.0866365218055306    
  0.06781994284596887    0.05449300993789873    0.04647180105976566    0.042399380692123595    0.041169678789597174    
  0.0423993766684876    0.04647181291453916    0.05449303530985853    0.06781996704792784    0.0866364699798654    
  0.10819130115009402    0.1261763629186115    0.1332700666967389    0.08462917708667017    0.08137480080723436    
  0.07310043010839593    0.06313510236702882    0.054493009986408845    0.048657343746660954    0.04549670333787465    
  0.04413397228582951    0.04378273409462355    0.04413398334111956    0.045496723307408976    0.0486573686475592    
  0.054493039204409864    0.0631350546800225    0.07310047427721908    0.08137482473150155    0.08462917708667017    
  0.05713299191729606    0.055843920211888    0.05266189539950875    0.04907582828517813    0.0464718082212928    
  0.04549669734563745    0.045852787419964444    0.04670407670464691    0.04713907107370637    0.04670406770098056    
  0.0458527244040961    0.04549671395327408    0.04647179723715087    0.049075789277908205    0.05266191735186168    
  0.05584397098058137    0.05713299191729606    0.04388662243211188    0.043466941519927214    0.04256811135691192    
  0.04197533770971655    0.0423993742501345    0.044134004647956165    0.046704091383359854    0.049040784704787496    
  0.04999992833795983    0.04904076879581093    0.046704053456462745    0.04413402570676784    0.042399391484324624    
  0.0419753135095192    0.042568099095364326    0.04346697585543132    0.04388662243211188    0.040036324726830955    
  0.039855152518667815    0.0395971832073673    0.03985098424911569    0.041169668262882764    0.04378274216916085    
  0.04713908006808754    0.04999992945474764    0.05113517502871358    0.04999994064706936    0.04713906731117474    
  0.04378272265384405    0.04116969768525205    0.03985092589870811    0.03959721132643772    0.039855150181376024    
  0.040036324726830955    0.04388661982131306    0.04346694498256819    0.04256808775497847    0.04197535603571736    
  0.04239936367946523    0.0441339970459506    0.04670408185049098    0.049040842432389355    0.049999955251239486    
  0.049040775530807976    0.04670404045034102    0.044133996037333166    0.04239938624927379    0.04197532328488929    
  0.042568129551854794    0.043466978318222764    0.04388661982131306    0.05713299180218336    0.05584395274838401    
  0.05266191126051716    0.04907584325309508    0.04647181047671161    0.04549669481101866    0.045852766298663306    
  0.046704058383356485    0.04713905522328999    0.04670405691041206    0.0458527649106689    0.04549672780918817    
  0.04647182959424279    0.04907578990816818    0.05266193583999789    0.055843983305538435    0.05713299180218336    
  0.08462914405318829    0.08137479706422183    0.0731004879272704    0.06313509279245745    0.05449302305201366    
  0.04865735509569726    0.045496727501621856    0.04413399703321154    0.043782700390769945    0.044133952632093715    
  0.04549669001509845    0.04865739237232929    0.054493029446503444    0.0631350271586717    0.07310045759362468    
  0.08137479157323374    0.08462914405318829    0.13327013212576955    0.12617633837086092    0.10819126290058383    
  0.0866365112343869    0.06781992594147716    0.05449301365539114    0.046471791552248995    0.042399383102161556    
  0.04116967474569152    0.04239938530197041    0.04647179696907563    0.05449302876503227    0.06781996543622164    
  0.08663649587066975    0.10819128747093663    0.12617632790564948    0.13327013212576955    0.2061254042075528    
  0.19307785271500932    0.15987033510861595    0.12040888915172238    0.08663648128359717    0.06313507515632212    
  0.049075783196683556    0.0419753715109274    0.039850940029309764    0.041975328266080726    0.04907580766787805    
  0.0631350753648839    0.0866365025324076    0.12040880777461763    0.15987040573792935    0.19307795550371806    
  0.2061254042075528    0.29062478233545125    0.2712249988502582    0.22076540843698986    0.1598704107730984    
  0.1081912546033809    0.07310046229216272    0.05266192899486666    0.04256813255847222    0.03959717971915536    
  0.04256811986824378    0.05266191899330938    0.07310047487647434    0.1081913104137115    0.1598703559381835    
  0.22076543154066397    0.27122517714698563    0.29062478233545125    0.3571475525895992    0.3338829291116656    
  0.2712250682337881    0.19307790586624052    0.12617632747437954    0.08137477482220207    0.05584394652642087    
  0.04346697198022608    0.03985514660963547    0.043466914522172995    0.05584395745345662    0.08137483045086935    
  0.12617634731774374    0.19307782791837727    0.2712250768813444    0.3338830068559449    0.3571475525895992    
  0.38137897646652036    0.35714757835994565    0.2906248238004946    0.20612558408456083    0.13327006053047152    
  0.08462918893988447    0.057132960784808076    0.04388667778989279    0.040036307201418535    0.043886646194867075    
  0.057132983954178325    0.08462919643400872    0.13327008674205973    0.20612541352151145    0.290624771573089    
  0.35714763934892985    0.38137897646652036    0.4119182869259421    0.41271904270550813    0.37883254210983924    
  0.28527667811487883    0.1817245505943077    0.10945123241041538    0.06956287766974142    0.05094988768323697    
  0.04562587890802846    0.05094984450443949    0.0695628918581049    0.10945128346089139    0.18172457863772082    
  0.28527644771135113    0.37883255032461177    0.41271908294144033    0.4119182869259421    0.4127190363611539    
  0.40631578116562134    0.361466555631264    0.2680920669068501    0.1717183785853211    0.10524793361462349    
  0.06828700307538425    0.050866082705462674    0.045866365606700134    0.05086602051837111    0.06828699440877603    
  0.10524797438263042    0.1717184109323498    0.26809197001055496    0.3614667525863042    0.4063159638222203    
  0.4127190363611539    0.37883244760394597    0.36146658739636656    0.3049191511482848    0.22222327843572914    
  0.1462382701492437    0.09454957263512462    0.06517331206806223    0.05101059720659781    0.04691149116908997    
  0.05101061165896841    0.06517332487529406    0.09454963153790662    0.1462382259425495    0.2222231733368708    
  0.30491913713481383    0.36146682730403995    0.37883244760394597    0.2852765702731863    0.26809192831418655    
  0.22222323905581115    0.1652811690786121    0.11588612190030548    0.08196321340305944    0.06215184366514842    
  0.052387975470688006    0.04953775532080185    0.052387937722881826    0.062151819422643466    0.0819632627729755    
  0.11588614228363307    0.16528106257870417    0.22222319547019595    0.268091992717918    0.2852765702731863    
  0.1817245809418795    0.17171836773886753    0.1462382282078959    0.11588611720934996    0.08974763740909378    
  0.07164629316895745    0.06113491476594959    0.05605115174729227    0.05458176953698571    0.056051150809143545    
  0.06113492316100514    0.07164635671922316    0.08974766945857691    0.11588606846641117    0.14623823105742106    
  0.17171849250948387    0.1817245809418795    0.10945124383529006    0.10524795628568294    0.09454956215785475    
  0.08196323161448926    0.07164630203313893    0.06537682739876108    0.06277578456195139    0.06225117655780277    
  0.06227642003011815    0.062251143949866    0.0627758292765392    0.06537682051594008    0.07164634251672587    
  0.08196320286411882    0.09454960059894767    0.10524798820807564    0.10945124383529006    0.06956290403179953    
  0.06828696238988469    0.06517330074364563    0.06215187161269293    0.06113493341911406    0.06277578923427556    
  0.06628245164895752    0.06981872983967682    0.0713133001484173    0.06981874938227353    0.06628241246645693    
  0.0627758198997486    0.06113491066134941    0.06215181189157778    0.06517330414868724    0.06828703597865478    
  0.06956290403179953    0.050949826048212604    0.0508660311354128    0.05101059269403887    0.05238797532014931    
  0.0560511582028945    0.062251184533255385    0.06981868997201512    0.07626269989264751    0.07883154550858378    
  0.07626264725426778    0.06981872234570057    0.06225118880556945    0.05605119743522138    0.052387954736467526    
  0.05101059459139579    0.05086607426056966    0.050949826048212604    0.045625878588598526    0.045866384756392355    
  0.04691149192229965    0.04953782231381923    0.05458176481030864    0.062276436761003015    0.07131328531485472    
  0.07883155180934404    0.0817751791250721    0.07883152911859906    0.07131330841874826    0.06227641514624747    
  0.05458177733507908    0.04953776408846253    0.046911531575316995    0.04586636147134083    0.045625878588598526    
  0.05094984272153941    0.05086604470997614    0.05101059045367123    0.05238798368644374    0.05605115797053091    
  0.062251188693707195    0.06981871705067938    0.07626271819857061    0.07883155920075395    0.07626263154867276    
  0.06981867236753588    0.06225119281251503    0.056051182509426964    0.05238795935911677    0.05101062933099026    
  0.05086606055885173    0.05094984272153941    0.06956290932076382    0.06828698902523263    0.06517330536555208    
  0.062151875710820266    0.06113492683427745    0.06277578471809003    0.06628242751503068    0.06981871670838216    
  0.07131327334859683    0.06981870724068892    0.06628242351494902    0.06277583407748324    0.06113493913089472    
  0.062151818483216666    0.06517333001832581    0.06828704373063703    0.06956290932076382    0.10945122229518875    
  0.10524795623924964    0.09454960979486315    0.08196322971968409    0.07164633057910688    0.06537681214778343    
  0.06277580801082058    0.062251181759686525    0.062276376362390605    0.062251119916942516    0.06277577001186223    
  0.06537686416918213    0.07164635348196112    0.08196318391168252    0.09454959645227395    0.10524795159766306    
  0.10945122229518875    0.18172462152850957    0.1717184398961695    0.14623820838050902    0.1158861279202352    
  0.08974761570728841    0.07164632215735552    0.06113490796103429    0.056051152067750395    0.05458175107603124    
  0.0560511680347274    0.061134913724164235    0.0716463549942155    0.08974769152075454    0.11588610093790518    
  0.14623825655550443    0.17171842667119405    0.18172462152850957    0.2852765411963598    0.26809197471384316    
  0.2222231712563878    0.16528122241488166    0.11588607222425779    0.0819632216161399    0.06215184077537294    
  0.052388001794541575    0.04953776697823802    0.05238793541169616    0.06215186405425792    0.08196321496418904    
  0.11588610463933353    0.16528107103267403    0.22222322914672235    0.26809203438804124    0.2852765411963598    
  0.37883248999600244    0.361466600225311    0.304919105363309    0.22222328855685297    0.14623821520821498    
  0.0945495893060015    0.06517330890447455    0.05101062331248081    0.04691148885532562    0.05101060905509371    
  0.06517332035212581    0.09454960505463665    0.14623828433509273    0.22222315452178423    0.3049190738359323    
  0.36146671635177063    0.37883248999600244    0.4127190274126031    0.40631571850413856    0.36146670356415905    
  0.26809201359297685    0.17171840821558396    0.1052479568227721    0.06828701456092652    0.0508660597690857    
  0.04586637244926887    0.050866009887814964    0.06828700108956394    0.1052480198605611    0.17171845163933946    
  0.26809186277351205    0.36146667342078637    0.4063158933385041    0.4127190274126031    0.4119182869259421    
  0.41271904270550813    0.37883254210983924    0.28527667811487883    0.1817245505943077    0.10945123241041538    
  0.06956287766974142    0.05094988768323697    0.04562587890802846    0.05094984450443949    0.0695628918581049    
  0.10945128346089139    0.18172457863772082    0.28527644771135113    0.37883255032461177    0.41271908294144033    
  0.4119182869259421    0.2527589506988437    0.3050648971880409    0.38968570473696446    0.35723303949489843    
  0.23775671283814495    0.13930408354507703    0.08463355619245864    0.05975685119993392    0.05273797246175408    
  0.05975683437177518    0.08463360251022019    0.13930409037680544    0.2377567113967016    0.3572328902752477    
  0.38968575554447515    0.30506493195789197    0.2527589506988437    0.30506480716558126    0.34582349564562903    
  0.3965369185983184    0.3419352310148855    0.22546572153483638    0.13437392279563973    0.08369969632657308    
  0.06036959942819573    0.05375366448585717    0.06036954548978196    0.08369967208184899    0.13437394208019543    
  0.22546570067891225    0.34193511309899915    0.39653701241987943    0.3458235834012113    0.30506480716558126    
  0.3896856837321544    0.39653682466963874    0.3759634038456219    0.29264734089158    0.19325244294123534    
  0.12195098189160367    0.0818238669520651    0.06283591943754736    0.057398852772261394    0.06283592152643583    
  0.0818238550721536    0.12195103749520425    0.19325243531706546    0.29264719803030975    0.37596344526590236    
  0.39653701713844847    0.3896856837321544    0.3572329029974334    0.34193513708677337    0.2926473290703723    
  0.22077980311006284    0.1540827721740431    0.10803646202445769    0.08156422669564689    0.06876403310470827    
  0.06509523819135735    0.06876399719623888    0.08156420902468993    0.10803651020669186    0.15408282764594447    
  0.22077972053723022    0.29264724543524984    0.341935119877659    0.3572329029974334    0.23775669162618177    
  0.22546569217999535    0.19325242969932868    0.15408283135145323    0.1205398288019587    0.09792331789023204    