#     DFTpy    
  CRYSTAL 
    
  PRIMVEC    
  3.111310344827586    0.0    0.0    
  0.0    3.111310344827586    0.0    
  0.0    0.0    3.111310344827586    
  PRIMCOORD    
  2    1    
  Si    0.0    0.0    0.0    
  Si    1.555655172413793    1.555655172413793    1.555655172413793    
  BEGIN_BLOCK_DATAGRID_3D    
  3d_datagrid_density    
  BEGIN_DATAGRID_3D#0    
  15    15    15    
  0.0    0.0    0.0    
  3.111310344827586    0.0    0.0    
  0.0    3.111310344827586    0.0    
  0.0    0.0    3.111310344827586    
  0.05391315471121753    0.09286797802224406    0.23082017027684815    0.3682395124908755    0.3490379271807412    
  0.25776643996458515    0.19348387498683817    0.17289292722800892    0.19348387367707462    0.257766425603957    
  0.34903793298705277    0.3682394693121805    0.2308201690266351    0.09286796861389121    0.05391315471121753    
  0.092867977871321    0.1384656864399202    0.2738844641679288    0.38016138738352756    0.343370393639548    
  0.2533791374636241    0.19222814797605808    0.17263825026114699    0.19222815550998587    0.2533791244076254    
  0.34337043721494553    0.3801612824462699    0.27388447726590054    0.13846571032346688    0.092867977871321    
  0.23082017769338276    0.2738845411639528    0.3627386938886863    0.38824980071066195    0.32275496674445875    
  0.24118359383633525    0.18892125550664687    0.17201992290800092    0.18892124916698433    0.24118360835946803    
  0.3227549366269564    0.3882497431983802    0.36273870783106854    0.2738845599583874    0.23082017769338276    
  0.3682395418095641    0.3801613615451778    0.38824976195570665    0.3525119214656272    0.2851789356548486    
  0.22328071462820873    0.18440337546147617    0.1714645444174659    0.18440339915893791    0.22328075061259345    
  0.28517894427478063    0.3525119491207765    0.3882497404060568    0.3801613859089397    0.3682395418095641    
  0.3490379427654089    0.3433704602843859    0.3227549909952013    0.28517893892357515    0.2409193916881083    
  0.20364010622196863    0.17974142686424813    0.17146455784687922    0.1797414534224396    0.20364011706223578    
  0.2409193749253695    0.28517893052246496    0.3227549200674803    0.3433704674549092    0.3490379427654089    
  0.2577664608090804    0.25337916809759486    0.24118356742114574    0.22328068697093745    0.2036400961214271    
  0.18701569508095992    0.17598102877820015    0.17201987533804378    0.17598103000415485    0.18701569349973257    
  0.20364010627015824    0.22328066384372958    0.2411835672634017    0.2533791675041989    0.2577664608090804    
  0.19348386233795378    0.1922281678386632    0.18892120605224466    0.18440338514323076    0.17974142497953982    
  0.1759810061754422    0.1735353744639477    0.17263828935448527    0.17353537006804245    0.17598100641140607    
  0.17974140495071753    0.184403367835506    0.18892123153747603    0.19222814313339726    0.19348386233795378    
  0.17289290633233878    0.17263825501632937    0.1720198990749804    0.17146454555641014    0.17146451599092552    
  0.17201988520759778    0.1726382549081809    0.17289294528247542    0.17263826795636347    0.17201988304746207    
  0.17146450415219644    0.17146453583689394    0.1720198973132593    0.1726382369044491    0.17289290633233878    
  0.1934838890974801    0.19222815508463761    0.18892119672293314    0.18440338332916348    0.1797414317244557    
  0.1759809827313119    0.17353536616576118    0.17263829798002014    0.17353535185717434    0.17598101141226077    
  0.17974143769202078    0.18440338368934928    0.18892122756372712    0.19222816124130881    0.1934838890974801    
  0.25776645043659874    0.25337915860973814    0.24118355893889237    0.2232806879920964    0.20364010882261177    
  0.1870157195576467    0.17598104114412083    0.17201990685361723    0.17598102008318375    0.18701570274714585    
  0.20364010376818756    0.22328068018843553    0.24118355589641421    0.2533792056547657    0.25776645043659874    
  0.34903796229697    0.34337042285393077    0.32275500697777465    0.28517895533794624    0.24091939690171782    
  0.20364012054585137    0.1797414553344633    0.17146455636128427    0.17974146587819032    0.2036401017935652    
  0.24091938582325292    0.2851789154137764    0.3227549616063597    0.34337045042440006    0.34903796229697    
  0.3682395272042395    0.38016144501053545    0.3882497863502144    0.352511913002433    0.2851789390121343    
  0.22328070604761321    0.18440339787561996    0.17146453883156632    0.18440340668673483    0.22328070385531798    
  0.28517892234130815    0.35251191848033187    0.3882496995139831    0.3801613980241753    0.3682395272042395    
  0.23082021602252278    0.2738845383970478    0.36273864947991125    0.3882496822323632    0.32275500382445765    
  0.2411836000383777    0.18892124927365775    0.1720199159997317    0.18892125992802306    0.24118360754453305    
  0.32275496986969665    0.3882497865190708    0.3627387087232433    0.27388454243824806    0.23082021602252278    
  0.09286796515908499    0.13846570436443656    0.2738844327128726    0.38016141102770246    0.3433704284848131    
  0.2533791477184734    0.1922281487123953    0.17263825959713128    0.19222817165146502    0.25337909107555007    
  0.3433704262517816    0.3801613338474727    0.2738844708372333    0.1384657093921936    0.09286796515908499    
  0.05391315471121753    0.09286797802224406    0.23082017027684815    0.3682395124908755    0.3490379271807412    
  0.25776643996458515    0.19348387498683817    0.17289292722800892    0.19348387367707462    0.257766425603957    
  0.34903793298705277    0.3682394693121805    0.2308201690266351    0.09286796861389121    0.05391315471121753    
  0.09286796064490146    0.1384657042729094    0.2738844677545656    0.380161347728509    0.3433704048973965    
  0.25337909146779647    0.19222815786420516    0.17263827732842882    0.1922281469755709    0.25337912585530636    
  0.34337041041775124    0.38016129529174486    0.2738844984642188    0.13846570590186955    0.09286796064490146    
  0.13846570797513258    0.18671204078729978    0.31136158441602524    0.38782782232607804    0.3380208337991398    
  0.25025158150832233    0.19216620541722612    0.17353537990555098    0.19216620236138302    0.2502516236998486    
  0.3380208788322274    0.38782779676086654    0.3113616058837529    0.18671204445096806    0.13846570797513258    
  0.27388450250686813    0.31136169973364203    0.3811801431772689    0.3881101319564318    0.3194063722138507    
  0.24150545654241218    0.19204029466739522    0.17598103387301395    0.19204031948693603    0.24150547813910728    
  0.3194063200321625    0.3881100493044634    0.3811801375982276    0.31136169660200164    0.27388450250686813    
  0.38016143802731456    0.3878278063261382    0.38811013471637273    0.35009524445693996    0.2862761218288899    
  0.2284406738120952    0.19195101786715646    0.1797414464806971    0.19195103591220336    0.22844066166129842    
  0.2862761325505291    0.35009530530682126    0.38811010449884353    0.3878278713438322    0.38016143802731456    
  0.34337044752947654    0.3380208383582143    0.31940636094285785    0.2862761098896313    0.24711464777011274    
  0.21364418485116224    0.19195098191866888    0.1844033842252934    0.19195105063587178    0.2136441915829902    
  0.2471146131569915    0.286276115986852    0.31940629869576026    0.3380208876387416    0.34337044752947654    
  0.25337916457641624    0.25025164803278305    0.2415054469732817    0.22844064419611484    0.2136441898383772    
  0.20073076198016185    0.19204027139632504    0.18892126084331726    0.19204028757329875    0.20073082063320588    
  0.21364418629841717    0.2284406451540437    0.24150545453205993    0.2502516488111126    0.25337916457641624    
  0.1922281259360111    0.1921662248895761    0.19204027531028744    0.1919510157627363    0.19195099706797053    
  0.1920402528325599    0.19216621090526242    0.19222817026502728    0.19216623361569266    0.19204023535355302    
  0.19195100958337172    0.19195100548850658    0.1920402818714786    0.19216618610389527    0.1922281259360111    
  0.17263823620522742    0.17353538527039875    0.17598100418496487    0.17974145515389958    0.1844033461387788    
  0.18892123078368991    0.19222811692646194    0.19348389460935833    0.19222813872335934    0.1889212534219928    
  0.18440335942015065    0.1797414305444844    0.1759809984328716    0.17353535369518144    0.17263823620522742    
  0.1922281558172574    0.1921661917380534    0.19204024632351616    0.19195102375908402    0.19195103173300915    
  0.19204025179322207    0.19216623147101694    0.19222815658815576    0.19216620293079115    0.19204023890504884    
  0.19195101301550746    0.1919510104341834    0.19204026736316498    0.19216619683037164    0.1922281558172574    
  0.25337917502280605    0.2502516167530413    0.24150542978593334    0.22844065055573384    0.21364416899577487    
  0.20073080427055087    0.1920402639953084    0.18892129395411444    0.1920402858625751    0.20073079256021    
  0.21364415960300423    0.22844063132475373    0.24150547531774072    0.25025163849516574    0.25337917502280605    
  0.3433704369607615    0.3380208325682891    0.31940636622087387    0.2862760915770104    0.2471146376809132    
  0.21364419582902883    0.19195102343319118    0.1844034052417007    0.19195102278777973    0.213644186551136    
  0.2471146955579893    0.28627610055507574    0.31940630787471497    0.33802089011627945    0.3433704369607615    
  0.3801613815133137    0.38782790162556185    0.3881101430882707    0.35009527831869935    0.28627611100792716    
  0.2284406327521087    0.19195101685344426    0.17974145011517995    0.19195102831807112    0.2284406524442044    
  0.2862760735746196    0.35009526849272965    0.38811006951520993    0.3878278424590793    0.3801613815133137    
  0.27388452608669633    0.3113616662145832    0.38118006190715975    0.3881100225791334    0.31940635978189785    
  0.2415054592028568    0.19204029766622385    0.17598101546358969    0.19204030112215742    0.24150548142267872    
  0.31940636843177367    0.38811011154296915    0.38118016041176844    0.3113616799687568    0.27388452608669633    
  0.13846569982404494    0.18671206599341686    0.3113616239699686    0.38782786355976706    0.33802081056966055    
  0.25025161023581294    0.19216618699183574    0.17353537278569192    0.19216621799689562    0.2502515803547337    
  0.3380208339265828    0.38782779439196496    0.3113616334031611    0.186712054393123    0.13846569982404494    
  0.09286796064490146    0.1384657042729094    0.2738844677545656    0.380161347728509    0.3433704048973965    
  0.25337909146779647    0.19222815786420516    0.17263827732842882    0.1922281469755709    0.25337912585530636    
  0.34337041041775124    0.38016129529174486    0.2738844984642188    0.13846570590186955    0.09286796064490146    
  0.23082019670953247    0.2738845470811675    0.36273872506348864    0.3882497570205421    0.32275499311396416    
  0.2411835661493043    0.1889212598816509    0.17201993080974054    0.188921270194788    0.24118356666696922    
  0.3227549769145702    0.38824971731009283    0.362738710054889    0.2738845242955241    0.23082019670953247    
  0.27388454254121347    0.31136169231082944    0.3811800749421203    0.3881101314864609    0.3194063227203669    
  0.24150544970793533    0.1920403087607479    0.1759810367150797    0.19204029456110044    0.241505422646133    
  0.31940634741419266    0.38811014495314183    0.3811801057413713    0.31136169482390885    0.27388454254121347    
  0.36273872374339206    0.38118021303716937    0.40329599331839716    0.3762218944495232    0.3081255328707395    
  0.24227342688746087    0.2007307584049231    0.18701575442977042    0.20073078431192284    0.24227342161768697    
  0.3081254989094242    0.37622186413121383    0.40329600590672154    0.3811801886121506    0.36273872374339206    
  0.38824982201609387    0.3881101090793534    0.3762218632946624    0.33935130270118374    0.2882550299000571    
  0.24290152644697613    0.2136442398583253    0.20364008945875928    0.21364422730618898    0.2429015381251372    
  0.2882550134955474    0.33935136597228727    0.3762218290921828    0.38811016602282283    0.38824982201609387    
  0.32275505220007217    0.3194063651991832    0.30812553350702276    0.2882550144375874    0.26426457584743246    
  0.2429015424130518    0.22844060297686702    0.2232807519691619    0.22844064694966848    0.24290152833924317    
  0.26426455959422507    0.2882550302180466    0.3081254581137823    0.31940638795807225    0.32275505220007217    
  0.24118361557187093    0.2415055163323061    0.24227338113881425    0.24290147308106796    0.24290154328933325    
  0.24227337148887818    0.24150548222191653    0.24118357752760874    0.24150550914940097    0.24227343211317887    
  0.24290153164007777    0.24290149974765682    0.2422733954859529    0.2415054998136408    0.24118361557187093    
  0.18892125747415192    0.1920403159157674    0.20073075731401452    0.2136442062103238    0.2284406135257885    
  0.24150546491376165    0.25025159727229657    0.25337922206050534    0.25025161898655407    0.24150546017657246    
  0.2284406479669463    0.21364416192866073    0.2007307792981885    0.19204028464907008    0.18892125747415192    
  0.17201989879358648    0.17598102516959438    0.18701572930178934    0.20364009576808034    0.22328069652335283    
  0.24118353080751542    0.253379175848384    0.25776646259856545    0.2533791829936897    0.24118355986007398    
  0.22328069894795974    0.20364010810542585    0.1870157280534995    0.1759810224798062    0.17201989879358648    
  0.18892129873446942    0.19204032081229322    0.20073073800346342    0.21364421528112093    0.2284406049542669    
  0.24150546585024907    0.2502516173369287    0.25337921110852296    0.25025156713269553    0.24150545694163106    
  0.22844062433019796    0.213644191379621    0.20073075077806987    0.19204030364966115    0.18892129873446942    
  0.2411836073516086    0.24150549171587385    0.2422733819631099    0.2429014831373375    0.24290152170467585    
  0.2422733829716429    0.2415054881280269    0.24118358402873885    0.2415055052897429    0.2422734033081898    
  0.24290153500509198    0.24290148085376853    0.2422733883229184    0.2415055109288034    0.2411836073516086    
  0.32275499718486755    0.3194063500389406    0.30812555415603715    0.2882550293014029    0.26426460308813565    
  0.24290152751732372    0.22844065563860103    0.2232807354512321    0.22844062968672849    0.24290154168276276    
  0.2642646173746264    0.2882550073706281    0.30812550170991393    0.3194063533175172    0.32275499718486755    
  0.3882498070753744    0.3881101618073225    0.37622190739725114    0.3393513170789816    0.288255039647285    
  0.24290150635943006    0.21364419107580335    0.20364009932972532    0.21364423447182226    0.24290152291175457    
  0.28825502721572505    0.33935131217523073    0.37622181665737037    0.3881101638354391    0.3882498070753744    
  0.3627387782102478    0.3811801654458671    0.40329599679104033    0.3762218352180116    0.30812556049937717    
  0.2422734037568493    0.20073079675439456    0.18701571812984527    0.20073080732421444    0.24227341207047917    
  0.3081255280263415    0.37622191239561925    0.4032960187642611    0.3811801986362067    0.3627387782102478    
  0.27388449557640493    0.31136166508371554    0.3811800883766833    0.3881101749292177    0.3194063132931213    
  0.2415054557595693    0.19204028633673836    0.17598104920295635    0.1920403103249338    0.24150543429484359    
  0.31940633039066885    0.38811009774834826    0.3811801474654821    0.31136166607116045    0.27388449557640493    
  0.23082019670953247    0.2738845470811675    0.36273872506348864    0.3882497570205421    0.32275499311396416    
  0.2411835661493043    0.1889212598816509    0.17201993080974054    0.188921270194788    0.24118356666696922    
  0.3227549769145702    0.38824971731009283    0.362738710054889    0.2738845242955241    0.23082019670953247    
  0.36823954152778626    0.3801614109680653    0.38824975804337303    0.35251195177796824    0.28517895503022234    
  0.22328066629187338    0.18440341102397148    0.1714645651626299    0.184403391977529    0.223280704043979    
  0.28517894529671217    0.35251189965162816    0.3882497931733633    0.3801613889633342    0.36823954152778626    
  0.38016139497060547    0.38782783371249024    0.3881100587575236    0.3500952823982143    0.2862760847140612    
  0.22844062832413903    0.19195101239013418    0.17974148831904563    0.19195100028195103    0.22844061077118374    
  0.2862760982922818    0.3500952601388511    0.38811007264565184    0.3878278399514332    0.38016139497060547    
  0.38824975510331805    0.38811015529468895    0.37622189541518936    0.3393513440510197    0.2882550361469068    
  0.2429014851816108    0.21364421069721526    0.20364008561390634    0.21364425205306967    0.24290150626815382    
  0.2882550289130779    0.33935127794987024    0.37622184962932737    0.3881101726037352    0.38824975510331805    
  0.3525119781258088    0.3500952667470315    0.33935132801864554    0.31712179500322707    0.289233103406343    
  0.26426462274927287    0.24711466043334898    0.2409194085098886    0.2471146649174517    0.2642646699823948    
  0.28923310478499215    0.3171218282397722    0.33935130904884414    0.3500953172541488    0.3525119781258088    
  0.2851789879907491    0.28627613278286623    0.2882550480826942    0.2892331033327686    0.28923314149465973    
  0.28825502294383387    0.28627611866743774    0.2851789288637214    0.2862761822310471    0.2882550121602791    
  0.2892331140194273    0.2892331103204325    0.2882550037942522    0.2862761489469511    0.2851789879907491    
  0.22328071648630962    0.22844067187330466    0.24290147861553818    0.26426459119874607    0.28825502889518173    
  0.3081255135384379    0.3194063101626771    0.322755034904867    0.31940632403155683    0.3081255804304738    
  0.2882550431946445    0.26426459156264254    0.24290148166053627    0.22844071033315164    0.22328071648630962    
  0.18440339444487913    0.19195105225883072    0.21364416965267632    0.2471146348141327    0.2862761187230849    
  0.31940630457745856    0.3380208781100949    0.3433704628460633    0.33802089783017986    0.31940627359624557    
  0.2862761249281099    0.24711459061188706    0.21364420332761258    0.1919510040073487    0.18440339444487913    
  0.17146453551238086    0.17974147831604395    0.20364009952141626    0.24091938789263997    0.2851789329082492    
  0.32275496719977026    0.34337041285916103    0.34903801633366544    0.34337041841202237    0.32275500502376964    
  0.2851788990434443    0.24091939297971393    0.20364009277985032    0.17974148688978653    0.17146453551238086    
  0.18440342507619809    0.1919510272723426    0.21364415233291656    0.24711465769683397    0.28627611734289604    
  0.31940631778945827    0.3380209084990502    0.3433704772886835    0.33802087801130015    0.3194063424529305    
  0.28627613115994266    0.24711461049384653    0.21364420087147312    0.1919510138142655    0.18440342507619809    
  0.22328072339788763    0.228440682866123    0.2429015077253258    0.26426460237580846    0.28825500626458245    
  0.308125536432807    0.3194063134890007    0.3227550654475413    0.3194063685281099    0.3081255359674974    
  0.2882550504684799    0.26426458330112834    0.24290149511296447    0.2284406944234505    0.22328072339788763    
  0.2851789696992242    0.2862761003161261    0.28825506586926836    0.2892331172628302    0.28923311590000755    
  0.2882550110428425    0.2862761686997137    0.28517894041544617    0.28627614854184935    0.28825502403910225    
  0.2892331465516661    0.2892331011807232    0.288255041906521    0.28627614921202466    0.2851789696992242    
  0.35251198478383183    0.35009530375227255    0.33935134570280223    0.31712185113501007    0.2892331271436326    
  0.26426460205276536    0.24711459327376067    0.24091940861383299    0.2471146857475397    0.26426460108899763    
  0.28923309869485175    0.31712183031523195    0.3393512488869131    0.3500953289582743    0.35251198478383183    
  0.3882497843373051    0.3881101214098822    0.3762218268582962    0.339351260263115    0.2882550946430382    
  0.2429014998608345    0.21364421268676898    0.2036401159779375    0.21364423800345986    0.2429015144676097    
  0.2882550459932422    0.3393513252770944    0.37622189980877985    0.38811018340100223    0.3882497843373051    
  0.38016139374349506    0.3878278407449213    0.3881100562762563    0.35009535913474293    0.28627606531016    
  0.2284406685837031    0.19195102242900844    0.17974147822628198    0.1919510499618389    0.22844062446016072    
  0.2862761167874653    0.35009525134966496    0.38811009778066585    0.38782785239999223    0.38016139374349506    
  0.36823954152778626    0.3801614109680653    0.38824975804337303    0.35251195177796824    0.28517895503022234    
  0.22328066629187338    0.18440341102397148    0.1714645651626299    0.184403391977529    0.223280704043979    
  0.28517894529671217    0.35251189965162816    0.3882497931733633    0.3801613889633342    0.36823954152778626    
  0.34903794199503796    0.3433704768995751    0.3227549631285119    0.2851789275765094    0.24091939796761705    
  0.20364007699961206    0.17974144969669414    0.17146455672239994    0.17974142081337172    0.20364010002983313    
  0.24091937131392438    0.2851789105485879    0.3227550242910358    0.3433704677351381    0.34903794199503796    
  0.34337047766161743    0.3380208717862517    0.3194062940544717    0.28627611697444855    0.2471146209118956    
  0.21364415650981175    0.19195103147791082    0.18440342179087293    0.19195101738306858    0.2136441592267535    
  0.24711463213478274    0.28627608055118564    0.3194063122043653    0.33802085105673607    0.34337047766161743    
  0.32275498776571515    0.31940636436524295    0.3081255197598438    0.2882550530111013    0.26426458592279956    
  0.2429015124833117    0.22844061065667917    0.2232807151085775    0.22844066415312272    0.2429015257471062    
  0.2642645551394025    0.2882549943499764    0.30812548246323695    0.3194063793897582    0.32275498776571515    
  0.2851789874628049    0.28627609692761047    0.28825503506911876    0.28923307314264574    0.2892331245871383    
  0.28825504587927314    0.28627614958378733    0.28517895922065467    0.2862761501717397    0.28825507905272885    
  0.28923311792071116    0.2892331333414765    0.28825502336924147    0.28627612894074456    0.2851789874628049    
  0.2409194325502755    0.24711463676836787    0.2642646025848171    0.28923312260980755    0.31712182174368697    
  0.3393513609315894    0.3500952064354996    0.352511961288989    0.3500953074235132    0.3393513620858184    
  0.31712180541362506    0.289233129034673    0.26426456781861934    0.24711468855814403    0.2409194325502755    
  0.20364012684995686    0.21364422053773116    0.24290150371385227    0.28825500282732347    0.3393513656957148    
  0.3762218129518391    0.388110129379637    0.3882497886909845    0.3881101640239593    0.37622186759207105    
  0.33935135076906653    0.2882549973675368    0.2429015116934261    0.21364422628830176    0.20364012684995686    
  0.1797414344734287    0.19195105573069993    0.22844058121924213    0.28627616464120675    0.3500952222811442    
  0.38811014241896863    0.3878278248109296    0.380161458031574    0.38782783178164487    0.38811011199790474    
  0.35009525295478594    0.28627609486198025    0.2284406216634411    0.19195103239764386    0.1797414344734287    
  0.17146455633644236    0.18440338683422616    0.2232807259719455    0.2851789145497069    0.35251199579754905    
  0.388249711076256    0.38016139207237987    0.3682395671664023    0.3801613797790543    0.38824973606433877    
  0.3525119183212307    0.2851789380152197    0.22328071874166372    0.1844034180933401    0.17146455633644236    
  0.17974146115110526    0.19195104185844236    0.22844060848374995    0.286276147990252    0.3500952431025903    
  0.3881101180103992    0.3878278410194021    0.3801614420639509    0.3878277817695799    0.38811013755375184    
  0.3500952509579592    0.2862761197038639    0.22844063630300399    0.19195102263391225    0.17974146115110526    
  0.20364012589984307    0.21364419541935176    0.24290151513588348    0.2882550258774947    0.33935134760021063    
  0.3762218257031957    0.3881101398615861    0.388249787871516    0.38811018460868224    0.37622183641454054    
  0.33935138514248026    0.2882550008481129    0.2429014955625376    0.21364420943067006    0.20364012589984307    
  0.2409194015048016    0.24711463425107624    0.26426461766860765    0.2892331397983499    0.31712181702957354    
  0.33935135114427595    0.35009528191756806    0.35251200917333825    0.3500952848756886    0.3393513438922453    
  0.31712181542514917    0.28923312363141795    0.26426460707734184    0.24711470140781158    0.2409194015048016    
  0.28517899043981    0.28627614346130076    0.2882550509095831    0.28923312754249125    0.28923312907800636    
  0.28825500653657243    0.28627609740580184    0.2851789444847879    0.2862761886642871    0.2882550389281701    
  0.2892331353449882    0.2892331217609019    0.28825497715805126    0.28627617292176244    0.28517899043981    
  0.3227550181304396    0.31940634638399423    0.3081254747876644    0.28825500444295277    0.26426464200241234    
  0.24290150388479528    0.22844064752182552    0.2232807327462141    0.2284406649899106    0.24290153555020985    
  0.2642645792314668    0.288255058558005    0.30812552560439604    0.3194064007339849    0.3227550181304396    
  0.34337046872873267    0.33802089293884297    0.31940629904430357    0.28627617190548676    0.24711460959332562    
  0.21364419760218317    0.1919510376534392    0.18440340024558735    0.19195107543486314    0.21364413630532011    
  0.24711463789022084    0.2862760825634231    0.3194063209235221    0.33802088464851576    0.34337046872873267    
  0.34903794199503796    0.3433704768995751    0.3227549631285119    0.2851789275765094    0.24091939796761705    
  0.20364007699961206    0.17974144969669414    0.17146455672239994    0.17974142081337172    0.20364010002983313    
  0.24091937131392438    0.2851789105485879    0.3227550242910358    0.3433704677351381    0.34903794199503796    
  0.25776645634720746    0.25337918718770647    0.24118358158306719    0.2232807042630603    0.20364009811613612    
  0.18701568961667994    0.17598103331064713    0.1720199178465395    0.17598104018413285    0.18701568498789217    
  0.20364010741050145    0.22328065048284373    0.24118358310037089    0.2533791881271017    0.25776645634720746    
  0.25337918841417045    0.25025163026023256    0.24150540596732573    0.22844066947480596    0.2136441586282513    
  0.20073077418695767    0.19204027776776206    0.1889212863240716    0.19204027833222387    0.2007307748320555    
  0.2136441815102396    0.22844066310247443    0.24150544454195932    0.25025163816651286    0.25337918841417045    
  0.2411835871038765    0.24150551314397795    0.2422733778933708    0.24290150882844083    0.2429015377185396    
  0.24227339517977595    0.24150548474383754    0.24118357403355267    0.24150549166743096    0.24227336785853795    
  0.24290152289421876    0.2429014895609125    0.2422733813328961    0.2415055096934993    0.2411835871038765    
  0.22328073698540582    0.22844064251714277    0.24290148159116728    0.2642645679738746    0.288255022412154    
  0.3081255827149362    0.3194063757753393    0.3227550357771141    0.3194063475637068    0.3081255951869174    
  0.2882549895476446    0.2642646472984058    0.2429014911255079    0.2284406817588898    0.22328073698540582    
  0.20364014326528418    0.2136442012448266    0.24290151844496993    0.2882549997598277    0.3393513379384981    
  0.37622189673870615    0.38811010202216845    0.38824977925616205    0.3881101870494104    0.3762218567125369    
  0.33935134049308524    0.28825501126982955    0.24290147599253148    0.2136442185307309    0.20364014326528418    
  0.1870157475150967    0.20073083252015309    0.2422733507880817    0.3081255299301997    0.37622187885470515    
  0.4032960588819553    0.3811801081827779    0.3627387748379307    0.3811801435633282    0.4032961282643612    
  0.3762218644729479    0.30812552533899984    0.24227337422170586    0.20073082133386166    0.1870157475150967    
  0.17598102937651497    0.19204030283111626    0.24150544309031452    0.31940633723136735    0.3881101350511131    
  0.38118013388749183    0.3113616762702612    0.27388451832763955    0.31136169386840723    0.38118008915388824    
  0.38811013270409195    0.3194062764800854    0.2415054842312715    0.19204027042088964    0.17598102937651497    
  0.1720198978632275    0.1889212889939745    0.24118357659502218    0.3227550091469674    0.38824970697523065    
  0.36273869795823055    0.2738844659630975    0.2308202431528465    0.27388450354787225    0.36273872129809054    
  0.38824973906453586    0.32275502015945406    0.24118357775480068    0.18892127606567563    0.1720198978632275    
  0.1759810739683674    0.19204029361370215    0.24150545711545898    0.3194063483151343    0.3881101274188741    
  0.381180099187394    0.3113617005975734    0.2738845126727884    0.3113616589053624    0.38118009012578147    
  0.38811015306964697    0.319406303413278    0.24150546057032088    0.1920402850476267    0.1759810739683674    
  0.18701572329466862    0.20073080514899858    0.24227337231469148    0.3081255332060831    0.3762218529812559    
  0.4032960924072544    0.38118011720059114    0.36273876887160994    0.3811801321191172    0.4032960964119068    