#     DFTpy    
  CRYSTAL 
    
  PRIMVEC    
  3.3580344827586206    0.0    0.0    
  0.0    3.3580344827586206    0.0    
  0.0    0.0    3.3580344827586206    
  PRIMCOORD    
  4    1    
  Si    0.0    0.0    0.0    
  Si    0.0    1.6790172413793103    1.6790172413793103    
  Si    1.6790172413793103    0.0    1.6790172413793103    
  Si    1.6790172413793103    1.6790172413793103    0.0    
  BEGIN_BLOCK_DATAGRID_3D    
  3d_datagrid_density    
  BEGIN_DATAGRID_3D#0    
  15    15    15    
  0.0    0.0    0.0    
  3.3580344827586206    0.0    0.0    
  0.0    3.3580344827586206    0.0    
  0.0    0.0    3.3580344827586206    
  0.0528371677087806    0.10129282525389216    0.27884501196529393    0.44247112282321227    0.42219734730427444    
  0.33951024839349253    0.28468729805357057    0.2675060331160589    0.2846872740353257    0.33951023191206153    
  0.42219740219943136    0.44247106115593315    0.27884505182864366    0.10129285412654271    0.0528371677087806    
  0.101292837066871    0.16013181082566885    0.334801306841486    0.46243568833960114    0.42894252469054933    
  0.35079961415267447    0.30046314502514937    0.28468727812337974    0.30046318934719984    0.3507997152419831    
  0.4289425654187666    0.4624356266164287    0.33480131044577816    0.16013179075205067    0.101292837066871    
  0.2788450347529812    0.3348012682407047    0.44903591038960455    0.49152412250351957    0.4446421769131524    
  0.3862135986668851    0.3507997579845106    0.3395101959662112    0.35079970784094705    0.3862134909857785    
  0.44464214668137275    0.49152404642186603    0.44903591222137096    0.33480138213595817    0.2788450347529812    
  0.4424711308021775    0.4624357433892055    0.4915239930534727    0.48988003905748834    0.46663012116471203    
  0.44464212592919633    0.4289426973884129    0.4221973786151173    0.4289426498324376    0.4446420806783539    
  0.46663018990646016    0.48987995678628027    0.49152400805436525    0.46243578508615923    0.4424711308021775    
  0.42219742470451166    0.42894261125978556    0.4446420896002892    0.4666302591382938    0.48987994379399974    
  0.4915240459051137    0.46243578625153353    0.4424711012182987    0.46243582309274406    0.4915240665174268    
  0.4898800326201641    0.4666300772732292    0.4446420920363663    0.428942640397496    0.42219742470451166    
  0.33951027600925354    0.35079971336185406    0.3862134869918905    0.444642158489577    0.49152399852126893    
  0.44903591134298293    0.3348013120258356    0.278845001557941    0.3348013181615831    0.4490358781861397    
  0.4915241114529039    0.4446420545127794    0.3862135125601733    0.3507996944692349    0.33951027600925354    
  0.2846872653454628    0.3004631506299577    0.3507996719066181    0.4289426617037167    0.4624356534400224    
  0.33480129291811134    0.1601317956009046    0.10129282147819883    0.16013181351530487    0.3348013005272199    
  0.46243567312371564    0.42894262736714683    0.35079966623768294    0.3004631451135654    0.2846872653454628    
  0.2675060707373298    0.28468726071448924    0.33951020081914657    0.4221973430613455    0.4424710676018489    
  0.27884504575954744    0.1012928514220151    0.05283717707232698    0.10129282829763363    0.27884505875313903    
  0.4424711001649158    0.42219730082817364    0.33951024735172997    0.284687287674224    0.2675060707373298    
  0.2846873074360956    0.3004631520076027    0.3507996470187704    0.42894263651041475    0.46243566316453116    
  0.33480132002508056    0.16013180946619637    0.1012928190422778    0.16013178597506267    0.3348013248431235    
  0.46243569915359634    0.4289426501079818    0.35079963072424825    0.300463122776626    0.2846873074360956    
  0.3395102992789855    0.3507997654452629    0.386213432100235    0.4446421623429476    0.49152413762227276    
  0.44903591744705307    0.3348013701356628    0.27884498765035354    0.33480133234526654    0.4490358965064993    
  0.4915240509347889    0.4446420653415934    0.3862135278745925    0.35079969316240844    0.3395102992789855    
  0.4221973862252918    0.42894265875701443    0.44464213448893736    0.46663018548131785    0.48987997167130515    
  0.49152404808316463    0.4624357372102939    0.442471093956413    0.4624357820226961    0.4915239829193153    
  0.48988006349425267    0.4666301782764257    0.444642096068375    0.4289426495467004    0.4221973862252918    
  0.44247106306263345    0.46243568367635757    0.49152410625959475    0.4898800581606926    0.46663009994705823    
  0.44464213649625434    0.42894260358820496    0.4221974409854557    0.42894266395826497    0.44464208629028235    
  0.4666302565436605    0.48988002637733213    0.49152411882080943    0.46243579867840284    0.44247106306263345    
  0.27884510011567754    0.3348013072214998    0.4490358629173447    0.49152411401717844    0.444642022827932    
  0.3862135737535943    0.35079974021714827    0.3395102024333968    0.3507996800166572    0.38621353718298695    
  0.4446421366423216    0.4915240693740033    0.4490358534299122    0.3348013874400444    0.27884510011567754    
  0.10129280493989491    0.16013179804579905    0.3348013515049382    0.4624357647338707    0.4289425660142435    
  0.35079971053630926    0.30046313608101655    0.28468727060130117    0.30046313312657763    0.3507997055557319    
  0.42894257236553385    0.46243574488297834    0.33480127193834475    0.16013180229541743    0.10129280493989491    
  0.0528371677087806    0.10129282525389216    0.27884501196529393    0.44247112282321227    0.42219734730427444    
  0.33951024839349253    0.28468729805357057    0.2675060331160589    0.2846872740353257    0.33951023191206153    
  0.42219740219943136    0.44247106115593315    0.27884505182864366    0.10129285412654271    0.0528371677087806    
  0.1012927953796252    0.16013178372948353    0.33480131789591816    0.46243568126657064    0.4289425761468496    
  0.35079970011875744    0.3004631595077108    0.2846871881654512    0.30046315880894503    0.3507996789885862    
  0.42894264485059935    0.46243570540189627    0.33480134807120343    0.16013179110868048    0.1012927953796252    
  0.16013181299836665    0.2229122995561255    0.38231683676011163    0.47592398623993465    0.43374052447273087    
  0.3610672892848001    0.3150574769873867    0.30046312757143173    0.31505746607268537    0.3610673329599706    
  0.43374052581020806    0.4759240101011996    0.38231687364742084    0.2229123021401681    0.16013181299836665    
  0.3348013565092583    0.38231685787028774    0.4705060927879084    0.49206187594535394    0.4443680537613739    
  0.392279039126995    0.3610673597379326    0.35079965219622217    0.36106732140943204    0.39227899949288786    
  0.44436807245765214    0.49206180175117115    0.47050608928693693    0.38231688149281534    0.3348013565092583    
  0.4624357547480836    0.4759240129766294    0.49206174673203906    0.48319381398950717    0.4611153849617552    
  0.44436807346271884    0.4337406259104125    0.42894264468408566    0.4337406182330538    0.44436802509367895    
  0.46111551538623935    0.4831936104819632    0.4920618380395351    0.4759240254460158    0.4624357547480836    
  0.4289426496435645    0.4337405915096134    0.44436802813018444    0.4611155346134236    0.483193668152009    
  0.49206174981998474    0.4759239900252954    0.46243573888283024    0.475924112990986    0.4920617746599953    
  0.4831937321474599    0.46111550681033237    0.444368051896892    0.433740611571619    0.4289426496435645    
  0.3507997151991082    0.3610673192002279    0.39227894455060347    0.4443681171745576    0.4920617193223126    
  0.4705060924242862    0.3823168786891333    0.33480134778112364    0.38231687761117505    0.47050608600660576    
  0.49206179905877634    0.44436800606040633    0.39227899734344074    0.36106735528349304    0.3507997151991082    
  0.3004631400165004    0.3150574890962776    0.36106727020512047    0.43374062079094494    0.4759238580019484    
  0.3823168877961495    0.22291231488222638    0.16013175026132231    0.22291229820539402    0.3823168824145452    
  0.475923959344196    0.4337405517689229    0.3610673184878156    0.3150574565332668    0.3004631400165004    
  0.28468723963550574    0.30046307049560317    0.35079967908423904    0.42894264167484547    0.46243572500416746    
  0.3348013499401333    0.1601318055692464    0.10129282605742633    0.1601317954697    0.33480134380686616    
  0.46243565899451433    0.4289426186977142    0.35079970565221047    0.30046315561782916    0.28468723963550574    
  0.3004631503001609    0.31505743244741086    0.3610672727700146    0.43374055350219215    0.4759239397009799    
  0.3823168375352343    0.22291229624272715    0.1601317555789294    0.22291229882320815    0.38231687025013517    
  0.4759239094095276    0.43374066095056535    0.361067275965272    0.31505743454177976    0.3004631503001609    
  0.3507997581453543    0.36106733592592166    0.39227892902862516    0.4443681049999502    0.4920617789539716    
  0.4705060682933257    0.3823169014788691    0.334801275978908    0.38231688314876855    0.4705061551486189    
  0.4920618402051662    0.4443680334003784    0.39227892613916787    0.36106735678610125    0.3507997581453543    
  0.42894268977780264    0.43374067813459494    0.4443680351011174    0.461115539526312    0.4831937010527873    
  0.4920618092124835    0.4759240267783647    0.46243570873270556    0.47592408999948727    0.49206164957007165    
  0.48319378888504394    0.46111543915825387    0.4443680543026948    0.4337405982223575    0.42894268977780264    
  0.4624357039690356    0.4759240172429802    0.4920617467123954    0.4831937982288046    0.46111548545020575    
  0.4443681080695561    0.4337405562581501    0.42894271729305194    0.4337406603545766    0.4443680384930095    
  0.4611155780450347    0.48319367527363516    0.4920617950619086    0.475924027487596    0.4624357039690356    
  0.3348014044097309    0.38231687645837625    0.4705060249451942    0.49206187520521577    0.4443679897533989    
  0.3922790524807603    0.36106734828231096    0.350799666052696    0.3610673036074612    0.3922789139914022    
  0.44436803945080766    0.4920617850713496    0.4705061213929193    0.3823169177782269    0.3348014044097309    
  0.1601317622767571    0.2229123091793483    0.3823168431381214    0.47592398046910833    0.4337404937855288    
  0.3610673655792717    0.31505744941584474    0.30046310890960903    0.3150574296126267    0.36106735000474943    
  0.43374056776098074    0.4759239988619476    0.382316796573188    0.22291230123133016    0.1601317622767571    
  0.1012927953796252    0.16013178372948353    0.33480131789591816    0.46243568126657064    0.4289425761468496    
  0.35079970011875744    0.3004631595077108    0.2846871881654512    0.30046315880894503    0.3507996789885862    
  0.42894264485059935    0.46243570540189627    0.33480134807120343    0.16013179110868048    0.1012927953796252    
  0.2788450161282107    0.3348013315533338    0.44903588646566234    0.4915240809028483    0.44464206972850373    
  0.38621355315400785    0.35079972528403963    0.33951020536290905    0.35079969763824076    0.3862135147769811    
  0.44464207936333044    0.49152401689337627    0.4490359401709321    0.3348013239657576    0.2788450161282107    
  0.33480139395069586    0.38231693981637777    0.4705060693431097    0.4920618578254712    0.44436802893412886    
  0.3922789772832332    0.361067382177027    0.3507997159251421    0.36106738634811525    0.39227905996082346    
  0.44436797569384057    0.49206178561924224    0.4705060556515419    0.3823169510502614    0.33480139395069586    
  0.4490359748357191    0.47050606169737164    0.49890605595565224    0.485139439372219    0.44354115638307107    
  0.41009552164282115    0.39227902088745353    0.38621349206026795    0.39227900693390055    0.4100954485448869    
  0.44354118407733834    0.4851394134593949    0.49890603953767926    0.47050613421775406    0.4490359748357191    
  0.4915242121414694    0.4920618572692497    0.4851393388509791    0.4665689633954005    0.4492560747718754    
  0.4435411981939058    0.4443680698912009    0.44464211002377696    0.44436805868485546    0.44354110854223916    
  0.4492561511712444    0.46656887086526433    0.4851394614413819    0.4920618236245947    0.4915242121414694    
  0.4446420655871061    0.44436808643610104    0.44354114150366214    0.4492561703508392    0.46656889936595264    
  0.4851394439349994    0.49206179768416064    0.49152411245556066    0.49206187453233297    0.4851394236562237    
  0.46656894975237884    0.4492560945195813    0.44354113850194976    0.44436809339058936    0.4446420655871061    
  0.3862136110334744    0.3922790518892774    0.41009545421314575    0.44354125955047735    0.485139418279968    
  0.4989060729512133    0.47050609336604926    0.4490358767474923    0.4705060601769155    0.49890605272975624    
  0.48513942406038557    0.4435411434589507    0.4100955021099194    0.39227905525801765    0.3862136110334744    
  0.350799715490287    0.36106736756645175    0.3922789577928847    0.4443680803687539    0.4920617210143138    
  0.47050613254116225    0.38231689653906226    0.33480128583066876    0.3823169196412226    0.47050610293111783    
  0.4920617533122828    0.44436805682820624    0.3922789547772806    0.36106738049117654    0.350799715490287    
  0.33951020143156085    0.35079967583478755    0.3862135230544581    0.44464206226741726    0.49152403392028265    
  0.4490358807288732    0.3348013677421557    0.27884498211840747    0.33480137012154776    0.449035918025085    
  0.491524096339541    0.4446421294534742    0.38621353768451916    0.35079972294856476    0.33951020143156085    
  0.350799712361449    0.3610673482671481    0.39227893636765476    0.4443680386213369    0.4920617229735762    
  0.47050609114663994    0.38231692207039836    0.3348012960024794    0.3823169320344391    0.47050606625775365    
  0.49206172356695216    0.44436805807733487    0.39227893275972353    0.36106733914178607    0.350799712361449    
  0.38621358047421994    0.3922790143599602    0.4100954360932061    0.44354126078369266    0.4851394063843753    
  0.498906139792325    0.47050611713680873    0.4490358387671135    0.4705060945563681    0.49890608948734994    
  0.48513944635244377    0.44354117672069526    0.41009547505292876    0.3922790440664549    0.38621358047421994    
  0.44464213633785943    0.4443680710737348    0.4435411520726172    0.44925613559048866    0.4665689527907435    
  0.4851393931033685    0.49206184740220915    0.4915240988057926    0.4920618535056    0.4851393747542101    
  0.46656894083109496    0.44925609317953263    0.44354115574180647    0.44436815110423306    0.44464213633785943    
  0.4915240917010114    0.49206174313583556    0.4851393843150019    0.4665689979967935    0.449256037239975    
  0.4435412002375478    0.44436803296459937    0.4446421268946693    0.4443681024086752    0.4435411326133339    
  0.449256080649101    0.46656895959908423    0.4851394338543526    0.49206183632840544    0.4915240917010114    
  0.44903595477572666    0.4705061000349844    0.49890600973456767    0.4851394547004446    0.4435411625566668    
  0.4100955038977746    0.39227903018157484    0.3862135345756195    0.39227904638895117    0.4100954697776051    
  0.4435411917841474    0.48513942329090926    0.4989060918388679    0.4705061365585237    0.44903595477572666    
  0.33480130043927897    0.382316900319737    0.4705060921159608    0.49206182937322757    0.44436798387452214    
  0.39227895163348653    0.3610673488662121    0.3507996944522765    0.36106734509977706    0.3922790057752338    
  0.4443679952176308    0.49206180817845296    0.47050603928823426    0.3823169136079262    0.33480130043927897    
  0.2788450161282107    0.3348013315533338    0.44903588646566234    0.4915240809028483    0.44464206972850373    
  0.38621355315400785    0.35079972528403963    0.33951020536290905    0.35079969763824076    0.3862135147769811    
  0.44464207936333044    0.49152401689337627    0.4490359401709321    0.3348013239657576    0.2788450161282107    
  0.44247111471899436    0.4624356874526627    0.4915240376648254    0.4898800938906585    0.4666301554359117    
  0.44464211322169517    0.42894269055075157    0.42219737942629776    0.4289426787263973    0.4446420837665297    
  0.4666302558538046    0.4898799302017495    0.49152411830376347    0.4624357747185069    0.44247111471899436    
  0.46243577488550136    0.475924027419284    0.4920617148856385    0.48319369675390955    0.46111552573234077    
  0.4443680854040354    0.43374067591006066    0.4289426250922503    0.4337406807229273    0.44436810675768024    
  0.46111545891342265    0.483193744078557    0.49206176266795054    0.475924059283216    0.46243577488550136    
  0.4915241755188811    0.49206182938741766    0.4851392798409956    0.4665689914009984    0.44925608683356477    
  0.4435411439975785    0.44436806634484194    0.4446420382641584    0.444368058156431    0.44354117187553965    
  0.44925617082936486    0.4665690045108858    0.4851394625295459    0.49206186019423315    0.4915241755188811    
  0.4898801169325    0.48319377884749126    0.46656888073102243    0.450065980404475    0.44320231608990596    
  0.4492561731254215    0.4611155023268926    0.46663015899841725    0.4611155760425524    0.44925608640667825    
  0.4432024281645671    0.4500658331397522    0.4665689577282501    0.4831937904818984    0.4898801169325    
  0.4666301461473042    0.46111553466302474    0.4492561618028041    0.4432024322786333    0.4500658720053804    
  0.46656902150540985    0.4831937435093956    0.4898801229569019    0.4831939116615535    0.466568982572276    
  0.4500659452126695    0.44320237582347205    0.4492560306859472    0.4611155035482224    0.4666301461473042    
  0.4446422531653626    0.4443681441834349    0.4435411265969326    0.4492561886061403    0.46656891589378197    
  0.4851394679901241    0.4920618216250589    0.49152412944678653    0.49206173159939215    0.48513938141756235    
  0.46656898143171144    0.44925610954252804    0.44354115393967747    0.4443680718543404    0.4446422531653626    
  0.428942672481415    0.4337406577553902    0.4443680546112076    0.4611155064258712    0.4831936641287266    
  0.4920618585861736    0.47592403815432266    0.4624356827847649    0.4759240303011496    0.4920618136431686    
  0.4831937123913465    0.4611155505191983    0.44436806495218445    0.4337406362554685    0.428942672481415    
  0.42219733344314736    0.42894267188281127    0.4446420885751795    0.4666301065997402    0.4898800046711234    
  0.4915241813573132    0.46243571094162506    0.44247109257814227    0.46243573311463726    0.491524120932174    
  0.4898800209103081    0.4666301332330975    0.4446420917154292    0.428942599923989    0.42219733344314736    
  0.42894266806481823    0.43374063793601675    0.4443680397410293    0.46111554208721584    0.48319366476326114    
  0.4920617575863604    0.4759241181877092    0.46243572677554184    0.4759240736758986    0.4920617357613143    
  0.4831936931297534    0.4611155365511892    0.4443680274779382    0.43374067361182506    0.42894266806481823    
  0.4446421758591406    0.44436806268177564    0.4435411282631891    0.44925617973565335    0.4665689307690097    
  0.4851394773036672    0.49206179172973774    0.49152405989343145    0.4920617786748495    0.48513949223096936    
  0.4665689813369185    0.4492561801318806    0.44354115298993246    0.44436810723028247    0.4446421758591406    
  0.46663028432479187    0.461115537380397    0.4492561046744    0.4432024904064439    0.4500659374665515    
  0.4665689524847188    0.4831937620695449    0.48987997417413937    0.4831937588333847    0.46656889268860013    
  0.45006595319627074    0.4432024061570435    0.44925607094329406    0.4611155412652303    0.46663028432479187    
  0.4898800874987717    0.4831937277467617    0.4665689068788206    0.45006599374811795    0.4432023520777114    
  0.4492561666859344    0.4611155923095611    0.46663015637488    0.4611156164770541    0.44925605184932016    
  0.4432024633749545    0.4500658966692316    0.46656894312369335    0.48319371509644393    0.4898800874987717    
  0.49152412178942656    0.4920617995163601    0.4851394476668397    0.46656899924573664    0.4492559968078094    
  0.44354122864799755    0.4443681595059291    0.4446420734617578    0.4443680814938803    0.44354115932833693    
  0.4492561970453614    0.46656893098470925    0.4851394108035724    0.4920618907589667    0.49152412178942656    
  0.46243571164618014    0.475924076585091    0.49206180390213605    0.48319369212564767    0.4611154872371126    
  0.44436805645305794    0.43374058114041686    0.4289425911347059    0.4337406155351346    0.44436811367705914    
  0.46111553047260195    0.4831937945144557    0.49206173951309096    0.4759240861091772    0.46243571164618014    
  0.44247111471899436    0.4624356874526627    0.4915240376648254    0.4898800938906585    0.4666301554359117    
  0.44464211322169517    0.42894269055075157    0.42219737942629776    0.4289426787263973    0.4446420837665297    
  0.4666302558538046    0.4898799302017495    0.49152411830376347    0.4624357747185069    0.44247111471899436    
  0.4221973715683494    0.4289426097819983    0.4446420501027436    0.4666302007019128    0.4898800035717676    
  0.49152413350543567    0.46243582619897644    0.44247108786251244    0.46243574803743837    0.49152402658453304    
  0.48988010600967996    0.46663010159259405    0.4446421406847812    0.428942648322892    0.4221973715683494    
  0.4289427200055677    0.43374059776628443    0.4443680127767999    0.46111553589280707    0.4831936939134676    
  0.49206176153316517    0.47592414065508265    0.4624357494703665    0.47592406899064044    0.49206183531189    
  0.48319368934407064    0.46111557654592245    0.44436800805511256    0.43374068747404115    0.4289427200055677    
  0.44464220410141575    0.44436803274622055    0.4435410637074108    0.4492561594507794    0.46656898540757114    
  0.4851394318618243    0.4920617623350809    0.4915240184033241    0.4920617459398641    0.48513947315548506    
  0.4665690108420117    0.4492560911922153    0.4435412063866527    0.44436811047233066    0.44464220410141575    
  0.4666302932017923    0.46111555528928705    0.44925604750864856    0.44320248473128604    0.45006581471331625    
  0.4665690387253055    0.4831937369498857    0.4898800212801849    0.4831938108489165    0.46656890893726133    
  0.4500659437448379    0.44320230221916407    0.4492561162378581    0.4611155465744695    0.4666302932017923    
  0.489880010374486    0.48319375405057774    0.4665689714490807    0.45006596576201385    0.44320231189188714    
  0.4492561250180933    0.46111555576448204    0.4666302334455934    0.4611156670293476    0.44925618119999605    
  0.4432024429392777    0.4500658936690016    0.4665688722880486    0.483193687348569    0.489880010374486    
  0.4915241990517313    0.49206188314695126    0.4851393963865092    0.4665690242482272    0.44925607716379257    
  0.44354121389471274    0.4443680933433514    0.4446421704386927    0.4443680638630972    0.4435411148209863    
  0.44925615141191916    0.46656895641657964    0.4851394349001857    0.492061836298002    0.4915241990517313    
  0.46243579694385517    0.47592405368044166    0.49206172569283285    0.4831937322957239    0.4611154838984375    
  0.44436808720069404    0.4337406983952124    0.42894256006833853    0.4337406126991014    0.4443681086117164    
  0.4611155155765848    0.4831937552797166    0.49206176083934083    0.4759240579244433    0.46243579694385517    
  0.44247109112168287    0.46243573722692116    0.49152413020954805    0.48987997522903254    0.46663014804321307    
  0.44464220141389005    0.42894264629773604    0.42219732786171477    0.4289426813100183    0.4446420721703625    
  0.46663020800951216    0.48988004276394154    0.49152414218443996    0.4624357364263803    0.44247109112168287    
  0.46243578433193655    0.47592407525192115    0.49206175255187146    0.4831937996932727    0.4611154668904823    
  0.44436804279019604    0.43374065600820044    0.42894262761472746    0.4337406271935283    0.4443680948283576    
  0.4611155168489482    0.48319369615414787    0.49206177968847    0.47592409571489436    0.46243578433193655    
  0.4915241596996838    0.49206184062228975    0.48513934236890255    0.4665689887738237    0.4492561043487014    
  0.4435412284002775    0.44436806975157733    0.4446420537048094    0.4443680147884018    0.443541181289579    
  0.44925618459687033    0.4665689768024126    0.4851393760145532    0.49206183125592096    0.4915241596996838    
  0.4898801620140657    0.48319374719789915    0.46656891642076326    0.4500660089536871    0.4432024281605577    
  0.44925603954451104    0.4611155692707362    0.4666301648929954    0.4611156019304687    0.44925606368516896    
  0.4432024321572203    0.4500658742835123    0.4665689167934414    0.4831937223163849    0.4898801620140657    
  0.4666302807249736    0.46111546524426084    0.4492560982592832    0.44320247565120263    0.4500658653260602    
  0.4665689865937958    0.4831938074203894    0.4898800309957018    0.4831938008118874    0.4665689079825171    
  0.45006593689205737    0.4432023514757318    0.44925609473740497    0.4611155181766787    0.4666302807249736    
  0.4446421081843372    0.4443681096304584    0.443541134677575    0.44925610049519427    0.46656887722511586    
  0.48513953422692396    0.49206183587169156    0.49152410085379494    0.4920617920197326    0.4851393848417368    
  0.46656901468565076    0.4492560990866695    0.4435411542826301    0.4443681481543837    0.4446421081843372    
  0.42894261595527905    0.4337406649561099    0.4443680777880981    0.4611154374550599    0.48319363841757584    
  0.4920618005108118    0.475923984400665    0.46243574444060076    0.47592396949831034    0.49206175409120506    
  0.48319375367217354    0.4611155961911041    0.44436800401842474    0.4337406673827879    0.42894261595527905    
  0.4221973715683494    0.4289426097819983    0.4446420501027436    0.4666302007019128    0.4898800035717676    
  0.49152413350543567    0.46243582619897644    0.44247108786251244    0.46243574803743837    0.49152402658453304    
  0.48988010600967996    0.46663010159259405    0.4446421406847812    0.428942648322892    0.4221973715683494    
  0.3395102190912809    0.35079968630339564    0.38621350945375843    0.4446420924905591    0.4915240070924505    
  0.4490359185689928    0.33480138353544525    0.2788449998689495    0.3348013482676368    0.4490358834081498    
  0.4915241373518579    0.4446420597285789    0.3862135967204571    0.3507996988991561    0.3395102190912809    
  0.35079977633184223    0.36106740824913214    0.3922789783515037    0.4443681224514515    0.492061760886236    
  0.4705060260150071    0.3823169074095073    0.33480135368442876    0.3823169325080494    0.47050616420858526    
  0.4920616826371419    0.44436804493102344    0.39227896224070813    0.36106739097400187    0.35079977633184223    
  0.38621356843667676    0.3922789667754441    0.4100955200022684    0.443541217351281    0.48513943907745827    
  0.4989060902335279    0.4705060888067847    0.4490358684332703    0.4705060900645665    0.4989060545945876    
  0.48513939252727944    0.4435411429010569    0.4100954872817807    0.39227904436548    0.38621356843667676    
  0.4446422072472703    0.44436807177052146    0.44354113966783265    0.44925611649077896    0.46656888286685166    
  0.48513946890383347    0.4920618021574665    0.49152410572303207    0.4920617445728296    0.4851393184425352    
  0.46656898936696956    0.44925601911852864    0.4435411795924836    0.44436810316196446    0.4446422072472703    
  0.491524097873565    0.49206175840333877    0.4851394476233127    0.46656898018600157    0.4492560275456801    
  0.4435411546297631    0.44436803058912616    0.4446421002106116    0.4443681868308554    0.4435411983483669    
  0.4492561652508047    0.46656892330619715    0.4851394511126603    0.49206180024204293    0.491524097873565    
  0.4490359710505484    0.4705061295852629    0.49890596904879264    0.48513947274549846    0.44354113615944296    
  0.41009549740633083    0.3922790270361968    0.38621352732256364    0.3922789240733823    0.41009553039056934    
  0.44354115693312035    0.48513941208935446    0.4989060153749077    0.4705061789387556    0.4490359710505484    
  0.33480135860846055    0.3823169038482305    0.4705060565443462    0.4920617926288042    0.4443680080931585    
  0.3922790287913142    0.36106733378967015    0.3507996600439251    0.3610673578792787    0.39227896999761497    
  0.4443680376765361    0.49206173493783717    0.4705060964278655    0.3823169483507689    0.33480135860846055    
  0.2788449997602018    0.3348013107653859    0.44903587368131065    0.491524035004453    0.4446419804554649    
  0.38621352753092536    0.350799722874171    0.3395101973054673    0.35079974174150974    0.38621353587251345    
  0.444642101301416    0.49152407652375846    0.44903588796121324    0.3348013658663144    0.2788449997602018    
  0.33480135569505254    0.3823169013478572    0.47050604283067754    0.49206179915090176    0.4443680447957675    
  0.39227898424880514    0.36106736635016096    0.3507996731545094    0.361067369722496    0.3922789778217083    
  0.44436799056605636    0.49206177403020585    0.4705060415514018    0.3823169003759543    0.33480135569505254    
  0.44903592008928817    0.470506094663651    0.49890601936779005    0.4851394677973063    0.4435411854327843    
  0.41009554744110077    0.39227901391540526    0.3862134884988479    0.39227903293513106    0.41009549531948813    
  0.44354119209557985    0.48513943524695735    0.498906026453599    0.4705061350921942    0.44903592008928817    