#     DFTpy    
  CRYSTAL 
    
  PRIMVEC    
  4.070275862068965    0.0    0.0    
  0.0    4.070275862068965    0.0    
  0.0    0.0    4.070275862068965    
  PRIMCOORD    
  2    1    
  Si    0.0    0.0    0.0    
  Si    2.0351379310344826    2.0351379310344826    2.0351379310344826    
  BEGIN_BLOCK_DATAGRID_3D    
  3d_datagrid_density    
  BEGIN_DATAGRID_3D#0    
  19    19    19    
  0.0    0.0    0.0    
  4.070275862068965    0.0    0.0    
  0.0    4.070275862068965    0.0    
  0.0    0.0    4.070275862068965    
  0.06647914262739969    0.11284833534361803    0.2660781948517688    0.38616142427381384    0.3220034558373593    
  0.20014668816299785    0.11634600687033969    0.0721755864381724    0.05221061671537326    0.046598403438321744    
  0.05221060771829494    0.07217558660550044    0.11634600713941382    0.20014670626800263    0.3220034681348963    
  0.3861614178757995    0.2660781976440481    0.11284834094887239    0.06647914262739969    0.11284833987011307    
  0.16495684675840883    0.30725109008934803    0.38681830023819713    0.306635299990868    0.1896308143475498    
  0.11136168201087246    0.07004557290454944    0.05124508273468745    0.04594622125530931    0.05124506952481383    
  0.07004559200298846    0.111361691273411    0.1896307978710156    0.3066352924943944    0.3868182482453354    
  0.30725108856349037    0.16495687304452258    0.11284833987011307    0.2660782221129988    0.30725108921887406    
  0.37789698489703116    0.3629846688238961    0.2618988853182721    0.16202999436328283    0.09843747609583943    
  0.06450351433334668    0.048757870891320575    0.044270527706201594    0.048757870305657806    0.0645035099056672    
  0.09843747166783291    0.1620299870516479    0.26189890121047205    0.3629846532637818    0.37789700976519    
  0.3072511245471277    0.2660782221129988    0.38616141671183135    0.3868182253994902    0.36298460622765283    
  0.29056220476590244    0.19960704727778636    0.127295145339436    0.08221516397797031    0.05755967124471832    
  0.045803558432292786    0.042398761706780884    0.04580355552990158    0.05755965172022855    0.08221515202313523    
  0.12729511008710087    0.19960705256215067    0.29056226185248035    0.3629845585397568    0.386818226931237    
  0.38616141671183135    0.3220034630172137    0.306635277677901    0.2618989518052879    0.19960705622958147    
  0.13997334446259774    0.09547823236827856    0.06725651928616065    0.051329488299518965    0.043531541509607946    
  0.04122464204358029    0.04353154758721627    0.051329499493161665    0.06725649683522078    0.09547821815939363    
  0.13997336455177226    0.1996070656385133    0.26189892137876314    0.3066353395275459    0.3220034630172137    
  0.20014670007139213    0.18963077831343067    0.16203002093103824    0.12729514629527056    0.09547820507344418    
  0.07158531738456633    0.0560029102563683    0.04703631049066879    0.04257735493463994    0.041224788334226214    
  0.042577339113308396    0.04703633141523396    0.056002903317872596    0.07158533904100407    0.09547822944294347    
  0.1272951409824208    0.16203001086689361    0.18963083712806592    0.20014670007139213    0.11634599827805289    
  0.11136166638825269    0.09843748159068823    0.08221513978953839    0.06725651825935054    0.056002893414008936    
  0.04875809289582122    0.044781141820933575    0.04293734115516551    0.04239861540965047    0.042937297381377484    
  0.04478114319900237    0.04875809438313086    0.056002902586392275    0.06725649537863453    0.08221513163533514    
  0.09843745906052732    0.11136169697293415    0.11634599827805289    0.07217559255386019    0.07004555994569901    
  0.06450353297257866    0.05755967892566615    0.05132947266508686    0.04703631143466243    0.044781156425272514    
  0.04407941178763979    0.04415415316918782    0.04427065938451463    0.04415414269377953    0.044079413041440564    
  0.04478115672261946    0.04703632193212128    0.0513294680897108    0.05755968155804713    0.06450351254977083    
  0.07004558259368798    0.07217559255386019    0.05221062262450872    0.05124507650735407    0.04875786982657159    
  0.04580356980928166    0.043531529127473094    0.042577338527724155    0.042937328200942766    0.04415413997923258    
  0.04542130286342011    0.045946071551323076    0.045421300314486296    0.04415416612467214    0.042937317830893454    
  0.04257735660713889    0.043531544363009135    0.0458035643692624    0.04875786393947329    0.05124508488542218    
  0.05221062262450872    0.04659838663301384    0.04594620329034603    0.04427051929114432    0.04239876349976787    
  0.04122464075165274    0.041224797042655616    0.04239864051685637    0.04427065789928809    0.04594606260145534    
  0.04659853856632758    0.04594605018972025    0.04427064361404125    0.042398629755212074    0.04122478380263878    
  0.04122465627283051    0.042398771083737644    0.044270506616233316    0.04594621638827304    0.04659838663301384    
  0.0522106175554965    0.05124507498661372    0.04875787061173602    0.04580357767232743    0.043531534017808286    
  0.04257734014522695    0.042937322914711695    0.04415414934377382    0.04542129816381666    0.04594606615373823    
  0.04542129056489478    0.044154156686492606    0.04293733470072106    0.042577335227469905    0.04353153266769183    
  0.04580357816037982    0.04875786947242871    0.05124508351874653    0.0522106175554965    0.07217560136328999    
  0.07004558313516049    0.06450352275059354    0.05755966596225877    0.0513294608796904    0.04703631772067989    
  0.04478114958554876    0.04407941765204622    0.044154149130714436    0.044270673613695695    0.04415416192834791    
  0.044079412030382265    0.04478116463318373    0.04703632157656296    0.051329477200788245    0.05755967847551779    
  0.06450351606009926    0.07004558817579298    0.07217560136328999    0.1163459658164215    0.11136166882529808    
  0.09843746358599229    0.08221516151398316    0.06725651231221809    0.05600290170800578    0.048758079743747136    
  0.044781160294394357    0.0429373063225788    0.04239861584797778    0.04293728577566387    0.04478115605844022    
  0.04875808959120507    0.05600289891310068    0.0672565019147942    0.0822151582446948    0.09843744544936747    
  0.11136168836258131    0.1163459658164215    0.20014670553913527    0.1896307758420405    0.16203002624461732    
  0.12729514483098442    0.09547820757529432    0.07158533182845363    0.05600291751205698    0.04703632575999527    
  0.042577336313685536    0.0412247933774407    0.04257735061956545    0.047036318757943806    0.056002897027649795    
  0.07158531768554233    0.09547820680690469    0.1272951382664203    0.16203000334577283    0.18963084191874194    
  0.20014670553913527    0.32200342569189555    0.3066353022426068    0.26189893348811655    0.19960703151810638    
  0.139973363072254    0.09547821312504677    0.06725652249185489    0.051329468638739016    0.04353155459280398    
  0.04122465321807274    0.043531535659140155    0.051329488798489184    0.06725652123696763    0.09547823551475806    
  0.13997334397860547    0.19960705252256938    0.2618989480164347    0.30663534596854164    0.32200342569189555    
  0.38616138752272794    0.3868182086482764    0.3629846306686638    0.2905621836852367    0.19960703839071997    
  0.12729515062882524    0.082215170387767    0.057559651232135293    0.045803574217128266    0.04239875567165909    
  0.045803544667173304    0.057559666700966725    0.08221514957124777    0.12729512866023898    0.19960703018669498    
  0.2905622264461819    0.3629845512780258    0.3868182302859663    0.38616138752272794    0.26607821674269494    
  0.3072510835429428    0.3778970757339694    0.3629846595932683    0.2618988961747693    0.1620299914058002    
  0.09843748332532495    0.06450351538043103    0.0487578686408431    0.04427050559308648    0.048757860242120865    
  0.06450352000861291    0.09843747082650563    0.16202999741702348    0.26189891747289257    0.3629846127657821    
  0.3778969781241071    0.30725115263326025    0.26607821674269494    0.11284833474732164    0.16495684289613868    
  0.3072511113805079    0.38681825991587065    0.30663528378816274    0.1896308042756688    0.11136169629392596    
  0.0700455717520678    0.05124510248533991    0.045946213016541206    0.051245081145827466    0.07004558533628473    
  0.11136169126771736    0.18963079754688586    0.30663530447623993    0.38681827028661014    0.3072511053159544    
  0.16495688367505623    0.11284833474732164    0.06647914262739969    0.11284833534361803    0.2660781948517688    
  0.38616142427381384    0.3220034558373593    0.20014668816299785    0.11634600687033969    0.0721755864381724    
  0.05221061671537326    0.046598403438321744    0.05221060771829494    0.07217558660550044    0.11634600713941382    
  0.20014670626800263    0.3220034681348963    0.3861614178757995    0.2660781976440481    0.11284834094887239    
  0.06647914262739969    0.1128483283544514    0.16495686317382902    0.3072510859675766    0.38681821158151686    
  0.3066353025530051    0.18963077894843258    0.11136170299013323    0.07004557863391513    0.051245076509298174    
  0.045946219176356745    0.05124506085726954    0.07004555976315671    0.11136169008758581    0.18963077490729577    
  0.3066353295921207    0.3868182451941712    0.3072511008162155    0.1649568816174538    0.1128483283544514    
  0.164956886974956    0.21747348268460104    0.3398204098706292    0.3825369723085827    0.2914487803731631    
  0.17985591395363515    0.10678009788363477    0.06812114614697963    0.05042605605614536    0.0454211619560824    
  0.05042604176184039    0.06812115111342242    0.10678008418474948    0.17985588990238094    0.291448781097375    
  0.38253695237574575    0.3398203954142361    0.2174735629099616    0.164956886974956    0.3072511028998792    
  0.33982040196820923    0.3853468436837127    0.35021998831936924    0.24833928786714835    0.15436129564535195    
  0.09501344577606113    0.06321941751631312    0.04839279065813139    0.04415430834677823    0.04839278967781963    
  0.0632194074074266    0.09501345126486774    0.1543612805268558    0.24833931742299226    0.35021995921798255    
  0.3853468160655082    0.3398203888512834    0.3072511028998792    0.38681820568857095    0.3825369602168217    
  0.3502199138762824    0.27608620619206947    0.18975233673963438    0.1223956041409932    0.08034121268607029    
  0.05722012074748612    0.04615215431494465    0.04293718093254839    0.0461521491172844    0.05722011923584853    
  0.08034121991825881    0.12239559739613437    0.18975232788025226    0.27608621789778115    0.35021987809777144    
  0.38253692446489    0.38681820568857095    0.30663532891424794    0.2914487591215525    0.24833936642992582    
  0.18975236360062187    0.13435759446809187    0.093116577168473    0.06686901103188475    0.052006189843273286    
  0.04472810993790334    0.04257746544765395    0.044728090931945484    0.052006188230711264    0.06686898857556048    
  0.0931165564802622    0.13435759105434575    0.18975236389576683    0.2483393112856418    0.29144878719864514    
  0.30663532891424794    0.18963078704103215    0.17985587967019914    0.15436131205126902    0.1223956166598092    
  0.09311653704714118    0.07115389792231999    0.0568786036028878    0.04872628466137434    0.04472825320277389    
  0.04353141086582507    0.04472823648258624    0.04872630457844748    0.05687860615143954    0.07115391097378088    
  0.09311655091133494    0.12239562117349469    0.15436131521863944    0.17985592450508955    0.18963078704103215    
  0.11136166076775311    0.1067800555127095    0.09501346728092497    0.08034118053363853    0.06686900102840149    
  0.05687859284080601    0.050671924163834904    0.04748023144200537    0.046152025548930005    0.045803714039927404    
  0.04615199681013879    0.04748026059648181    0.0506719241768195    0.05687860304085625    0.06686898327292487    
  0.08034119633479507    0.09501344403470477    0.10678009035153403    0.11136166076775311    0.07004557471114695    
  0.06812113024232887    0.06321943932809239    0.05722013435893022    0.05200615959075602    0.04872630086511826    
  0.047480259057984406    0.047671970528870795    0.04839294665999674    0.048757714002061844    0.04839293681580925    
  0.047671976742513646    0.04748025330501611    0.048726302132889636    0.05200616086103078    0.057220125432139834    
  0.06321942120237338    0.06812115562198102    0.07004557471114695    0.051245081261376564    0.05042605427435559    
  0.048392798643791986    0.04615216253475675    0.04472808457744693    0.04472823882434536    0.046152023534054176    
  0.04839292114695826    0.050425921058025944    0.05124523755363635    0.05042590714567533    0.04839296257652024    
  0.04615201288752149    0.04472824453275189    0.0447281001102847    0.04615216392404825    0.04839278349536133    
  0.05042606620151545    0.051245081261376564    0.045946193205458195    0.04542114439120677    0.04415429183805989    
  0.04293718351402336    0.042577476005622485    0.04353140009881868    0.04580371699121003    0.04875772517078102    
  0.05124523530671569    0.052210463543112595    0.051245207886528844    0.04875772018983473    0.04580370649852523    
  0.04353139390383466    0.04257748155755196    0.04293718845702801    0.04415427634418394    0.045421160471294963    
  0.045946193205458195    0.05124507824088578    0.05042603733580512    0.04839278930115059    0.04615216360336229    
  0.04472808605963209    0.04472823085508302    0.04615202160233623    0.0483929273637451    0.05042589623148408    
  0.051245238143988014    0.050425886448025266    0.0483929336493106    0.0461520045589653    0.04472823208626436    
  0.04472809221172832    0.04615217236984781    0.04839278656518193    0.05042606230171012    0.05124507824088578    
  0.07004558723570352    0.06812113684184452    0.06321942653795046    0.05722012761492554    0.05200615831747093    
  0.04872630837987104    0.04748025270304895    0.04767194802250993    0.04839294853485587    0.048757746670243234    
  0.04839294226555455    0.047671970052763885    0.04748025313078993    0.048726295188768795    0.05200617277081238    
  0.057220128028824285    0.06321941447303303    0.06812115369217066    0.07004558723570352    0.11136165158851047    
  0.10678009052384778    0.09501344986293266    0.08034119857997979    0.06686900305356858    0.056878610350545436    
  0.05067191382339071    0.047480255988771564    0.046152020645907316    0.045803718309919264    0.0461519835524537    
  0.04748024500223071    0.050671920849235566    0.05687859051393147    0.06686900122286797    0.0803412073225627    
  0.09501342331314781    0.10678008030571147    0.11136165158851047    0.18963079986790937    0.17985589531406565    
  0.15436132372138014    0.1223956171589065    0.09311654982877574    0.07115391157311861    0.05687861215950292    
  0.04872631400584081    0.04472823742278606    0.043531390032717915    0.044728241342942475    0.048726301844396726    
  0.056878598777320086    0.0711539076171352    0.09311655607821843    0.12239562060818242    0.15436130603135662    
  0.17985594254602838    0.18963079986790937    0.3066352859468314    0.29144874719902647    0.24833933977208486    
  0.18975232771688066    0.13435759092208321    0.09311655195779045    0.06686901980770271    0.05200615997894825    
  0.04472810941080624    0.04257747879880508    0.04472810348234427    0.05200617598903286    0.06686900864657866    
  0.09311656646224153    0.13435758799519357    0.18975233620542503    0.24833932695071095    0.2914487772158773    
  0.3066352859468314    0.38681821261085214    0.3825369252035104    0.3502199861178396    0.27608618712382127    
  0.18975233860260868    0.12239562517232572    0.08034121771498226    0.0572201059824253    0.046152171074068465    
  0.042937174616397844    0.04615214794750093    0.057220117529155484    0.08034120301278726    0.12239560046346129    
  0.1897523374785367    0.27608620662509625    0.35021991520127377    0.38253693392619326    0.38681821261085214    
  0.30725114252216684    0.3398203707362769    0.38534691876971927    0.3502199673682913    0.24833930902510284    
  0.15436128443276334    0.09501346827280284    0.06321941833447861    0.048392784184850525    0.04415428633664777    
  0.048392780227625685    0.0632194290574193    0.09501344384806167    0.15436129932152595    0.24833932548032198    
  0.3502199170959132    0.3853468182423004    0.3398204217415793    0.30725114252216684    0.16495687545431392    
  0.21747348631247626    0.33982041211347147    0.38253699199169644    0.2914487657540579    0.17985591008079405    
  0.10678010327229061    0.06812113428695296    0.05042607456332225    0.04542114802869806    0.05042605225593626    
  0.06812115211301742    0.10678007825971937    0.17985590230552229    0.2914487746327264    0.38253695812270144    
  0.33982040512516776    0.21747353788076654    0.16495687545431392    0.1128483283544514    0.16495686317382902    
  0.3072510859675766    0.38681821158151686    0.3066353025530051    0.18963077894843258    0.11136170299013323    
  0.07004557863391513    0.051245076509298174    0.045946219176356745    0.05124506085726954    0.07004555976315671    
  0.11136169008758581    0.18963077490729577    0.3066353295921207    0.3868182451941712    0.3072511008162155    
  0.1649568816174538    0.1128483283544514    0.26607820240289615    0.3072510787924206    0.37789700177768887    
  0.3629846271318051    0.26189891752145755    0.1620299831108392    0.09843749761584361    0.06450351379546314    
  0.04875786455646347    0.04427051991026496    0.0487578546757552    0.06450351089752913    0.09843748022409964    
  0.16202997838185648    0.2618989270638729    0.36298465109676953    0.37789703436914607    0.30725114116493174    
  0.26607820240289615    0.307251116028893    0.33982038503371936    0.38534683678217496    0.35022001375493644    
  0.24833930992564832    0.15436131040383685    0.09501346077544619    0.06321941752806808    0.04839278613613783    
  0.04415430430383008    0.04839277105545597    0.06321943590085102    0.09501346605388428    0.15436129692480632    
  0.24833933065212    0.35021993710228605    0.3853468535582799    0.33982041563412213    0.307251116028893    
  0.377897001868135    0.3853468455906562    0.37410389614641404    0.3062778915028576    0.21166189481483028    
  0.13454559596539734    0.08633618564359104    0.060105792693258824    0.047672117164354134    0.04407930117750302    
  0.04767212473033544    0.060105788801705966    0.08633619233882982    0.13454559658740084    0.21166193731931218    
  0.30627789941272116    0.37410390628146256    0.38534687941212403    0.377897001868135    0.3629846084959501    
  0.35021991868539415    0.3062778476439841    0.23585276364086064    0.16404458145496367    0.10982609992855959    
  0.07572270260063643    0.05669242797890839    0.04748010998103349    0.044781303075631086    0.04748010021797397    
  0.05669241689435218    0.075722692293229    0.10982607669953075    0.16404459741955446    0.23585279933082023    
  0.30627782531355185    0.35021995133603473    0.3629846084959501    0.26189893119417984    0.24833930886736158    
  0.2116620032541206    0.16404462379064325    0.11996358446885864    0.08724653590553096    0.06632706642721853    
  0.05448203765641744    0.04872645913702615    0.0470361562770743    0.04872645322358904    0.054482032993512064    
  0.06632704113696634    0.0872465230639319    0.1199635944750904    0.1640446247339102    0.21166194429925944    
  0.24833934401754887    0.26189893119417984    0.16203000331898196    0.15436127902479072    0.13454563305840206    
  0.1098261055236307    0.08724651259975028    0.07054316448944968    0.060072549876330844    0.054482170163470046    
  0.05200603556028383    0.05132965183894168    0.05200601499904364    0.05448218943070576    0.06007255570628996    
  0.07054317353348166    0.08724652078784788    0.10982610819038155    0.13454560983792715    0.15436133932665944    
  0.16203000331898196    0.09843747538609043    0.09501343937841018    0.08633619905024252    0.07572266206582245    
  0.06632704888027037    0.060072539906183275    0.05718087539952607    0.056692231141324545    0.057220292356166    
  0.05755950853696237    0.05722025719476395    0.05669225913442265    0.05718087788160147    0.060072538226206736    
  0.06632703374097952    0.07572267353793118    0.08633618583267638    0.09501346265880037    0.09843747538609043    
  0.06450351414561553    0.06321940031285915    0.060105820714378914    0.05669243388164354    0.05448200679120696    
  0.05448218504288422    0.05669225967116827    0.06010594683781221    0.06321925803264451    0.06450368656536767    
  0.06321923705410687    0.06010597150119982    0.05669224654947379    0.054482186509193335    0.05448202037365758    
  0.05669243551045001    0.0601057929985828    0.06321943915466832    0.06450351414561553    0.04875787229022291    
  0.048392782240605524    0.047672127620719755    0.04748011443792669    0.04872644515961157    0.05200602813939932    
  0.05722030081424538    0.06321924347723155    0.0681213306650683    0.07004540679174429    0.06812133073954031    
  0.06321925999182701    0.05722029432811619    0.05200603770747063    0.04872646186303948    0.047480107930036305    
  0.04767210731853904    0.048392795497658465    0.04875787229022291    0.04427050212292527    0.04415428959949841    
  0.044079284124134886    0.04478130523264677    0.047036166286227706    0.0513296254473257    0.057559524622042675    
  0.06450368877727437    0.07004539445185347    0.07217578038615    0.07004536914674608    0.06450369595124622    
  0.05755951898153853    0.05132963707387393    0.04703616988667097    0.04478131300773992    0.044079270693271604    
  0.04415429979750754    0.04427050212292527    0.04875786813519749    0.04839277548813243    0.047672112205770834    
  0.04748011124544982    0.048726434687373095    0.052006018345611665    0.05722027739561593    0.06321925249286936    
  0.06812132578591105    0.07004539859957672    0.06812130296188855    0.06321924331507557    0.05722028436815987    
  0.052006027158533044    0.048726445587520185    0.047480128919062226    0.047672113734633946    0.048392794268639336    
  0.04875786813519749    0.06450351894202859    0.06321942633262237    0.06010580015618323    0.056692427218799406    
  0.054482010272119887    0.054482198606722855    0.0566922555249967    0.060105953099779764    0.06321924909033738    
  0.0645037059322056    0.06321926927736285    0.06010597437681937    0.05669225144790899    0.05448217774255662    
  0.054482029882064    0.05669242047123172    0.0601057853188613    0.0632194380902029    0.06450351894202859    
  0.0984374472656177    0.0950134450045069    0.0863361896541749    0.07572268357609428    0.06632706050579325    
  0.06007254939573504    0.0571808756957078    0.05669225671024488    0.05722028897173594    0.05755952135582144    
  0.057220263936809866    0.05669226134406545    0.05718087394314853    0.06007253190362613    0.06632704234447116    
  0.07572269853652945    0.08633616506083067    0.09501344914501268    0.0984374472656177    0.16203001379213255    
  0.15436128844285074    0.13454563002661224    0.10982610794066008    0.08724651050712022    0.07054317283615912    
  0.06007256036625176    0.054482187084583515    0.05200601731748154    0.051329633917301706    0.052006032457059495    
  0.054482178491597    0.060072543906192766    0.07054316985322774    0.08724652783509476    0.10982610571435496    
  0.13454561313329635    0.1543613376787847    0.16203001379213255    0.2618989206511058    0.24833930328427162    
  0.21166196406926735    0.16404458616816994    0.11996359054095052    0.08724651867060412    0.06632707397504267    
  0.05448200567932722    0.048726468316962486    0.0470361684296726    0.048726459093988796    0.054482026931177194    
  0.06632706155378823    0.08724654100284396    0.11996359378453197    0.16404461391748648    0.21166194995356577    
  0.248339350535806    0.2618989206511058    0.36298462807308884    0.35021991260763413    0.3062778843740449    
  0.23585272635532703    0.16404460638347665    0.10982611152420942    0.07572269006729533    0.05669240161745143    
  0.047480127222946235    0.04478130240297611    0.047480098255281794    0.05669241062332068    0.07572267925881637    
  0.10982609379853617    0.16404459743541258    0.23585279062600967    0.306277828166745    0.3502199717290054    
  0.36298462807308884    0.3778970203685153    0.3853468289413402    0.3741039782615418    0.3062778779346334    
  0.2116619366311292    0.13454559566885677    0.08633618995257321    0.06010579330435523    0.04767212642652276    
  0.044079277386148356    0.047672106886018445    0.060105803521909966    0.08633618721923285    0.13454560990684242    
  0.21166192079875615    0.30627784633380917    0.37410391123684716    0.3853468951838516    0.3778970203685153    
  0.3072511154342938    0.3398203900626032    0.38534685049572365    0.3502199376311399    0.24833929715309006    
  0.15436130165269962    0.09501346423084148    0.0632194093994685    0.04839280078521475    0.04415429067690197    
  0.04839278692916522    0.06321943568527136    0.09501345714662296    0.15436131801408187    0.24833932141875964    
  0.3502199731847214    0.3853468386164443    0.3398204317424975    0.3072511154342938    0.26607820240289615    
  0.3072510787924206    0.37789700177768887    0.3629846271318051    0.26189891752145755    0.1620299831108392    
  0.09843749761584361    0.06450351379546314    0.04875786455646347    0.04427051991026496    0.0487578546757552    
  0.06450351089752913    0.09843748022409964    0.16202997838185648    0.2618989270638729    0.36298465109676953    
  0.37789703436914607    0.30725114116493174    0.26607820240289615    0.3861614053791654    0.386818185562079    
  0.36298460297472646    0.2905622166550357    0.19960702784927015    0.12729512221856304    0.08221516325427616    
  0.05755965793096718    0.045803555614742024    0.04239875538384668    0.045803551986580884    0.057559662223555484    
  0.08221516131835312    0.1272951114371265    0.19960704458371065    0.2905622008677729    0.3629845814117893    
  0.3868182247147268    0.3861614053791654    0.3868182289693095    0.3825369035140733    0.35021992499778254    
  0.2760862448506706    0.18975228574427663    0.12239561053883107    0.08034120707489707    0.05722011616989412    
  0.04615216411081973    0.04293718979639708    0.04615215900486228    0.05722013141366767    0.0803412083114053    
  0.12239559605261212    0.18975232176869686    0.2760862029395636    0.3502199356031505    0.38253693839566494    
  0.3868182289693095    0.36298463406663545    0.3502199030912587    0.30627784353007215    0.23585279167024878    
  0.1640445688424235    0.10982608430658812    0.075722680493659    0.05669241796958516    0.0474801121404164    
  0.04478131578988897    0.04748011252329207    0.056692420987520475    0.07572267496756253    0.10982610048332021    
  0.16404459040623776    0.23585280940072845    0.30627786062697376    0.35021993983090294    0.36298463406663545    
  0.2905622217591654    0.27608619053677436    0.23585276439853325    0.18213837432856897    0.131760724359987    
  0.09436367345550327    0.07058360855796962    0.057180701318408696    0.05067204877958353    0.04875793093589564    
  0.05067204934473141    0.05718067415862012    0.07058359356762878    0.0943636597004926    0.13176074164048793    
  0.18213840587469377    0.23585271318723322    0.27608615942727205    0.2905622217591654    0.19960704210147165    
  0.18975229076082042    0.16404460680422722    0.13176075598858486    0.10233632475031451    0.08072479196860913    
  0.06725760638042633    0.06007270942859558    0.056878437860287706    0.05600304770305965    0.056878435963992675    
  0.060072713189117964    0.06725757836067016    0.08072478109255381    0.10233632582946327    0.13176076631543548    
  0.16404457949457377    0.1897523512562847    0.19960704210147165    0.12729511172389485    0.12239557958548394    
  0.1098261090384963    0.09436368860273801    0.0807247781562641    0.07161147774930582    0.06725778368554289    
  0.06632686239078406    0.06686919221538924    0.06725634619166126    0.06686917774084802    0.06632687858451188    
  0.06725776993475324    0.07161149648312203    0.0807247852872054    0.09436367849235867    0.10982610249507381    
  0.1223956217646578    0.12729511172389485    0.0822151515693128    0.08034118648453456    0.07572267893520672    
  0.0705835851300785    0.06725759939684353    0.06725775919294238    0.07058342855460169    0.07572284111316548    
  0.08034102868875248    0.08221534610771598    0.08034097508512468    0.07572284795007825    0.0705834289554918    
  0.06725776621099365    0.06725758317235837    0.07058358175686473    0.07572266607032176    0.0803412120098552    
  0.0822151515693128    0.05755966491536206    0.05722010387976066    0.056692433926523386    0.057180702806401855    
  0.06007268820819192    0.06632687154908175    0.07572286095806882    0.086335989268885    0.09501364959735609    
  0.09843727206926332    0.09501363510000493    0.08633598133144191    0.07572286335349158    0.0663268662908354    
  0.06007269277778691    0.0571807097376973    0.05669241191947064    0.0572201359944573    0.05755966491536206    
  0.04580356276233188    0.04615215678005898    0.04748011067466305    0.05067206411313084    0.05687842171604919    
  0.06686916943427651    0.08034101663012914    0.09501365665800422    0.10677988104511178    0.11136190062730479    
  0.10677987329759106    0.09501368300223205    0.08034100779760409    0.06686918051756002    0.056878442701982876    