#     DFTpy    
  CRYSTAL 
    
  PRIMVEC    
  1.645304738537034    -2.8497514010799705    0.0    
  1.645304738537034    2.8497514010799705    0.0    
  0.0    0.0    5.562911719517242    
  PRIMCOORD    
  2    1    
  Si    1.645304738537034    0.9499171336933234    1.3907279298793105    
  Si    1.6453047385370343    -0.9499171336933234    4.172183789637931    
  BEGIN_BLOCK_DATAGRID_3D    
  3d_datagrid_density    
  BEGIN_DATAGRID_3D#0    
  15    15    25    
  0.0    0.0    0.0    
  1.645304738537034    -2.8497514010799705    0.0    
  1.645304738537034    2.8497514010799705    0.0    
  0.0    0.0    5.562911719517242    
  0.04894516292653769    0.050836626374410936    0.0563769188741614    0.06544238332186937    0.0774619233751365    
  0.09022220771569849    0.10026724261742775    0.10416419240758362    0.10026725032185321    0.09022221917754275    
  0.07746193742654149    0.06544238346581978    0.056376917533021514    0.05083663685115572    0.04894516292653769    
  0.050836620589542296    0.05083666076493827    0.054561722758782696    0.061947870751281234    0.07275152715501695    
  0.08561448328205361    0.0975694781196027    0.10498360380104485    0.10498305819245894    0.09756993222071528    
  0.08561269575928114    0.0727527697795292    0.061947240786517206    0.054562565997036794    0.050836620589542296    
  0.056376916569005994    0.054561728696467436    0.056377956098975515    0.061946895310563174    0.07128034183722272    
  0.08355678213291691    0.09660058131369582    0.106924663057137    0.11091190843238184    0.10692545516637121    
  0.09660120943777767    0.08355769119321964    0.07127961037629427    0.06194724751887491    0.056376916569005994    
  0.0654423793311688    0.06194786193760699    0.06194689468611273    0.06544195586450549    0.07275184534725951    
  0.08355856111914764    0.09644723146363099    0.10855576206192204    0.11597775602010087    0.11597852760269146    
  0.10855375801247077    0.09644850285564491    0.08355768487050988    0.07275277763114107    0.0654423793311688    
  0.07746192584125529    0.07275151489196434    0.07128033583033598    0.07275182532066123    0.07746293636519042    
  0.08561200067556846    0.0966011009230887    0.10855483578133943    0.11794741370334139    0.12145155178486867    
  0.11794880783396101    0.1085537683008896    0.0966011908432592    0.0856126974602718    0.07746192584125529    
  0.09022222346862116    0.08561449030441667    0.08355678108956606    0.0835585718074786    0.08561200870773601    
  0.09022361533237315    0.09756904407443884    0.10692525096093461    0.11597713668565598    0.12145391599496977    
  0.12145156396936943    0.11597852821916618    0.10692546099904858    0.09756994696473203    0.09022222346862116    
  0.10026723969659575    0.0975694811575803    0.09660058332524123    0.09644724493681958    0.09660110345415256    
  0.09756903920209141    0.10026700269506267    0.10498373032160387    0.11091224248960564    0.11597714788104595    
  0.11794743572779208    0.1159777484478503    0.1109118838092299    0.1049830893076489    0.10026723969659575    
  0.10416417197730918    0.10498358465466963    0.10692467503445025    0.10855575915747619    0.1085548129641099    
  0.10692525241928888    0.10498373917918326    0.10416309456498644    0.10498373703366616    0.1069252478748981    
  0.10855481804115703    0.10855576016657704    0.10692465632387589    0.10498361175350096    0.10416417197730918    
  0.10026723816782827    0.10498306539523217    0.11091190900962161    0.11597777425069516    0.11794742036389942    
  0.11597715232198653    0.1109122455616337    0.1049837433152875    0.10026700390887491    0.09756903762671028    
  0.0966011100683855    0.09644723443900627    0.0966005782935118    0.09756948883403666    0.10026723816782827    
  0.09022222265714734    0.09756995337706123    0.10692545292386976    0.11597852881681284    0.12145156792752018    
  0.12145392428810017    0.11597715823608899    0.10692525623965712    0.09756905267297825    0.09022360215289534    
  0.0856120185940473    0.08355857538422255    0.08355677764244618    0.08561448911743988    0.09022222265714734    
  0.0774619317851879    0.08561270519909081    0.0966011994494046    0.1085537516381934    0.11794880852906806    
  0.12145154720991751    0.1179474152199535    0.10855482625985091    0.0966011042286435    0.08561200780070737    
  0.07746293899512663    0.07275182945890304    0.07128033957868929    0.07275151829473092    0.0774619317851879    
  0.06544237611428787    0.07275277200117766    0.08355768821669897    0.09644847893830995    0.1085537563081136    
  0.11597851171158612    0.11597775703118654    0.10855576603370487    0.09644722770692829    0.0835585571657346    
  0.07275183526864645    0.06544196853263698    0.061946887219836315    0.06194785770968193    0.06544237611428787    
  0.05637692468069238    0.06194724831593713    0.0712796248887467    0.08355768946716063    0.09660119893994831    
  0.10692545903679891    0.11091189598561743    0.10692466714284879    0.09660057785287424    0.08355677622592761    
  0.07128033708546257    0.061946894592754174    0.05637794808591427    0.05456172854919137    0.05637692468069238    
  0.05083662281865616    0.054562555023509735    0.06194723848192223    0.07275277540790899    0.08561269930589367    
  0.09756995362821562    0.10498306772668538    0.10498359081810157    0.09756947908946101    0.0856144839299783    
  0.07275153277375707    0.061947864306575014    0.05456171784843246    0.0508366733220375    0.05083662281865616    
  0.04894516292653769    0.050836626374410936    0.0563769188741614    0.06544238332186937    0.0774619233751365    
  0.09022220771569849    0.10026724261742775    0.10416419240758362    0.10026725032185321    0.09022221917754275    
  0.07746193742654149    0.06544238346581978    0.056376917533021514    0.05083663685115572    0.04894516292653769    
  0.05083407967616316    0.05290835616962364    0.05914614077123234    0.06953255917031087    0.08331897968866817    
  0.09801653601349414    0.10962725089197699    0.11411459524747729    0.10962791734211329    0.0980151445770648    
  0.08331929747628013    0.0695320716875767    0.05914571811679093    0.05290845609771262    0.05083407967616316    
  0.05290844379721243    0.05290857741741305    0.05610369886999288    0.062431749577317126    0.0716359817641711    
  0.08254909391457198    0.09270624906081848    0.09902214595621812    0.09902184842687475    0.09270660476692712    
  0.08254897485435408    0.07163580603283476    0.06243268402019969    0.05610426325665687    0.05290844379721243    
  0.059145719492469655    0.05805743994649812    0.05914629381323116    0.062433476710124614    0.06789406540015276    
  0.07516552817868194    0.08293353420095928    0.08907986004572872    0.09147007466606494    0.08907943439240665    
  0.08293378751540378    0.07516625129060364    0.06789350285845913    0.062432697416633307    0.059145719492469655    
  0.0695320670605733    0.06861227729631313    0.0686122476637059    0.06953034122099648    0.07163574241077156    
  0.07516515620975601    0.07983042877566134    0.08441542395933398    0.08731071616043182    0.08731069838728288    
  0.08441598396525768    0.07982949575409352    0.07516623476510464    0.07163581601984857    0.0695320670605733    
  0.08331930524056651    0.08440601455993986    0.084891767053381    0.0844073408666112    0.08331949471111753    
  0.0825495248894144    0.08293425609353856    0.08441531156815027    0.08604497998746721    0.08674305254258677    
  0.08604499971881699    0.08441598015194622    0.08293376372720945    0.08254897015652549    0.08331930524056651    
  0.09801515924332195    0.1034938483180628    0.10691877620396503    0.10691822224771193    0.10349342383352073    
  0.09801504236428753    0.0927052460392203    0.08907914698995667    0.08731103397586763    0.08674316603211134    
  0.0867430538546537    0.08731069642572609    0.08907944304716635    0.09270660560473469    0.09801515924332195    
  0.10962789504620642    0.1214596608745797    0.1309070546635913    0.13447012516918327    0.13090611939528465    
  0.12145970786190256    0.1096281660671063    0.09902327190677    0.09146906571284173    0.08731102824144547    
  0.08604498329268433    0.08731071540715084    0.09147007112262202    0.09902188146312045    0.10962789504620642    
  0.11411459198240105    0.1325392091464636    0.15009698176988084    0.16082498434888226    0.16082599063342504    
  0.15009833720752888    0.1325398115609886    0.11411277711471957    0.09902326676686005    0.08907914153263745    
  0.08441531509804655    0.08441542735186829    0.08907985851197503    0.09902215336986492    0.11411459198240105    
  0.10962724524280099    0.1325415436256136    0.1574524201627811    0.1770931860938189    0.18445461172048241    
  0.1770917311872212    0.15745421703300683    0.13253979836004248    0.10962816269342217    0.09270525525241347    
  0.08293425774189464    0.07983041534521301    0.0829335268661642    0.09270624140361221    0.10962724524280099    
  0.09801654144766417    0.12145701030551742    0.15009886566674138    0.1770919063428568    0.19332648378949685    
  0.1933251452440761    0.17709173284608376    0.15009834307491068    0.12145970405156845    0.09801502609055916    
  0.08254953123650745    0.07516516269119977    0.07516553328257103    0.08254909016747468    0.09801654144766417    
  0.0833189829523237    0.10349314248990837    0.1309095067975068    0.16082393321966562    0.18445546010882685    
  0.19332646606252749    0.1844546001754071    0.16082599293890248    0.1309061186996375    0.1034934282500878    
  0.08331949153496987    0.07163573378656722    0.06789406223119054    0.07163598671464132    0.0833189829523237    
  0.06953256113532869    0.08440638975317862    0.10691928650364661    0.13446777123663495    0.16082394719282833    
  0.17709189355156268    0.1770931833015141    0.16082500191106597    0.13447012042499765    0.10691820109307565    
  0.08440737122139448    0.06953034447728022    0.06243346934912964    0.0624317424416369    0.06953256113532869    
  0.059146140949056895    0.06861189400154533    0.0848917937760158    0.10691929296932656    0.13090951553537952    
  0.15009886050719692    0.15745242271792667    0.1500969846270231    0.13090707022506654    0.10691876948945425    
  0.08489176889614371    0.06861225061373066    0.05914628846085439    0.056103700172775384    0.059146140949056895    
  0.0529083561121337    0.05805804360651397    0.06861188674824041    0.08440640835909964    0.10349313749095698    
  0.12145700231304547    0.13254152762147012    0.13253920782429637    0.12145965012757695    0.10349382784632453    
  0.08440602150307346    0.0686122853313419    0.05805743283922661    0.052908588289895225    0.0529083561121337    
  0.05083407967616316    0.05290835616962364    0.05914614077123234    0.06953255917031087    0.08331897968866817    
  0.09801653601349414    0.10962725089197699    0.11411459524747729    0.10962791734211329    0.0980151445770648    
  0.08331929747628013    0.0695320716875767    0.05914571811679093    0.05290845609771262    0.05083407967616316    
  0.0561076034610172    0.05880636926892586    0.06718520911437163    0.08148360995608021    0.1006370225037255    
  0.12137266642237833    0.13795509087380825    0.1443271159206574    0.13795533519021091    0.12137403060499295    
  0.10063368259325253    0.08148461939030405    0.06718513564643604    0.05880622418863391    0.0561076034610172    
  0.05880620969661806    0.058804969597720455    0.06221395055560901    0.06922789865625067    0.07951618147196327    
  0.09174481963423682    0.1032092916893605    0.11028797692521046    0.1102883559891442    0.10320810824061431    
  0.09174618333507709    0.07951635856064534    0.06922817805167687    0.06221326431801939    0.05880620969661806    
  0.06718513900318678    0.06654407598250221    0.06718583673925743    0.06922744939090868    0.07285482013672549    
  0.07798510120233094    0.08370555407212876    0.08831231926989444    0.09010245280592663    0.08831180714913504    
  0.08370486273130608    0.07798630764316604    0.07285352433970713    0.06922819174770127    0.06718513900318678    
  0.08148462020138872    0.08277665420902497    0.08277685592946363    0.08148377353064608    0.07951633961907827    
  0.07798555391443776    0.0775399126910728    0.07793504275822714    0.07851265349139598    0.0785117773366593    
  0.0779377977917011    0.07753817986608023    0.07798629117385375    0.07951636724300036    0.08148462020138872    
  0.10063367645544102    0.10769124315734688    0.11035050488564342    0.10769082479428545    0.10063522232884503    
  0.09174498390115744    0.0837051076371498    0.0779377207392484    0.0748122998490824    0.07391325514487185    
  0.07481135244988549    0.07793781197764214    0.08370485218435876    0.09174617670810598    0.10063367645544102    
  0.12137403515808573    0.13856431891255697    0.14903942592429298    0.14904080716689044    0.138564737681983    
  0.12137321614908897    0.10320933676221446    0.08830973597906545    0.07851285812152281    0.07391164373046342    
  0.07391326568093687    0.07851178108484178    0.08831182748542814    0.10320811097792608    0.12137403515808573    
  0.1379553255736217    0.1681872113002287    0.1919777696943015    0.20088286369699382    0.19197306929730118    
  0.1681887281726143    0.13795466733542414    0.11029000804316375    0.09010213974628346    0.078512856519418    
  0.07481230782890826    0.0785126478714891    0.09010244946386976    0.11028839892501463    0.1379553255736217    
  0.14432712220451482    0.18645294414942373    0.22591954432070593    0.24930523766506132    0.2493048611905431    
  0.2259264587453724    0.18645301165609113    0.14432507594251945    0.11029002698369787    0.08830972214824111    
  0.07793771509252674    0.07793505007896238    0.08831232383561594    0.11028796359412517    0.14432712220451482    
  0.13795508751071486    0.18645310018631173    0.23862397429900833    0.2775772511654266    0.29140899058724584    
  0.2775785450361026    0.23862356897072512    0.18645301911752407    0.13795465868205015    0.10320933000300356    
  0.08370511555875486    0.07753991790602857    0.0837055460291911    0.10320929153023577    0.13795508751071486    
  0.12137266762397285    0.1681863678576152    0.22592505653408976    0.2775778701987143    0.30608212467354295    
  0.30607159929168526    0.2775785554642422    0.22592646674430528    0.16818874824839955    0.12137319755985938    
  0.0917449910773724    0.07798556251475453    0.07798509706163431    0.09174482551069067    0.12137266762397285    
  0.10063702611552144    0.13856471258630915    0.1919769186669308    0.24930125867853128    0.2914062337774936    
  0.30608210163368166    0.2914089833454178    0.2493048784420435    0.19197306118289506    0.1385647369566826    
  0.10063522927805402    0.07951633030154141    0.07285483295124717    0.079516187521334    0.10063702611552144    
  0.08148361336754917    0.10768961692264578    0.14904090529303834    0.2008839277451854    0.24930127719648168    
  0.2775778793869637    0.2775772562705549    0.2493052520367909    0.2008828574468225    0.14904080150713514    
  0.10769084670421539    0.08148377559230179    0.06922743711416288    0.06922789166831064    0.08148361336754917    
  0.0671852042602471    0.08277834673653792    0.11034985249819781    0.14904092925789036    0.19197691164779804    
  0.2259250776506451    0.23862398981985072    0.22591954485417726    0.19197777184856127    0.14903941760253678    
  0.11035049876989333    0.08277685881574663    0.06718583535185998    0.062213947239304956    0.0671852042602471    
  0.05880636702454617    0.06654283742116945    0.0827783408761128    0.107689636280663    0.1385647177170417    
  0.168186368152697    0.18645308504132507    0.18645294624606182    0.16818721332577002    0.1385643189428784    
  0.10769125790318297    0.08277665170774279    0.06654407411503689    0.05880498487597107    0.05880636702454617    
  0.0561076034610172    0.05880636926892586    0.06718520911437163    0.08148360995608021    0.1006370225037255    
  0.12137266642237833    0.13795509087380825    0.1443271159206574    0.13795533519021091    0.12137403060499295    
  0.10063368259325253    0.08148461939030405    0.06718513564643604    0.05880622418863391    0.0561076034610172    
  0.06380675008024682    0.06755821462768859    0.0793363830707504    0.0997766551009619    0.12768157670066194    
  0.15831946265878266    0.18282438286996325    0.1921409777819066    0.18282935434718453    0.15832159902790183    
  0.12767537816058475    0.09977714048932625    0.07933719434050869    0.06755860568434359    0.06380675008024682    
  0.06755859159327021    0.06755960879567577    0.0718277234146294    0.08077920556068088    0.09409206782863842    
  0.1101543397091466    0.12536705492270553    0.1346409450324476    0.1346396906485533    0.12536318094288465    
  0.11015510904766597    0.0940950616649919    0.08077923406625073    0.07182657673640573    0.06755859159327021    
  0.07933719651681477    0.0789539675022695    0.07933551733225026    0.08077946718896652    0.08377448643277667    
  0.08844003955884941    0.09401553850623608    0.0986356212198825    0.10041138971109383    0.09863494212592566    
  0.09401755998671167    0.08844032368806028    0.08377206931443112    0.08077924773264361    0.07933719651681477    
  0.09977714419193835    0.10330684539415311    0.10330619638938116    0.09977785286510324    0.09409203038890131    
  0.08844161913371264    0.0843167514527918    0.08205930948298627    0.08126052446446805    0.0812623326102216    
  0.08206032716782281    0.08431517561914328    0.08844031755066674    0.09409506771125148    0.09977714419193835    
  0.12767536771095936    0.14159743521958665    0.1468861538284656    0.14159917558524387    0.12767854542970816    
  0.11015280767497475    0.09401541446178255    0.08206140901634115    0.07519195889665896    0.07303881276958266    
  0.07519055730201386    0.08206034441890726    0.09401755346806676    0.11015511904465645    0.12767536771095936    
  0.1583215935986034    0.18963796712800934    0.2087983802095156    0.20879597431134098    0.18963402743618968    
  0.1583244789281306    0.12536590022129934    0.09863407705133775    0.08126047314684853    0.07303929135574741    
  0.07303881886327199    0.08126233447664215    0.09863495977133697    0.12536319430527507    0.1583215935986034    
  0.18282932850877295    0.23507969066065876    0.2744626720220921    0.2885747244980862    0.2744631861989104    
  0.23508016856371952    0.18282535328875138    0.13464216171157467    0.10041196679727799    0.08126048174924035    
  0.07519196698611244    0.08126052258306907    0.10041138085232985    0.13463970966171976    0.18282932850877295    
  0.192140942339045    0.26219249223321606    0.32052725124092507    0.348644802734758    0.34864108579682884    
  0.3205410188125247    0.2621963678308748    0.19213832035396816    0.13464216149318786    0.09863407762407266    
  0.08206140180236658    0.08205931848221633    0.09863562559034823    0.13464096011810667    0.192140942339045    
  0.18282436939727467    0.26219610215100686    0.33567254930731827    0.3718498203019704    0.3783355889619515    
  0.37184811332963263    0.33567492876901345    0.2621963749889401    0.18282535231121955    0.12536589943726423    
  0.09401542398948791    0.08431674389698293    0.09401552883494818    0.12536706920411783    0.18282436939727467    
  0.15831946692050455    0.23508153569751414    0.3205362421213073    0.3718493322201531    0.38042634938267744    
  0.38041897530492097    0.3718481140516142    0.32054102042455396    0.2350801615023671    0.15832446927806648    
  0.11015283379510168    0.08844162842012965    0.08844002902639049    0.1101543439333837    0.15831946692050455    
  0.1276815852391946    0.18963407749065858    0.2744663991713904    0.3486307666753046    0.37833790981214477    
  0.3804263267368962    0.37833557542328533    0.34864111314510055    0.2744631752164408    0.18963401821660847    
  0.12767854290418704    0.09409201572324546    0.08377448166667646    0.09409206299031339    0.1276815852391946    
  0.0997766554932039    0.14159835307947666    0.20879857984150021    0.2885791249558795    0.3486307898518957    
  0.37184933799094777    0.37184981903587394    0.3486448218399309    0.2885747194024762    0.2087959668818408    
  0.1415992021977386    0.0997778592158875    0.08077944552669448    0.08077919734600554    0.0997766554932039    
  0.07933638294592653    0.1033075780228268    0.14688415449816097    0.20879860892062121    0.2744664099565859    
  0.3205362354442385    0.33567252615446597    0.32052725461212844    0.27446267407653774    0.20879837014086164    
  0.14688615757185453    0.1033061969736024    0.0793355135778932    0.07182772396283568    0.07933638294592653    
  0.06755821682608741    0.07895491425604517    0.1033075659432231    0.1415983705029628    0.18963407566984516    
  0.2350815335507171    0.2621960976762843    0.262192485214739    0.2350796730919478    0.1896379522697797    
  0.14159746161653222    0.1033068535282874    0.07895396134981511    0.06755962565678952    0.06755821682608741    
  0.06380675008024682    0.06755821462768859    0.0793363830707504    0.0997766551009619    0.12768157670066194    
  0.15831946265878266    0.18282438286996325    0.1921409777819066    0.18282935434718453    0.15832159902790183    
  0.12767537816058475    0.09977714048932625    0.07933719434050869    0.06755860568434359    0.06380675008024682    
  0.0721739345024967    0.07716164990539832    0.09287433130551752    0.12058368863622693    0.1591303779665791    
  0.20130776797506172    0.23412209970632203    0.24626780954644778    0.23415338396506016    0.2013090059005091    
  0.15910467253448246    0.12058804653343816    0.09287621606527445    0.07716315583686292    0.0721739345024967    
  0.07716314451128882    0.07716389634037871    0.08268271376026722    0.09423444579395282    0.11162980069587547    
  0.1329366305974329    0.15315106582983143    0.16530158246583498    0.16529971177135097    0.15312907099063874    
  0.13293929496162213    0.11164702654764712    0.09423376423947163    0.08267730387901595    0.07716314451128882    
  0.09287621852543708    0.0925507828359269    0.09287149844272544    0.09423045453010223    0.09736065916600663    
  0.10250823736271297    0.10891465741078925    0.11432667995422564    0.11638627669236692    0.11432649446157468    
  0.10892813086046534    0.10250928638632219    0.09734210637615465    0.09423377555605082    0.09287621852543708    
  0.12058804138449486    0.1260778265531449    0.12607908214814692    0.12059249071520681    0.11162767178711873    
  0.10251112782243851    0.09550960683302769    0.09130491561377772    0.08952021265622992    0.08952175050187826    
  0.09130767763587007    0.09549682863333288    0.1025092661206761    0.11164703874310539    0.12058804138449486    
  0.15910467253751176    0.17972342627789065    0.18746250385794183    0.17972366115132443    0.15912954102415527    
  0.1329339067722045    0.10891476996996699    0.09130999223597153    0.08111245126359631    0.07784766387854325    
  0.081109584060395    0.09130767251896521    0.10892811172549811    0.13293928372163313    0.15910467253751176    
  0.2013090389134644    0.24592260905991858    0.27194192820097973    0.27193238113548834    0.24588959007523103    
  0.20131484417599524    0.1531494817235198    0.11432057909225984    0.0895224231442639    0.07784328010750184    
  0.07784766789023831    0.08952173970012631    0.11432648983726237    0.15312908295415537    0.2013090389134644    
  0.23415337181651075    0.3035630489226379    0.3469736488267328    0.35937440878136273    0.34701863977592057    
  0.30356052570816333    0.23412590544096187    0.16530958327676315    0.11638473571580568    0.08952242790955116    
  0.0811124697771202    0.08952021543953108    0.1163862566957267    0.16529974166234396    0.23415337181651075    
  0.2462677750828164    0.33370811153074886    0.3788166529990153    0.37833509578053315    0.378305727026419    
  0.37882348554391404    0.33375502175657396    0.2462475213989059    0.16530958578321558    0.11432057657903173    
  0.09130997731077341    0.09130491017558272    0.11432668452617609    0.1653015917742661    0.2462677750828164    
  0.23412207762377257    0.33375025238885186    0.3820291747748392    0.3492129502608879    0.3199090775204216    
  0.3492077891184349    0.3820226314637703    0.3337550258312144    0.23412587965356316    0.15314948567378703    
  0.10891476733356047    0.09550958637931373    0.10891464667855691    0.15315107627911903    0.23412207762377257    
  0.2013077951427219    0.303564803705168    0.37882736524986727    0.3492004161306272    0.28085763479774073    
  0.28088858373915204    0.34920778431644506    0.3788235051841306    0.30356052754932034    0.20131480620944991    
  0.13293392479443294    0.10251113194402994    0.10250823053832929    0.1329366310650348    0.2013077951427219    
  0.15913038558888232    0.24589176544017263    0.34701753512841815    0.37826547975985564    0.31996845267290075    
  0.28085765060888573    0.3199090905858847    0.3783057288128936    0.34701861115230687    0.245889595363651    
  0.15912954874841945    0.11162766467385209    0.09736064878124695    0.1116298028618505    0.15913038558888232    
  0.12058369093087572    0.1797329891999245    0.27193133183112794    0.3594080037052644    0.3782654939281996    
  0.34920037932294307    0.34921295207972863    0.3783351168416945    0.3593744071029736    0.27193236881804667    
  0.17972368684408094    0.1205925003317777    0.09423043628145068    0.09423443771965824    0.12058369093087572    
  0.0928743282448502    0.12607977286006417    0.18745741265762117    0.2719313449386428    0.3470175549273994    
  0.37882735934013434    0.38202915887959427    0.3788166273250154    0.34697365871123614    0.27194189530172175    
  0.18746249761154565    0.12607908132094023    0.09287150107649479    0.08268271570175134    0.0928743282448502    
  0.07716165788622514    0.09255232370332084    0.12607975710625907    0.1797330075090106    0.2458917704215526    
  0.3035647915522991    0.3337502565008509    0.33370809424885756    0.3035630319967655    0.2459225873725876    
  0.1797234419379259    0.12607782899386857    0.0925507774316917    0.07716391251491053    0.07716165788622514    
  0.0721739345024967    0.07716164990539832    0.09287433130551752    0.12058368863622693    0.1591303779665791    
  0.20130776797506172    0.23412209970632203    0.24626780954644778    0.23415338396506016    0.2013090059005091    
  0.15910467253448246    0.12058804653343816    0.09287621606527445    0.07716315583686292    0.0721739345024967    
  0.07868053806970922    0.08470004423293581    0.1037009448112995    0.13755590309587237    0.184981934329348    
  0.23610621606915427    0.2744536079657083    0.28819292568281923    0.2745308501750709    0.2361159699017612    
  0.18491883285368627    0.13756465660963366    0.10371117396979608    0.08470078427723496    0.07868053806970922    
  0.08470076675548807    0.08469699539638847    0.09131611721606596    0.10520584146757249    0.12628722918883742    
  0.15224329173095233    0.17681052493920132    0.19153676892281699    0.1915387058343556    0.17675459127941506    
  0.15224541596198107    0.12633179300134637    0.10520256349193341    0.09129936745054092    0.08470076675548807    
  0.10371117373225607    0.10339176112134456    0.1036992078870612    0.10519168441413687    0.10886879161336727    
  0.11483411899040499    0.12215393713896741    0.12842255488876447    0.13083156890486666    0.12841829525385318    
  0.12219119298264011    0.11483708619559926    0.10882236398435492    0.10520257339114981    0.10371117373225607    
  0.13756466164971098    0.14448839576890218    0.14450025027041735    0.13757642492378258    0.12628386649042905    
  0.11483984170460797    0.10583715292315787    0.10018180745220948    0.09772541602595439    0.09772682034888666    
  0.10019081821522759    0.10580107432406384    0.11483706451021002    0.12633180652955098    0.13756466164971098    
  0.18491883000180007    0.2103507356915659    0.2197227091733537    0.21033904873696577    0.18498295357823916    
  0.15223763906363447    0.1221526518507084    0.10019884398371554    0.0875025872271955    0.0834432647273347    
  0.08749818979934969    0.10019082869752778    0.12219118490968031    0.15224539671623508    0.18491883000180007    
  0.2361159843898454    0.28848984655911136    0.3166359541116288    0.31662365495884187    0.2884095732962073    
  0.23611945529826403    0.176811268412107    0.12840326674985256    0.09772772638947445    0.08343708491803686    
  0.08344326639901636    0.09772681747473143    0.12841832306183656    0.17675461295205674    0.2361159843898454    
  0.2745308525468103    0.3477414471278538    0.37831711134983587    0.3811742320693436    0.3784283524468413    
  0.3477408765307138    0.2744573758190006    0.19155869053963112    0.13083184926849026    0.09772772137926874    
  0.08750259959726626    0.09772540692771506    0.13083156283095143    0.19153875278663363    0.2745308525468103    
  0.28819290629882793    0.37126267796599915    0.369965811536324    0.3228604374320224    0.32280068178647825    
  0.36994969543601053    0.37138932427144405    0.28813811706399145    0.19155871746642417    0.12840326292964058    
  0.10019884408434825    0.10018181649548934    0.1284225697852341    0.19153677815857909    0.28819290629882793    
  0.27445358522116664    0.371364548799322    0.3514755876272308    0.23731151011158813    0.18345526266884374    
  0.23731461015072114    0.35143402919338007    0.3713893082079187    0.2744573859030253    0.1768112508320203    