#     DFTpy    
  CRYSTAL 
    
  PRIMVEC    
  1.6175074616175822    -2.8016051051434183    0.0    
  1.6175074616175822    2.8016051051434183    0.0    
  0.0    0.0    3.044671971103448    
  PRIMCOORD    
  1    1    
  Si    0.0    0.0    0.0    
  BEGIN_BLOCK_DATAGRID_3D    
  3d_datagrid_density    
  BEGIN_DATAGRID_3D#0    
  15    15    13    
  0.0    0.0    0.0    
  1.6175074616175822    -2.8016051051434183    0.0    
  1.6175074616175822    2.8016051051434183    0.0    
  0.0    0.0    3.044671971103448    
  0.06662420907971203    0.11533696370794125    0.2754515136750942    0.39258285909579266    0.3223946723078359    
  0.20825289711464967    0.14038276613828152    0.12019525826725584    0.14038276901065355    0.2082528961128734    
  0.32239465485386676    0.39258289782025596    0.27545150440117716    0.11533698244846344    0.06662420907971203    
  0.11533697252744436    0.11532636084023236    0.2252165774234437    0.37292004197525475    0.36478324172330556    
  0.2509872588800658    0.16143926220442403    0.12110368197066003    0.12111306620606466    0.1614290674923547    
  0.251001168399178    0.3647804579849305    0.37285601380154365    0.22526407489293573    0.11533697252744436    
  0.2754514942016275    0.22521659029527713    0.2755190695170968    0.37288214597620367    0.3760754811837594    
  0.27555510349551143    0.1779657923649759    0.12329725746848705    0.10691389988216181    0.12329453258071335    
  0.177970849232598    0.2755315385452725    0.37616067038186274    0.37285604140586304    0.2754514942016275    
  0.3925829486662333    0.3729200235136835    0.37288214816071086    0.39254316525685695    0.36475416489618484    
  0.2756034544428112    0.18409905918638744    0.12510827254116955    0.09862210570163336    0.09863488603889582    
  0.12509452100005466    0.18412616054273184    0.2755315576486364    0.3647804673294169    0.3925829486662333    
  0.3223946699468652    0.3647832644154336    0.3760755150470192    0.36475416240635017    0.322451416416187    
  0.2510072483652935    0.17792800921309138    0.12510423786623803    0.09596928100782597    0.08690472135501949    
  0.09597038580918665    0.12509454701120465    0.17797083904430128    0.2510011917250091    0.3223946699468652    
  0.20825291657800274    0.2509872884300259    0.2755551159720837    0.2756034330908116    0.2510072360609008    
  0.20819942725534676    0.16142775580510052    0.12332920611237888    0.09862557934605383    0.08690924753528462    
  0.08690473436400516    0.09863488656682817    0.12329454716452912    0.161429094857539    0.20825291657800274    
  0.1403827632567325    0.16143926719870336    0.17796581143797083    0.18409904350432407    0.17792801851361253    
  0.16142777343506085    0.1404299149300566    0.1211086793244792    0.1068859660258341    0.09862556213181299    
  0.09596926766113546    0.09862211827801824    0.10691387707290108    0.1211130811424232    0.1403827632567325    
  0.12019526018540784    0.1211036753758994    0.12329726814318831    0.12510824574663512    0.1251042222390614    
  0.1233291790112668    0.12110866834708076    0.1201530473134413    0.12110866512104251    0.12332918804332262    
  0.1251042201633778    0.1251082542501818    0.12329728008166416    0.12110370496419896    0.12019526018540784    
  0.14038277396810064    0.1211130828793594    0.10691386948953703    0.09862210472803014    0.09596928606933146    
  0.09862557296183083    0.10688595238711995    0.12110868172394781    0.14042992965259155    0.1614277383809859    
  0.17792800314652008    0.18409903923197923    0.17796579419816194    0.16143928724166792    0.14038277396810064    
  0.20825291421019992    0.1614290988969622    0.1232945554344259    0.09863489440650912    0.08690473347496927    
  0.08690926066342977    0.09862555686487971    0.1233291867758657    0.16142778344759598    0.2081993922048109    
  0.25100727155006525    0.2756034134066062    0.27555509450083726    0.25098727980879837    0.20825291421019992    
  0.3223946701190441    0.25100116952522666    0.1779708410487642    0.12509453532480896    0.09597038150815203    
  0.08690473654801373    0.09596927524763685    0.12510423238293336    0.1779280052362023    0.25100725535005536    
  0.32245142213041483    0.36475419414930377    0.37607550879520585    0.36478318340128724    0.3223946701190441    
  0.3925828925976177    0.36478053140325367    0.2755315393496889    0.18412614215292078    0.12509451588520765    
  0.09863489455254648    0.09862211134664735    0.12510827284728973    0.1840990451485795    0.2756034082776962    
  0.364754182111813    0.39254319239787083    0.37288213618913935    0.37292005307709125    0.3925828925976177    
  0.27545150854667044    0.372856066906799    0.37616066302108087    0.2755315615815231    0.1779708289043173    
  0.1232945502751916    0.10691385921085235    0.123297273683463    0.17796580901823475    0.2755550762636809    
  0.3760755001980285    0.37288214366204886    0.2755190418869219    0.22521657367152192    0.27545150854667044    
  0.11533697992737722    0.2252640604417801    0.37285606217065287    0.3647804958442271    0.2510011605264638    
  0.16142910601363197    0.12111307374925291    0.12110369623807385    0.16143927610305864    0.25098727003597343    
  0.36478320786214913    0.37292005948210405    0.2252165877619239    0.1153263869721208    0.11533697992737722    
  0.06662420907971203    0.11533696370794125    0.2754515136750942    0.39258285909579266    0.3223946723078359    
  0.20825289711464967    0.14038276613828152    0.12019525826725584    0.14038276901065355    0.2082528961128734    
  0.32239465485386676    0.39258289782025596    0.27545150440117716    0.11533698244846344    0.06662420907971203    
  0.1259519486017957    0.181237614310029    0.3241283315817011    0.38965781126690346    0.30212673752825747    
  0.19441109384296565    0.13234813487763547    0.11388260091671598    0.13234814038975076    0.19441110292664512    
  0.3021267523471343    0.3896578731773813    0.32412833998334745    0.1812376559016537    0.1259519486017957    
  0.18123764262639638    0.1811881608564651    0.28402904174943566    0.38706155539761045    0.34642030309179994    
  0.23394463097923632    0.15154765440321186    0.11468009208809336    0.114691559181562    0.15153437420536356    
  0.23396204690750122    0.3464071256334726    0.3870277778165819    0.2840453237228772    0.18123764262639638    
  0.32412832364235566    0.28402905331524536    0.3242183857248103    0.38702516265323356    0.3598540409593926    
  0.25711914822988025    0.16662177037334916    0.11663101660428338    0.10159784831774399    0.11663055763219414    
  0.16662293663239872    0.2571085046498985    0.3599058094148174    0.38702780443871665    0.32412832364235566    
  0.3896579177162911    0.3870615264504708    0.38702513428594926    0.38960611311203175    0.3464005624803825    
  0.25715578797633515    0.172247753869961    0.11825728790236734    0.09396434846942167    0.0939707019235514    
  0.11824974567530767    0.17226330938913542    0.25710852282597574    0.3464070749527419    0.3896579177162911    
  0.3021267474353648    0.3464203345753112    0.3598540895999118    0.3464005542948372    0.3021853420749605    
  0.23395736245768245    0.16659422680622166    0.11825540034701798    0.09152859152747975    0.08318248339133764    
  0.0915294923169133    0.11824977256238621    0.16662293517207666    0.23396202394698662    0.3021267474353648    
  0.19441108312816216    0.23394468345976124    0.25711916983846567    0.2571557788592912    0.23395731048378277    
  0.1943613629698947    0.1515396947178471    0.11665317054853128    0.09396644120546822    0.08318421112886108    
  0.08318249420146612    0.09397070811404827    0.11663056197111224    0.1515343985014507    0.19441108312816216    
  0.13234813272015958    0.15154767330077787    0.1666217961283358    0.172247737797948    0.16659421855372014    
  0.15153969267761055    0.13238909383312714    0.114685941550038    0.10157779411856513    0.0939664089699905    
  0.09152856105909869    0.0939643490941607    0.10159781681649474    0.11469156390462504    0.13234813272015958    
  0.11388258584167113    0.11468007744154454    0.11663101863353861    0.11825726593454221    0.11825537406059482    
  0.11665314802914942    0.11468592945263886    0.11384465647810421    0.11468592139330935    0.1166531482421165    
  0.11825538312742934    0.11825727135512461    0.11663101706379095    0.11468009830865111    0.11388258584167113    
  0.13234814822588847    0.11469155758489538    0.1015978159040409    0.09396434271627661    0.09152858397414791    
  0.09396642647737499    0.10157778346507085    0.11468594229754377    0.1323891134936205    0.1515396804635822    
  0.16659420180624138    0.1722477460530329    0.16662178092736243    0.15154767679924044    0.13234814822588847    
  0.19441107679895686    0.1515344011317965    0.11663056540584225    0.09397071246178638    0.08318249443818958    
  0.08318422322855218    0.09396640708954843    0.11665314398755956    0.15153972615761363    0.1943613724282259    
  0.23395734785940728    0.25715577283295055    0.25711915939157187    0.23394465479745635    0.19441107679895686    
  0.30212677368803803    0.2339620313536674    0.1666229463585533    0.118249775409902    0.09152949461334053    
  0.08318248966549267    0.09152857366600704    0.11825539968833611    0.1665942304080033    0.23395733619617357    
  0.3021853863503539    0.3464006100783956    0.3598540812871544    0.3464202281230476    0.30212677368803803    
  0.38965784594264574    0.3464071444601193    0.25710851592572964    0.17226330534758683    0.11824974667487655    
  0.09397072316535501    0.09396434131603972    0.11825728600533096    0.17224775688268504    0.2571557898140485    
  0.3464005616585247    0.3896061453520757    0.38702514734977006    0.3870615217466097    0.38965784594264574    
  0.32412834232780086    0.3870278108413864    0.35990580085011203    0.25710851298383813    0.16662293511750015    
  0.11663056123468715    0.10159780414101831    0.11663102314292682    0.16662181831455622    0.2571191340245849    
  0.35985408571086525    0.3870251415735208    0.3242183686026916    0.28402903809446456    0.32412834232780086    
  0.18123761824801107    0.2840453186259036    0.38702777174368813    0.34640711871625063    0.23396203498032658    
  0.15153439955325046    0.11469156047621076    0.11468009965359474    0.1515476709912216    0.23394463475895583    
  0.346420287427576    0.3870615243659797    0.2840290406654262    0.18118818287468635    0.18123761824801107    
  0.1259519486017957    0.181237614310029    0.3241283315817011    0.38965781126690346    0.30212673752825747    
  0.19441109384296565    0.13234813487763547    0.11388260091671598    0.13234814038975076    0.19441110292664512    
  0.3021267523471343    0.3896578731773813    0.32412833998334745    0.1812376559016537    0.1259519486017957    
  0.30917434670470684    0.3430760889226653    0.3886221536688989    0.3492203442892912    0.24687841698418045    
  0.15980504939841228    0.11196355122666272    0.09758016476790084    0.11196355049795764    0.15980501344867923    
  0.2468783862524048    0.34922036265692297    0.3886221799832021    0.3430761057628504    0.30917434670470684    
  0.34307610822060713    0.3430298632488732    0.38187936023529995    0.3745418443818095    0.28845240460521404    
  0.19076425897561533    0.12677954192886484    0.0982179252442192    0.09822205109503636    0.12677401166132335    
  0.19077157911476056    0.2884449978501258    0.37453617828849384    0.38187445025021005    0.34307610822060713    
  0.38862216211536743    0.38187938245091585    0.3886719564765372    0.3745257155563506    0.30315408039627656    
  0.20940171315233508    0.13841896851617452    0.09975516778042735    0.08795179033275556    0.0997562305027423    
  0.13841804287427592    0.2094010299904166    0.30316547718840514    0.3745361706357984    0.38862216211536743    
  0.34922040320478825    0.3745418239236735    0.3745257203794111    0.3491957115547299    0.2884474248921562    
  0.20941393418294074    0.14278106463050336    0.10103505204236381    0.08199565386446935    0.08199690432433471    
  0.10103284741424956    0.14278493378277599    0.20940106698307184    0.2884449298426498    0.34922040320478825    
  0.2468783935299711    0.28845242554346223    0.30315406600249956    0.2884474085530209    0.24690319857468424    
  0.19076593424267252    0.13841069754940075    0.10103345122301001    0.08011310018642133    0.0735142618591023    
  0.08011301657334803    0.10103287040957427    0.13841807172284815    0.1907715694658269    0.2468783935299711    
  0.15980502194379279    0.1907643195668253    0.2094017267809564    0.20941391916287777    0.1907659044567367    
  0.15978602232251982    0.12677867950274724    0.09976190284693864    0.08199698741004945    0.07351305427708613    
  0.0735142808796184    0.0819968969763684    0.09975623667432193    0.1267740281645968    0.15980502194379279    
  0.11196353593559413    0.1267795646318546    0.13841899157049287    0.1427810425566285    0.13841070164917915    
  0.12677869149572107    0.11197731243439732    0.09821942295453528    0.08794548987439609    0.08199697168784993    
  0.08011307950023522    0.0819956515021818    0.0879517567362864    0.09822203945071967    0.11196353593559413    
  0.09758015692115969    0.09821791232112448    0.09975517738513448    0.10103503120891788    0.10103342465571306    
  0.0997618851783533    0.0982194115797324    0.09756789076751128    0.09821940423475993    0.09976188045003999    
  0.10103343670686933    0.1010350353804143    0.09975518762565785    0.09821792696454873    0.09758015692115969    
  0.1119635449344955    0.09822205601764576    0.08795176206588783    0.08199563848471819    0.08011310425644069    
  0.08199698561059078    0.08794548671367332    0.09821942114283079    0.11197732394307214    0.12677866573071284    
  0.138410670111667    0.14278105676329808    0.13841897832784716    0.1267795746044789    0.1119635449344955    
  0.15980503113991953    0.1267740408957491    0.09975623496948892    0.08199690989123726    0.07351427379123204    
  0.07351306643851317    0.08199696131945582    0.09976186990424754    0.12677870650938924    0.15978600736840703    
  0.190765931713562    0.20941391257824812    0.20940170185921392    0.19076427501084073    0.15980503113991953    
  0.24687840893866284    0.19077158648538542    0.13841802806747455    0.10103285767582168    0.08011303069436443    
  0.07351427392834353    0.0801130907741214    0.10103343936897143    0.13841069301738204    0.19076592571274936    
  0.24690321717471037    0.28844745006055633    0.30315406372468273    0.288452327426359    0.24687840893866284    
  0.3492203648569762    0.2884450126380181    0.2094010402956218    0.14278493592208608    0.10103285379595507    
  0.08199690997798764    0.08199564686964361    0.10103504547619076    0.14278106831633644    0.20941391481075675    
  0.2884473948846595    0.3491957562272802    0.3745257523463808    0.3745418404628284    0.3492203648569762    
  0.38862214684779195    0.3745362173588499    0.3031654643559192    0.2094010375706467    0.13841803596819663    
  0.09975623994060175    0.08795174930995292    0.09975518334668527    0.13841900469224935    0.20940166792724302    
  0.3031540783098556    0.3745257424724413    0.3886719655296269    0.3818793521908404    0.38862214684779195    
  0.343076104313405    0.38187444709350105    0.3745361584028788    0.28844498048963496    0.19077159024376414    
  0.12677403542802196    0.09822204244771597    0.0982179256666353    0.12677955424529078    0.19076426851539713    
  0.28845237790774536    0.37454185274335566    0.3818793334607598    0.34302988790131794    0.343076104313405    
  0.30917434670470684    0.3430760889226653    0.3886221536688989    0.3492203442892912    0.24687841698418045    
  0.15980504939841228    0.11196355122666272    0.09758016476790084    0.11196355049795764    0.15980501344867923    
  0.2468783862524048    0.34922036265692297    0.3886221799832021    0.3430761057628504    0.30917434670470684    
  0.38719647637065974    0.377475704642632    0.3354717068198444    0.2585741609034955    0.17783457408559178    
  0.11957213138878786    0.08786544142680128    0.0781265605686858    0.08786544241048987    0.11957210636196562    
  0.17783459037838822    0.25857418788495734    0.3354717325143613    0.3774757310951876    0.38719647637065974    
  0.37747570222658605    0.37747001687021575    0.35075172384634223    0.28808479769568335    0.20759913321611728    
  0.14004637515202706    0.09779918361122153    0.07861039146391866    0.07861142445825826    0.0977973867162609    
  0.14004829593019924    0.20759786844767902    0.288085701927927    0.3507490307282837    0.37747570222658605    
  0.33547170563817696    0.35075173745102217    0.3354746815654991    0.28808571492021817    0.2187871481806691    
  0.1524775952040724    0.10555688980941418    0.07970790882543156    0.0716343821090665    0.07970809509880696    
  0.10555790752858668    0.15247538351974263    0.21878906397069106    0.288085691923823    0.33547170563817696    
  0.2585742516099653    0.28808479612062105    0.2880856935069252    0.2585711401663405    0.20759878270498056    
  0.15247574684725324    0.10844264583305314    0.08056717503509837    0.06756181815582867    0.06756281497599055    
  0.08056554608394473    0.1084440025579073    0.1524754187817812    0.20759786598138294    0.2585742516099653    
  0.17783459069072452    0.20759915357501535    0.21878718834045222    0.20759878097220255    0.17783682931825623    
  0.140047953695256    0.10555765954490243    0.08056563757317473    0.0662755554472266    0.061720721943305384    
  0.06627559566586119    0.08056556536376658    0.10555791055748116    0.14004830820293657    0.17783459069072452    
  0.11957212841605096    0.14004640587969264    0.1524776099811448    0.15247574875038447    0.14004794899938958    
  0.11956880731066802    0.0977986636401703    0.07970849890443857    0.06756205115066058    0.0617210071896331    
  0.06172073548917503    0.06756281546826234    0.0797081108088357    0.09779739856356655    0.11957212841605096    
  0.08786544022688794    0.09779918616695196    0.10555690724125412    0.10844265835249517    0.10555765858384043    
  0.0977986804163086    0.08786780108786622    0.07860936168895946    0.0716354097339151    0.06756203358262262    
  0.06627554398298882    0.06756182417033735    0.07163436682070427    0.07861142004051522    0.08786544022688794    
  0.07812656013979052    0.07861038808553185    0.07970790663262298    0.08056715146613519    0.08056562260037131    
  0.07970848816281159    0.07860935759209989    0.07812717749234256    0.07860935310389071    0.07970848340269542    
  0.0805656224515208    0.08056715112232599    0.07970791783752192    0.07861040525693691    0.07812656013979052    
  0.08786544164003131    0.07861143081721197    0.07163436682150304    0.06756181409405997    0.06627555476046058    
  0.06756204653640537    0.07163539757098436    0.07860936941693966    0.0878678109771315    0.09779865479514512    
  0.10555764863242288    0.10844265064940489    0.10555690579530884    0.09779919573792337    0.08786544164003131    
  0.11957212974774956    0.09779741374357209    0.0797081149186974    0.06756281912206104    0.061720741087346265    
  0.061721022360067    0.06756202590296903    0.07970848240763204    0.09779868512190376    0.11956877762865799    
  0.14004797282911682    0.1524757403435142    0.1524776315500169    0.14004638138907163    0.11957212974774956    
  0.17783459475247534    0.1400483047072658    0.10555790777816046    0.0805655600993769    0.06627559324621511    
  0.061720739153842456    0.06627554256058457    0.0805656278470873    0.1055576602353774    0.14004795732418626    
  0.1778368247478822    0.2075987902564207    0.21878716010607788    0.20759908176417607    0.17783459475247534    
  0.2585741921529437    0.20759791242349845    0.15247539136619367    0.10844399176695126    0.08056554884502545    
  0.06756282027290303    0.06756181876604386    0.08056717582118983    0.10844265613789544    0.1524757277754693    
  0.20759877659388587    0.2585711487449004    0.28808569139091444    0.28808482226955817    0.2585741921529437    
  0.3354717289311414    0.2880857378563831    0.21878903908776906    0.15247541527886013    0.105557892585805    
  0.07970810891909122    0.07163435575619131    0.07970791751349013    0.10555691502408747    0.15247758732463468    
  0.21878715933041556    0.2880856807801215    0.33547466918636454    0.3507517386922913    0.3354717289311414    
  0.3774757199534156    0.35074902505112443    0.28808571358599333    0.2075978859979144    0.1400483038570881    
  0.09779740747693641    0.07861142123256379    0.07861040257495208    0.09779919403779933    0.14004638261430427    
  0.20759911015272714    0.28808482020607773    0.3507517343932247    0.37747005650675863    0.3774757199534156    
  0.38719647637065974    0.377475704642632    0.3354717068198444    0.2585741609034955    0.17783457408559178    
  0.11957213138878786    0.08786544142680128    0.0781265605686858    0.08786544241048987    0.11957210636196562    
  0.17783459037838822    0.25857418788495734    0.3354717325143613    0.3774757310951876    0.38719647637065974    
  0.281478029928141    0.26577352440337165    0.2237968106932552    0.1701563888909705    0.12149651777846535    
  0.08704671324570801    0.06781474643680115    0.06175764236692    0.0678147511425989    0.08704671199478028    
  0.12149653614490252    0.17015643435840774    0.22379681140117527    0.2657735497896819    0.281478029928141    
  0.26577354855833324    0.26577433015519103    0.23690677933312057    0.18928780432349068    0.13915614504270363    
  0.09926053677314316    0.07392475059654245    0.06209236516206187    0.06209246647194574    0.07392436055568159    
  0.09926041103387705    0.13915652589782632    0.18928843460870207    0.23690621592278632    0.26577354855833324    
  0.2237967994346934    0.23690679471212503    0.2237953830290051    0.18928900638250332    0.1459026317231089    
  0.10669141714707692    0.07866542234516467    0.06279653289017458    0.05775010135542682    0.06279661805341473    
  0.07866628467766243    0.10669068547947451    0.14590213222923445    0.1892884452958884    0.2237967994346934    
  0.1701564482199853    0.1892877871620374    0.18928900127088136    0.17015631324893637    0.13915632964584457    
  0.10669007272448466    0.08042862333534441    0.06331206973776764    0.055162877938323064    0.05516325182758231    
  0.06331100913982843    0.08042901084164333    0.10669071039211714    0.13915649095281227    0.1701564482199853    
  0.12149654306446188    0.13915616067667436    0.14590266455530038    0.1391563255292175    0.12149656579373075    
  0.09926043497376001    0.07866681154593518    0.06331095677260043    0.05432752568384949    0.05143545947497133    
  0.054327948118720895    0.06331102263860294    0.0786662898815992    0.09926041282987468    0.12149654306446188    
  0.08704670746483155    0.09926056991438116    0.10669140872264374    0.10669006487395605    0.099260411683852    
  0.08704687883159054    0.07392432997032952    0.06279651841006176    0.05516288329272299    0.05143623630117718    
  0.0514354659326675    0.05516324836073567    0.06279662862825211    0.07392437516592226    0.08704670746483155    
  0.06781474659905222    0.07392476462403409    0.07866544256533355    0.08042860649561379    0.07866681631257857    
  0.07392434034525762    0.0678148631582094    0.06209203023270353    0.05775071213857284    0.05516285990198429    
  0.0543275047987409    0.05516288139695609    0.05775007574645815    0.062092471310746924    0.06781474659905222    
  0.06175762867300793    0.062092356885930775    0.06279653566658892    0.06331206358570797    0.06331092965947163    
  0.0627965041334883    0.062092014772168004    0.06175834504174358    0.06209201374495623    0.06279649849895731    
  0.06331094316692011    0.06331205822308024    0.06279653820470865    0.06209236610981822    0.06175762867300793    
  0.06781475422108034    0.06209246895517077    0.057750081379018645    0.05516287999193423    0.0543275253659265    
  0.05516287156918893    0.057750710939700904    0.062092030126899185    0.06781487908539156    0.07392432306976005    
  0.07866680456750935    0.080428613452315    0.07866542909050768    0.07392476106616737    0.06781475422108034    
  0.08704670645539243    0.07392437900473092    0.06279662763548792    0.055163254133714416    0.05143547007009383    
  0.051436238393172795    0.05516286135596095    0.0627965039140228    0.07392435266652803    0.08704686830517733    
  0.09926043053260813    0.10669007433638643    0.10669143208077791    0.09926055553438819    0.08704670645539243    
  0.12149655110115076    0.09926041228028118    0.07866628342776252    0.06331102972219431    0.05432794819536245    
  0.051435464194947995    0.054327508667358006    0.06331095628771338    0.07866682024281531    0.09926042312026415    
  0.12149658539728729    0.1391563615797185    0.1459026711937053    0.13915612527189095    0.12149655110115076    
  0.17015641487247354    0.1391565338810483    0.10669070953802745    0.08042900373897084    0.06331100727174441    
  0.05516325698066875    0.05516287214398352    0.06331207929134722    0.08042862408915168    0.10669008486131545    
  0.13915634105393587    0.17015634485947492    0.18928901648978186    0.18928778900078097    0.17015641487247354    
  0.2237968188334539    0.18928846228166907    0.14590211878018422    0.10669071320197891    0.07866628327709027    
  0.06279662466569927    0.05775007284377509    0.06279653702696635    0.078665463137996    0.10669139937725967    
  0.14590264526171    0.18928898609489733    0.22379538513673022    0.2369067518377575    0.2237968188334539    
  0.26577352474223803    0.23690619078722633    0.18928844021642222    0.13915653824781724    0.0992604118790914    
  0.07392437162920402    0.06209246667220296    0.06209236698414926    0.07392476290966932    0.09926053665837858    
  0.13915614805677495    0.18928780460086958    0.23690677011623695    0.2657743583433476    0.26577352474223803    
  0.281478029928141    0.26577352440337165    0.2237968106932552    0.1701563888909705    0.12149651777846535    
  0.08704671324570801    0.06781474643680115    0.06175764236692    0.0678147511425989    0.08704671199478028    
  0.12149653614490252    0.17015643435840774    0.22379681140117527    0.2657735497896819    0.281478029928141    
  0.18552313850980662    0.17559657961931377    0.14980434398371423    0.11777560630276485    0.0887576205364733    
  0.06764805139736514    0.055466090685248284    0.051548258959549134    0.05546608969829539    0.06764803439495627    
  0.08875762324273634    0.11777560780001167    0.14980434463554151    0.17559658061724878    0.18552313850980662    
  0.17559656043552282    0.17559688582634686    0.15776492361069863    0.12915533079210997    0.0993717763392112    
  0.07522028000554913    0.059360791154942374    0.05176212581835978    0.051761393314033954    0.05936181598896217    
  0.07521951738774028    0.09937226072217178    0.12915487118254831    0.15776513533011452    0.17559656043552282    
  0.1498043320383331    0.15776495452917713    0.1498045326935838    0.1291540666033864    0.10343332796095032    
  0.07983355224448895    0.062399179251415166    0.05223109290277393    0.0489498657032416    0.052231020702239284    
  0.062398510525082294    0.07983438887859041    0.1034326730741079    0.12915485555690226    0.1498043320383331    
  0.1177756410316276    0.12915531709512226    0.12915408974297232    0.11777692854965566    0.09937186076482833    
  0.07983472214164881    0.0635648855717768    0.05260822326544806    0.04725586025227865    0.04725620038788577    
  0.05260837393822111    0.0635650719097392    0.07983441563670123    0.09937224319830011    0.1177756410316276    
  0.08875761887427898    0.0993717776894544    0.1034333415444255    0.09937185889574204    0.08875698629230755    
  0.07521933315104253    0.062398954458778834    0.05260827297039425    0.046693603910193913    0.04473037081754109    
  0.04669325532768538    0.05260837984201433    0.06239850844330475    0.07521951227844495    0.08875761887427898    
  0.06764803015724509    0.07522031691674182    0.07983355096538028    0.07983472420410752    0.07521932318641364    
  0.06764964785720118    0.05936086116965408    0.05223137321210926    0.047255727057101904    0.04473076906234371    
  0.04473038818787619    0.04725619625876882    0.05223103097146575    0.05936182739328566    0.06764803015724509    
  0.05546608418663538    0.0593608022776852    0.06239919317940791    0.06356487826332255    0.0623989572194335    
  0.05936087109013696    0.05546556754231713    0.05176176049625584    0.04894994345178768    0.047255709085788154    
  0.046693586462500325    0.04725586959539042    0.04894984336072184    0.05176138949466565    0.05546608418663538    
  0.051548245271750136    0.05176212388927121    0.05223109558638129    0.052608215282856925    0.052608252523588445    
  0.05223135956467925    0.051761756572630914    0.05154880800414927    0.051761749408554    0.052231355583608884    
  0.05260826430106443    0.05260820743346095    0.052231102328013465    0.05176212320479708    0.051548245271750136    
  0.05546609036092027    0.05176139331814063    0.04894984525350271    0.04725585891328334    0.04669360756034722    
  0.047255716350707334    0.04894993861276097    0.05176176713727142    0.055465577920399065    0.05936085522694607    
  0.06239893677606779    0.06356488708164769    0.06239917801263921    0.059360807225124754    0.05546609036092027    