#     DFTpy    
  CRYSTAL 
    
  PRIMVEC    
  3.303103448275862    0.0    0.0    
  0.0    3.303103448275862    0.0    
  0.0    0.0    3.303103448275862    
  PRIMCOORD    
  2    1    
  Si    0.0    0.0    0.0    
  Si    1.651551724137931    1.651551724137931    1.651551724137931    
  BEGIN_BLOCK_DATAGRID_3D    
  3d_datagrid_density    
  BEGIN_DATAGRID_3D#0    
  15    15    15    
  0.0    0.0    0.0    
  3.303103448275862    0.0    0.0    
  0.0    3.303103448275862    0.0    
  0.0    0.0    3.303103448275862    
  0.05647123786342884    0.10195099945528849    0.2559523209154544    0.3710800230032642    0.3105419079362905    
  0.20902183200520497    0.14788031114716665    0.12913947389874347    0.1478802681484896    0.20902183860804316    
  0.3105418538086581    0.37108003343393914    0.25595233120911126    0.10195099965050643    0.05647123786342884    
  0.10195097761069974    0.15451863175270028    0.2987421557976611    0.37528280327291547    0.301623317553679    
  0.20387076086385178    0.1461394390451435    0.12844412114330614    0.1461394683898983    0.20387075495632664    
  0.3016233143002812    0.3752828085967154    0.29874210626272396    0.15451864015047875    0.10195097761069974    
  0.2559522667903186    0.29874213325163873    0.3722403986135697    0.36142797091691786    0.27274057845634375    
  0.18932192071122111    0.14158709707817893    0.12684958976174263    0.1415871003693312    0.1893219581344116    
  0.2727406666046523    0.3614279524981472    0.372240372010081    0.29874207332948727    0.2559522667903186    
  0.3710799689674805    0.37528281256533463    0.3614280226972176    0.303886454852145    0.22899623814584427    
  0.169939948425497    0.13616328952339643    0.12548901478344143    0.136163275735036    0.16993995474068865    
  0.22899628144366505    0.3038864729916353    0.3614279832100889    0.37528272414199126    0.3710799689674805    
  0.31054194251673345    0.3016233593893883    0.2727406840560797    0.22899624945008384    0.18506419654082107    
  0.15159969817996258    0.1318793560293097    0.1254890428253156    0.13187939723477138    0.15159969305842932    
  0.18506422855482138    0.2289962255637658    0.272740668211605    0.30162333111682715    0.31054194251673345    
  0.2090218229164895    0.20387073288400231    0.189321978057248    0.16993993403068455    0.15159962356209428    
  0.1376295316936226    0.1294247637565947    0.12684959796046433    0.12942479513622893    0.1376295258273543    
  0.15159966084820078    0.1699399009703617    0.18932194380558068    0.20387073293940822    0.2090218229164895    
  0.14788025935353927    0.1461394682232866    0.14158711959003595    0.13616327736660508    0.1318793716878942    
  0.12942476810342846    0.12854547229717214    0.12844411545947348    0.12854546724647206    0.12942481300964154    
  0.13187936019722393    0.1361632848514297    0.14158712315843638    0.1461394593149299    0.14788025935353927    
  0.1291394517399166    0.1284440805299697    0.1268496154443329    0.12548904495305122    0.1254890062304189    
  0.12684963701384144    0.12844411759255553    0.12913946873802318    0.1284440637058263    0.1268496162230744    
  0.12548902743117976    0.12548907744786464    0.12684958393075227    0.12844411190606778    0.1291394517399166    
  0.14788027007560328    0.1461394692708771    0.1415871380729557    0.1361632898698506    0.13187936939798842    
  0.129424797779664    0.12854550286513117    0.12844410673156353    0.12854550048729838    0.12942484557567105    
  0.1318793826194183    0.13616328590206223    0.14158709583232612    0.14613947449280684    0.14788027007560328    
  0.20902179639492727    0.20387070154557216    0.1893219771170581    0.16993995955109858    0.15159961500770727    
  0.1376295152429558    0.1294247758018514    0.12684959313543923    0.12942479158882314    0.1376295346506207    
  0.15159970569974832    0.16993989430508338    0.18932196966316428    0.20387072424353184    0.20902179639492727    
  0.3105419233623795    0.30162334800849483    0.27274066775629613    0.2289962727898034    0.18506420060410567    
  0.15159967102114622    0.1318793683467318    0.12548904388198315    0.1318794040474218    0.15159964360570607    
  0.18506421152606395    0.22899628308395992    0.2727406283119279    0.30162334312975586    0.3105419233623795    
  0.3710800444990562    0.3752828385093418    0.36142801774700745    0.30388649234397086    0.22899625181953823    
  0.16993991235779976    0.13616327621190402    0.12548903228805647    0.13616326301661225    0.16993993158718124    
  0.22899628413954348    0.3038864305005565    0.36142796018750206    0.375282777413731    0.3710800444990562    
  0.25595226176839636    0.29874214252538045    0.3722404076274848    0.3614279993103378    0.2727405843566893    
  0.18932195402237906    0.14158709145311985    0.1268495829223378    0.14158714726635782    0.18932196537016746    
  0.2727406132911407    0.3614279773199375    0.3722403324463885    0.2987420933876386    0.25595226176839636    
  0.10195097203423237    0.15451865579199678    0.2987420936248486    0.37528279439591594    0.30162331604729387    
  0.20387075347495853    0.14613940980484416    0.12844411678207596    0.14613946706108139    0.20387075181959943    
  0.30162332474028297    0.3752827865479663    0.2987421002218872    0.15451863707707914    0.10195097203423237    
  0.05647123786342884    0.10195099945528849    0.2559523209154544    0.3710800230032642    0.3105419079362905    
  0.20902183200520497    0.14788031114716665    0.12913947389874347    0.1478802681484896    0.20902183860804316    
  0.3105418538086581    0.37108003343393914    0.25595233120911126    0.10195099965050643    0.05647123786342884    
  0.1019509891973739    0.15451862586522042    0.2987421579201594    0.37528280878750675    0.3016233270051124    
  0.20387074811781594    0.14613950121532351    0.12844412992637325    0.14613943142917665    0.20387075770843163    
  0.3016232715110397    0.3752828363450769    0.2987421236583834    0.15451861845110923    0.1019509891973739    
  0.15451859602433402    0.20837239752802084    0.3332723990183697    0.37531455196856467    0.2931149822512948    
  0.19972046611419    0.14528116112844544    0.12854548477259978    0.14528114986120091    0.19972050226350932    
  0.2931149832743917    0.3753145313627063    0.3332723362910389    0.20837235863480535    0.15451859602433402    
  0.2987420881198068    0.33327230694108906    0.3831376452269417    0.3550767913329384    0.26679424599613805    
  0.18834338331255934    0.14342568667770328    0.12942482697439567    0.14342573233783482    0.18834341553425485    
  0.2667943490063888    0.3550767356666377    0.38313762693778736    0.33327232343250446    0.2987420881198068    
  0.37528277303316154    0.37531456044122946    0.3550768008856489    0.2978637289217031    0.22812929242402563    
  0.17357380366610178    0.14200215689958154    0.13187935987998825    0.1420021373386542    0.17357383732472093    
  0.22812930624992145    0.2978637119151997    0.3550767784659934    0.3753144682790478    0.37528277303316154    
  0.3016233276955462    0.29311505966640833    0.26679435413156954    0.2281293207496101    0.18946787056692005    
  0.1597601740764234    0.14200211376929148    0.13616327255491584    0.14200212452543742    0.15976016565226975    
  0.1894678687524438    0.2281293174455108    0.2667943295991549    0.2931149796978653    0.3016233276955462    
  0.20387075681399094    0.19972044293691765    0.1883434030004336    0.1735738061356617    0.15976012210859036    
  0.14938075822795274    0.1434257103512612    0.14158711269242744    0.14342574519022305    0.1493807626384777    
  0.1597601159171366    0.17357380984852994    0.1883433507552157    0.1997204747673505    0.20387075681399094    
  0.14613941371628636    0.14528117668117915    0.14342573421837698    0.14200214500160743    0.14200213194518177    
  0.14342573676511014    0.1452811578263051    0.14613949960196534    0.1452811391675917    0.14342577405122678    
  0.142002119867849    0.14200214503108086    0.14342573827149324    0.14528116689120496    0.14613941371628636    
  0.12844410585963065    0.12854548127277646    0.12942484198762982    0.13187938863036605    0.13616327105168263    
  0.14158714442760847    0.1461395077484986    0.14788030106826858    0.14613946072351305    0.14158712475490004    
  0.13616326850777336    0.1318794025134925    0.1294247940807676    0.12854551760494415    0.12844410585963065    
  0.14613943029528761    0.14528117172704552    0.1434257528350152    0.14200214577753703    0.14200209851176823    
  0.14342572846452264    0.1452811413060638    0.14613948825104794    0.14528116727642754    0.14342577164290488    
  0.1420021409444702    0.14200213222047292    0.14342570560060033    0.1452811961841987    0.14613943029528761    
  0.20387073764561173    0.19972046263155344    0.18834338208056306    0.17357383179780583    0.15976010268241414    
  0.14938078753641806    0.143425715603249    0.141587129217076    0.14342575310094804    0.14938079098622722    
  0.15976016790868755    0.17357377015913125    0.18834337452624747    0.19972045307913605    0.20387073764561173    
  0.3016232998937923    0.2931150234342863    0.26679436311607535    0.22812932060616964    0.18946785933255014    
  0.15976014543068146    0.14200211133967733    0.13616327573745565    0.1420021490579581    0.1597601416197324    
  0.18946788771939171    0.22812931557542357    0.2667943060690767    0.29311498204326114    0.3016232998937923    
  0.37528275439646763    0.37531458179857324    0.35507677499582335    0.2978636981068388    0.22812929602465418    
  0.1735738448362733    0.14200212886379376    0.13187937652943488    0.14200210834735155    0.1735738423103551    
  0.2281293404617854    0.2978636793309114    0.35507674882428597    0.375314505629335    0.37528275439646763    
  0.29874204305926716    0.3332723345129226    0.3831376410710421    0.35507674534632283    0.2667942882183126    
  0.1883433740067133    0.14342570880082467    0.12942482215366524    0.14342574554362353    0.188343388162819    
  0.2667943104819735    0.3550767099522149    0.3831376039785992    0.3332723050801975    0.29874204305926716    
  0.15451857553193993    0.20837241870714537    0.33327232501850557    0.37531456844140326    0.2931149940233894    
  0.1997204886842145    0.14528113244119972    0.12854550654519165    0.14528116452983802    0.19972048488845373    
  0.29311498473321923    0.37531452077864824    0.33327234159044905    0.20837237175346965    0.15451857553193993    
  0.1019509891973739    0.15451862586522042    0.2987421579201594    0.37528280878750675    0.3016233270051124    
  0.20387074811781594    0.14613950121532351    0.12844412992637325    0.14613943142917665    0.20387075770843163    
  0.3016232715110397    0.3752828363450769    0.2987421236583834    0.15451861845110923    0.1019509891973739    
  0.25595224642182957    0.2987420827167721    0.3722404128205494    0.3614279782288403    0.27274063862367565    
  0.18932196031318815    0.14158715117532591    0.12684960717324395    0.14158711866505727    0.18932194578136796    
  0.27274060730193356    0.3614279783194949    0.37224042193265505    0.2987421044581739    0.25595224642182957    
  0.29874209538687985    0.33327235947080514    0.3831376543132164    0.3550767699203861    0.26679430440162527    
  0.18834336574242586    0.14342572415425536    0.12942483563195298    0.14342573663377056    0.18834339181577847    
  0.26679432861009156    0.35507677798253806    0.3831376229680994    0.33327234255192045    0.29874209538687985    
  0.37224030232154987    0.3831376129964834    0.3816580485993905    0.3283441812432257    0.24968143485675456    
  0.18611411939416753    0.14938072353952786    0.1376295560005785    0.14938074731971074    0.1861141543154572    
  0.2496815067681471    0.32834416574776815    0.3816580020377105    0.3831375549302555    0.37224030232154987    
  0.3614279780278542    0.35507683184221855    0.32834424204494855    0.27946126537204846    0.22593447742128842    
  0.18441302312574948    0.15976012874068946    0.15159965151366153    0.15976012394740258    0.18441301405226648    
  0.22593450297965326    0.27946123580521853    0.32834418170976754    0.3550767170498745    0.3614279780278542    
  0.2727406492179446    0.2667943214713768    0.24968151955300932    0.2259344871181019    0.20247053686052124    
  0.18441301844903565    0.17357380883163556    0.16993992038200667    0.17357378860105527    0.18441301920788    
  0.20247054487466326    0.22593449424897852    0.24968147864713863    0.2667942938571602    0.2727406492179446    
  0.18932194620741474    0.18834332272833823    0.18611416572087672    0.1844129855290658    0.184412969797519    
  0.1861141218555668    0.18834333400987255    0.1893219875939276    0.1883433690362482    0.18611415773234538    
  0.18441295609403555    0.18441299227964292    0.18611411835999098    0.1883433860628211    0.18932194620741474    
  0.14158707452964855    0.1434257469743079    0.14938077424756124    0.15976016508983953    0.17357382754576473    
  0.18834333665796665    0.19972048849129778    0.20387079020662585    0.1997204851342834    0.18834340535575153    
  0.1735737883840992    0.15976012512350543    0.14938076284571639    0.14342571934713166    0.14158707452964855    
  0.1268495803285056    0.1294248003486584    0.1376295346400671    0.15159964974699186    0.16993989324928663    
  0.18932199453703416    0.20387078408482032    0.20902186405208137    0.2038707340321838    0.18932197473813409    
  0.1699398722895203    0.15159966287102303    0.1376295262168757    0.12942483147236516    0.1268495803285056    
  0.1415870860971769    0.14342572779443988    0.14938080140056928    0.15976014781021697    0.17357377490855339    
  0.18834333933403183    0.19972047870560705    0.20387076196819925    0.19972049076456566    0.18834339333609265    
  0.17357378813018018    0.1597601384726023    0.149380736106865    0.14342573341907322    0.1415870860971769    
  0.18932191307121793    0.1883433653826413    0.18611413633129553    0.18441298129132364    0.18441292039661017    
  0.18611413014722758    0.18834334358130284    0.1893219431479633    0.18834335339286423    0.18611413867330648    
  0.18441303648600182    0.1844129241303465    0.18611415911708207    0.18834335640542296    0.18932191307121793    
  0.2727406375985808    0.2667943491494039    0.24968151514193573    0.22593450120114292    0.20247049288930494    
  0.18441300254387843    0.1735738030934288    0.16993994742243954    0.1735738132112057    0.18441297738565507    
  0.202470520698498    0.22593451571742557    0.24968148863578182    0.2667943143280251    0.2727406375985808    
  0.3614280084262506    0.35507675378040154    0.32834426224279856    0.2794612327127722    0.22593446747061974    
  0.1844130080794862    0.15976011780137528    0.15159966227850424    0.15976011729430767    0.1844130189717854    
  0.22593451901774575    0.27946123557591035    0.3283442575510796    0.35507674331647937    0.3614280084262506    
  0.3722403129742253    0.3831376072646419    0.3816580037977471    0.328344213034646    0.24968144150290686    
  0.18611414013983354    0.149380739248853    0.13762953098268943    0.14938078191402188    0.18611413443244906    
  0.24968147533993262    0.328344233216687    0.3816579947303506    0.3831376369607764    0.3722403129742253    
  0.2987420287904022    0.3332723681222457    0.3831376665063919    0.3550767564536853    0.2667943085607172    
  0.1883433388707384    0.14342572389323172    0.12942481080369847    0.14342572608929408    0.18834337187566086    
  0.266794280770375    0.35507674418632434    0.38313766274357286    0.33327230304251393    0.2987420287904022    
  0.25595224642182957    0.2987420827167721    0.3722404128205494    0.3614279782288403    0.27274063862367565    
  0.18932196031318815    0.14158715117532591    0.12684960717324395    0.14158711866505727    0.18932194578136796    
  0.27274060730193356    0.3614279783194949    0.37224042193265505    0.2987421044581739    0.25595224642182957    
  0.3710800373130492    0.3752827924103172    0.3614280132027927    0.30388642065258    0.2289962458124353    
  0.16993991486809737    0.13616328776596848    0.12548906191583714    0.13616327220886737    0.16993992465837002    
  0.2289962177080507    0.3038864668959159    0.3614280675540342    0.375282814641227    0.3710800373130492    
  0.37528278618024685    0.3753145358821899    0.35507675560325486    0.29786368881692704    0.22812930007806403    
  0.1735737950866112    0.14200214174057113    0.13187941016294097    0.14200214604447087    0.17357381529479804    
  0.22812932120462692    0.2978637257147078    0.35507679131713377    0.3753145114780628    0.37528278618024685    
  0.36142795221477036    0.355076750160657    0.3283442566942557    0.2794612626973987    0.2259344367967377    
  0.18441298601312683    0.1597600691476906    0.15159966541336062    0.1597601171738605    0.1844130360208731    
  0.22593455663134646    0.27946118448475044    0.32834422322973145    0.35507674797680694    0.36142795221477036    
  0.3038864077851131    0.29786375578464974    0.27946124289779056    0.2522127449852309    0.22418324729965636    
  0.20247054491261746    0.18946791453619458    0.18506421225854205    0.18946788347371438    0.2024705581844729    
  0.22418326344735953    0.25221275059721593    0.2794612099620998    0.29786369353472786    0.3038864077851131    
  0.22899628851144108    0.22812932977849176    0.22593451473054935    0.224183286986229    0.2241832168816437    
  0.2259345697877444    0.2281293249675054    0.22899627517871338    0.22812928525493048    0.22593453278858788    
  0.22418326622107562    0.2241832581277553    0.2259345620304638    0.22812930505053647    0.22899628851144108    
  0.1699399268234743    0.17357375216507545    0.1844130456994946    0.20247052579790484    0.22593447743269202    
  0.2496814869297789    0.26679429920690473    0.2727406325172503    0.266794320696358    0.24968149994355962    
  0.22593447486767435    0.20247056364016955    0.1844129974528366    0.17357383196333845    0.1699399268234743    
  0.1361632337965873    0.1420021723543728    0.1597601555137036    0.18946790094387408    0.22812932062110697    
  0.2667942911998577    0.29311497244489415    0.3016233859811532    0.2931150225935196    0.2667943151123412    
  0.228129280600719    0.18946789524091762    0.15976011716114247    0.1420021389051634    0.1361632337965873    
  0.1254890344995512    0.1318793679183739    0.15159970120143967    0.18506421103170118    0.22899622108686032    
  0.2727406436549587    0.3016233892026095    0.3105419446574398    0.3016232962438491    0.27274062641004976    
  0.22899621612578264    0.18506422661104158    0.15159967473184852    0.13187940549248675    0.1254890344995512    
  0.1361632744300655    0.14200213972962852    0.15976017883260624    0.18946791251921527    0.22812928887411085    
  0.26679427110019405    0.29311498300924616    0.30162337920488247    0.2931149984443292    0.26679435960382364    
  0.22812929385133626    0.1894678718723961    0.1597601138754351    0.14200212355482042    0.1361632744300655    
  0.16993988699172816    0.1735737865075504    0.18441304933484218    0.20247051823128884    0.22593445057323797    
  0.24968151409599038    0.26679428307834463    0.2727406061972971    0.2667943141944059    0.24968150086967078    
  0.22593454828072845    0.2024705031252291    0.18441299201449293    0.17357379663197006    0.16993988699172816    
  0.2289962458149812    0.22812935029647663    0.2259345306199899    0.22418326075243408    0.22418324932277364    
  0.22593451626529767    0.2281293002532934    0.22899624942054447    0.22812929675257204    0.22593451378730972    
  0.22418326049870424    0.2241833185911294    0.2259344919550947    0.22812927735051453    0.2289962458149812    
  0.3038864336224896    0.29786373182007997    0.2794612696902873    0.2522128010046436    0.22418322119512638    
  0.20247056473487152    0.1894678706901897    0.18506421347433918    0.18946785190681983    0.20247055097739067    
  0.22418323672113533    0.2522127634148504    0.2794612574334375    0.29786371265056705    0.3038864336224896    
  0.3614279284913046    0.3550767649927712    0.32834424613518365    0.27946124259833643    0.2259344560977477    
  0.18441298065833034    0.15976009354747853    0.1515996909901206    0.1597601393607806    0.18441301715592678    
  0.22593448394353657    0.2794612073657612    0.3283442067014465    0.3550767898894439    0.3614279284913046    
  0.3752827521838674    0.37531457437177446    0.3550767629103717    0.29786371163640735    0.22812928875002472    
  0.17357380152138382    0.14200214336103395    0.13187939413244687    0.14200212167083537    0.17357382493709958    
  0.22812930579311277    0.29786370928849554    0.3550767759373757    0.37531457041663846    0.3752827521838674    
  0.3710800373130492    0.3752827924103172    0.3614280132027927    0.30388642065258    0.2289962458124353    
  0.16993991486809737    0.13616328776596848    0.12548906191583714    0.13616327220886737    0.16993992465837002    
  0.2289962177080507    0.3038864668959159    0.3614280675540342    0.375282814641227    0.3710800373130492    
  0.31054190869193576    0.30162334643534705    0.2727406789459204    0.2289962189113416    0.18506420059620662    
  0.15159967193437227    0.13187940878820267    0.12548905552599005    0.13187938534670696    0.15159963599836113    
  0.1850641972460756    0.2289962621349351    0.27274069962603503    0.30162339956577816    0.31054190869193576    
  0.3016233607877696    0.2931150017890027    0.26679433829269256    0.22812930853270127    0.189467874904832    
  0.15976014205055192    0.14200213582063975    0.1361632999034163    0.14200213039205042    0.15976013923233326    
  0.18946790728052915    0.22812930998305697    0.2667943361347307    0.2931149875564238    0.3016233607877696    
  0.27274062895680723    0.2667942999995835    0.249681541021066    0.22593453866299645    0.2024704844266718    
  0.18441297161835785    0.1735737510126872    0.169939925587531    0.17357383043433236    0.18441301649402925    
  0.20247055660318677    0.22593448415858905    0.24968151457518611    0.2667942864413825    0.27274062895680723    
  0.22899625571604612    0.22812935208212493    0.22593452514657236    0.22418328478317232    0.22418323425459669    
  0.22593455068103357    0.22812930838316148    0.2289962518341018    0.22812930909413698    0.2259345245854519    
  0.22418326914927772    0.22418327879811378    0.22593449707261526    0.22812929446166258    0.22899625571604612    
  0.18506424426716714    0.18946792088777586    0.2024705623492657    0.22418327156293816    0.2522126877645889    
  0.27946129815049164    0.2978637297794619    0.30388642719847375    0.2978637009389249    0.2794612834350936    
  0.25221273119376914    0.22418325974757933    0.2024705952435249    0.1894678918105045    0.18506424426716714    
  0.1515996631495798    0.15976009143595218    0.18441303868123068    0.22593450335830983    0.27946117898535905    
  0.32834422134718183    0.3550767000100534    0.36142797775063734    0.3550767461446452    0.3283442099450496    
  0.27946118952118454    0.2259345290185622    0.18441298359168554    0.15976013955703075    0.1515996631495798    
  0.1318793586947525    0.14200216463923052    0.1735738380331735    0.2281293200394679    0.297863713569931    
  0.355076741345096    0.3753144991714656    0.375282816618947    0.3753145541576688    0.3550767477819881    
  0.29786366898998196    0.22812933807539085    0.17357380571052322    0.14200213717725998    0.1318793586947525    
  0.12548901950199998    0.13616326733990744    0.16993996085743726    0.22899626821423794    0.303886409222521    
  0.3614279954845182    0.37528281291347343    0.37108006034417107    0.37528274894240393    0.3614279541629422    
  0.30388638710708094    0.2289962587191912    0.1699399388045373    0.13616328521555882    0.12548901950199998    
  0.13187937677946066    0.1420021436724765    0.1735738502052762    0.2281293265702562    0.2978636661108141    
  0.3550767256978476    0.3753145469929705    0.37528283704659954    0.3753145306752508    0.35507679618611704    
  0.29786367730512914    0.22812929030314294    0.17357379943321358    0.1420021463090598    0.13187937677946066    
  0.151599636955873    0.1597601183802079    0.18441305345377076    0.22593446355699012    0.2794611622955339    
  0.3283442190410668    0.35507670414639664    0.36142794566093445    0.3550767572708068    0.3283442421811983    
  0.27946129232316536    0.22593445969485743    0.18441299257098492    0.15976009679165043    0.151599636955873    
  0.18506419640975771    0.18946790951778555    0.2024705697712568    0.2241832341949381    0.2522127106211476    
  0.2794612552460787    0.2978637036449014    0.30388642511875014    0.29786370275648316    0.2794612423990352    
  0.2522127575270984    0.22418332427763132    0.20247052656345577    0.18946786506113783    0.18506419640975771    
  0.2289962722116107    0.22812933075259806    0.2259345579804611    0.22418328440828916    0.22418324793237684    
  0.22593454031823165    0.2281292968989992    0.2289962592500609    0.2281292922332782    0.22593451149795488    
  0.2241832604160773    0.2241832670955293    0.22593452133653458    0.22812932728188745    0.2289962722116107    
  0.2727405917332024    0.2667943142836984    0.24968153782674365    0.22593454225822346    0.2024705111110582    
  0.18441299191054344    0.17357376957630993    0.169939951041502    0.1735738328887592    0.18441300050347542    
  0.20247051603457702    0.2259344923046127    0.24968147170510013    0.2667943402566342    0.2727405917332024    
  0.3016232968654209    0.2931149929481015    0.26679431913572255    0.22812931967948882    0.18946787429710082    
  0.1597601173968677    0.14200214341482922    0.13616329631165436    0.14200212038166554    0.15976012544584292    
  0.18946787443078852    0.22812929104207189    0.266794322534403    0.29311499941282393    0.3016232968654209    
  0.31054190869193576    0.30162334643534705    0.2727406789459204    0.2289962189113416    0.18506420059620662    
  0.15159967193437227    0.13187940878820267    0.12548905552599005    0.13187938534670696    0.15159963599836113    
  0.1850641972460756    0.2289962621349351    0.27274069962603503    0.30162339956577816    0.31054190869193576    
  0.20902178737801932    0.20387072755399344    0.1893219882010988    0.16993990173139967    0.15159967421444612    
  0.13762952430778413    0.12942484187548403    0.12684960393605635    0.12942482176709114    0.1376295166078439    
  0.1515996359603717    0.16993993017780054    0.18932197120322553    0.20387076608973628    0.20902178737801932    
  0.2038707271141426    0.19972049055622426    0.18834339050800591    0.1735738224350405    0.15976012989801572    
  0.14938075799838965    0.14342573998168362    0.1415871286867616    0.14342573793478194    0.1493807722893483    
  0.15976013986261647    0.1735738346381554    0.1883433690936071    0.19972048571396073    0.2038707271141426    
  0.18932192557299873    0.1883433738249204    0.1861141483392408    0.184412989069544    0.18441296217729153    
  0.1861141342116952    0.188343316337037    0.18932199681690448    0.18834336263481188    0.186114158703152    
  0.18441300531926214    0.18441294486267185    0.1861141000868629    0.1883433310497253    0.18932192557299873    
  0.169939940845346    0.1735738466562503    0.18441300967715982    0.20247058719231636    0.2259344786456889    
  0.24968150639406952    0.2667943297222603    0.27274060473341777    0.2667943422138336    0.24968149723368327    
  0.2259345145442619    0.2024705656306685    0.18441297163371992    0.17357378245328314    0.169939940845346    
  0.15159968061650356    0.159760153979913    0.18441300233807384    0.2259344792332774    0.2794611650227169    
  0.3283442658293194    0.3550767470316632    0.36142794980845117    0.3550767138358503    0.3283442606078459    
  0.27946121558380177    0.2259344974235109    0.18441297855677086    0.15976011320107064    0.15159968061650356    
  0.13762949503070668    0.14938071057890048    0.18611415901998796    0.24968146721619902    0.3283441666978496    
  0.38165802310574404    0.38313754456665955    0.37224039163933825    0.3831376682626238    0.3816580467670011    
  0.3283441888318364    0.24968150550145052    0.18611410847308013    0.1493807701442641    0.13762949503070668    
  0.12942475420083968    0.14342578167432668    0.1883433966536549    0.2667943370907419    0.3550767566476509    
  0.38313760333302266    0.33327236450620945    0.2987421609789072    0.33327232598013895    0.38313765647409337    
  0.355076732500041    0.26679432076245885    0.1883433788589595    0.14342573519939594    0.12942475420083968    
  0.12684957441012187    0.141587112259118    0.189321981664238    0.272740590695744    0.36142793638642307    
  0.37224042511928923    0.29874212567482383    0.2559523160257013    0.2987420930438711    0.37224037642479507    
  0.3614278988550046    0.2727406133008299    0.18932195831168241    0.14158712720366584    0.12684957441012187    
  0.12942477483094364    0.14342572881379384    0.18834342110055047    0.2667943331913614    0.35507670233830385    
  0.3831376274552463    0.3332723405856524    0.2987420867701388    0.33327232914338234    0.38313767236427043    
  0.35507673204827284    0.2667943291330935    0.18834334462250876    0.14342572417954008    0.12942477483094364    
  0.1376294971333689    0.14938074536755663    0.18611414796025802    0.24968148984987573    0.32834412345028685    
  0.3816580313354459    0.3831375778567887    0.37224038081533484    0.3831375709258902    0.38165805595054797    