#     DFTpy    
  CRYSTAL 
    
  PRIMVEC    
  1.3464168255922893    -2.332062350091449    0.0    
  1.3464168255922893    2.332062350091449    0.0    
  0.0    0.0    2.534391752482758    
  PRIMCOORD    
  1    1    
  Si    0.0    0.0    0.0    
  BEGIN_BLOCK_DATAGRID_3D    
  3d_datagrid_density    
  BEGIN_DATAGRID_3D#0    
  13    13    11    
  0.0    0.0    0.0    
  1.3464168255922893    -2.332062350091449    0.0    
  1.3464168255922893    2.332062350091449    0.0    
  0.0    0.0    2.534391752482758    
  0.05425237466663552    0.09378139348600402    0.23460653544211896    0.3791897082334947    0.37909571211694393    
  0.318908315850309    0.29205806391397954    0.3189083416536375    0.3790957615343136    0.37918966582237745    
  0.2346065701843976    0.09378137680004835    0.05425237466663552    0.09378140720276325    0.0937904531385817    
  0.18800836103983692    0.34155729517239913    0.3932873837391354    0.3400153473713567    0.2918000005256055    
  0.2917923493164677    0.34002292648563104    0.393290878510643    0.34151249830811214    0.1880451081217241    
  0.09378140720276325    0.23460655047641318    0.18800835524171888    0.2346240439145385    0.34154007187829677    
  0.39399681978627576    0.3501299208976981    0.29097274468211154    0.26803121835065435    0.2909780128053034    
  0.3501097330834801    0.39405635875090106    0.34151245183035245    0.23460655047641318    0.37918968428697863    
  0.3415572472391474    0.3415399761399565    0.3791839120657571    0.3932664840199251    0.35016292748969363    
  0.29038785590975613    0.25471516307734526    0.25469932484448754    0.2904115466439245    0.35010975516456877    
  0.3932908347717851    0.37918968428697863    0.3790956730734182    0.39328736070061965    0.3939968021849271    
  0.39326655788556397    0.37911941229192664    0.34003148209565814    0.29094262891752204    0.25470678267254165    
  0.24199773051282794    0.25469931762305753    0.29097802326143807    0.34002295283058837    0.3790956730734182    
  0.3189083174837776    0.34001542140420316    0.35012997852085226    0.35016290545221596    0.3400315410804814    
  0.31887659103588145    0.29179170180571423    0.268064313884467    0.25470680712942234    0.25471515845528875    
  0.26803124044452176    0.2917923199814111    0.3189083174837776    0.2920580418367031    0.29180004362042    
  0.2909727118761648    0.29038788044011005    0.2909426061205167    0.29179166676185864    0.29209142537532495    
  0.2917916800215111    0.29094263887418875    0.29038787934833166    0.29097272253596335    0.29179993734312015    
  0.2920580418367031    0.31890831798181274    0.2917923669209254    0.2680312425957653    0.25471517205864913    
  0.2547068072498682    0.26806430516989715    0.291791678066883    0.31887662324672417    0.34003152950598375    
  0.3501629504332278    0.3501300189231114    0.3400154212008721    0.31890831798181274    0.3790957386685656    
  0.3400229493233624    0.29097800708066224    0.2546993457939685    0.2419977352214659    0.25470677217296595    
  0.29094264979567985    0.3400315147922116    0.37911944432500966    0.39326649547441983    0.3939967845750706    
  0.3932873415557622    0.3790957386685656    0.37918971252239697    0.39329088381815996    0.35010974753286944    
  0.2904115074082847    0.2546993247342288    0.2547151419023486    0.29038783815119296    0.35016296107008693    
  0.39326652347512125    0.3791838887122015    0.34154003613288075    0.34155726355175337    0.37918971252239697    
  0.2346065017628943    0.34151245030948796    0.39405636702358554    0.3501097836435315    0.2909779393797354    
  0.2680311859544695    0.2909727379478624    0.3501299606692975    0.39399675582311033    0.3415400478992093    
  0.23462404189691663    0.18800836527611717    0.2346065017628943    0.09378139857620352    0.18804511205486096    
  0.3415124627110597    0.39329091684070483    0.3400229422512257    0.29179232627410756    0.2918000112234927    
  0.3400153780467191    0.3932873616855045    0.34155733275662964    0.1880083526865983    0.09379045636209496    
  0.09378139857620352    0.05425237466663552    0.09378139348600402    0.23460653544211896    0.3791897082334947    
  0.37909571211694393    0.318908315850309    0.29205806391397954    0.3189083416536375    0.3790957615343136    
  0.37918966582237745    0.2346065701843976    0.09378137680004835    0.05425237466663552    0.10875196765454377    
  0.1558014097219937    0.28809492571218015    0.3859050985681976    0.3583519947362088    0.29599123865163895    
  0.2703884098669002    0.29599126990527724    0.35835202914042563    0.38590507474759184    0.2880949768078464    
  0.15580137911646041    0.10875196765454377    0.15580142654107487    0.15578146498725762    0.24847438389013984    
  0.36563953775500907    0.37877884052495503    0.3167890647236032    0.27023189242491147    0.27022166702441236    
  0.31679920139420553    0.37877529531983145    0.36561051739568007    0.2484925743828542    0.15580142654107487    
  0.28809495150486636    0.24847435681755903    0.28814038631813094    0.3656146690199322    0.3829085084231413    
  0.3271964814108066    0.26954497888318923    0.2481379847272613    0.26954758641791277    0.3271862900556581    
  0.382947122605366    0.36561050202191464    0.28809495150486636    0.38590503195515463    0.3656395231973869    
  0.3656146032665695    0.38588482642132904    0.37876139102420225    0.3272280268817515    0.26900473270233277    
  0.23580533446977053    0.23579346748284272    0.2690217717595677    0.3271862729427645    0.378775274460717    
  0.38590503195515463    0.3583519726570898    0.37877882134087687    0.382908490471574    0.3787614120685521    
  0.35838919971568384    0.316799214427017    0.26952022017602734    0.23579861734543042    0.22407872936937942    
  0.23579344385167011    0.2695476110235847    0.31679920261717903    0.3583519726570898    0.29599124000176447    
  0.31678910047890185    0.32719654277892696    0.32722805360783197    0.31679924551413624    0.2959542692873857    
  0.27022433070078616    0.24816460003991264    0.23579861151421663    0.23580536442890931    0.2481380166860435    
  0.27022164991540504    0.29599124000176447    0.2703883984669233    0.2702319050537681    0.26954492817111236    
  0.2690047355925675    0.2695201905203397    0.270224289649379    0.27042581636960644    0.2702243095207671    
  0.26952018876319733    0.26900473582793155    0.2695449924023791    0.2702318531467658    0.2703883984669233    
  0.29599125663329    0.27022168302226723    0.24813802501803728    0.2358053589317556    0.23579861551238315    
  0.24816459139605182    0.27022430861032837    0.2959542842413158    0.31679923500184093    0.32722807143360055    
  0.32719659769633896    0.3167890947767239    0.29599125663329    0.358351989195448    0.3167991878295019    
  0.2695475924262786    0.23579344614249564    0.22407874110266537    0.23579861050267475    0.26952022573758017    
  0.3167992331496813    0.35838923248738813    0.3787613933992504    0.3829084821518172    0.3787787886817307    
  0.358351989195448    0.3859050614564559    0.37877531395755015    0.32718630649915115    0.2690218018928843    
  0.23579345021415984    0.2358053295328734    0.26900471918386837    0.3272280445510521    0.3787614480375786    
  0.3858848924416411    0.3656146450930951    0.3656395109512366    0.3859050614564559    0.2880949116438669    
  0.36561049742736734    0.38294714517404066    0.3271863131229523    0.2695475888241379    0.24813797672304894    
  0.26954494523386796    0.3271965495718654    0.38290851028387907    0.3656146820819771    0.28814041203535046    
  0.24847435490560787    0.2880949116438669    0.15580140358097283    0.24849256640158943    0.3656105026657563    
  0.3787753480905571    0.3167992044686691    0.27022167011511444    0.27023191528061674    0.31678907005815415    
  0.3787788115608562    0.3656395456235185    0.2484743595579223    0.15578145652261652    0.15580140358097283    
  0.10875196765454377    0.1558014097219937    0.28809492571218015    0.3859050985681976    0.3583519947362088    
  0.29599123865163895    0.2703884098669002    0.29599126990527724    0.35835202914042563    0.38590507474759184    
  0.2880949768078464    0.15580137911646041    0.10875196765454377    0.3033062026601976    0.33499852289132415    
  0.38543811654113674    0.37191830897689293    0.3016880321211333    0.24061267042204126    0.2187891876116327    
  0.24061268096868352    0.30168807008255194    0.37191825460734096    0.385438140314443    0.33499846971676134    
  0.3033062026601976    0.33499852601817715    0.3349700050647991    0.3754473907640812    0.3859746521796244    
  0.3304873993750383    0.25973549065644874    0.21889766768716237    0.21889074305314513    0.259740922679576    
  0.3304825422539435    0.38596816889399577    0.3754483036462876    0.33499852601817715    0.3854381058761756    
  0.3754473963947833    0.38547151237729876    0.38596386992696097    0.3400509736051254    0.27040143698506913    
  0.21875566185538484    0.2009541217693817    0.21875774083281832    0.27040030451179875    0.34006158643345447    
  0.38596815380887883    0.3854381058761756    0.37191827254453375    0.38597459347984525    0.385963826170893    
  0.37190085146462504    0.3304825175765802    0.2704115651736153    0.21850778641504529    0.19090405444788008    
  0.1909020841113128    0.21850863084324806    0.27040029480246114    0.33048252559944813    0.37191827254453375    
  0.30168804288559153    0.33048734068188185    0.3400509789977489    0.3304825363203704    0.30170671364144425    
  0.2597390976310618    0.21874734528086184    0.1909027408092041    0.18129622566179357    0.19090207489879557    
  0.218757752761216    0.2597409383829696    0.30168804288559153    0.24061267205285805    0.25973553261916604    
  0.27040142976917775    0.27041159566517553    0.25973912518159115    0.24059526603932574    0.2188943475197084    
  0.20096293542160637    0.19090273486543557    0.19090404736728198    0.20095417039494556    0.21889070627390317    
  0.24061267205285805    0.2187891704144743    0.21889766209185904    0.21875562519797703    0.21850777051551418    
  0.2187472834068737    0.21889431608718074    0.21880484618200335    0.21889429263413795    0.21874733255620007    
  0.21850778354415906    0.2187556449363964    0.21889758077249802    0.2187891704144743    0.24061266949978843    
  0.21889072175863314    0.20095415381618145    0.19090406690981837    0.19090270668436943    0.2009629307294246    
  0.21889434524742743    0.24059528809019634    0.2597391087606064    0.27041159278395793    0.2704015138147336    
  0.25973555227149375    0.24061266949978843    0.3016880587055868    0.2597409267763276    0.21875775161795608    
  0.19090207661264516    0.18129621231769122    0.19090273531613494    0.21874734503464954    0.25973909505407516    
  0.3017067213448409    0.33048251815757157    0.3400509472165826    0.3304873416095737    0.3016880587055868    
  0.37191827848314146    0.33048254307630454    0.2704002802107488    0.21850862983583347    0.19090208389063493    
  0.1909040188039946    0.21850778755894473    0.27041156991282894    0.33048253606780637    0.37190090489680855    
  0.38596384423045327    0.3859746059725292    0.37191827848314146    0.3854380852383413    0.3859681203125747    
  0.34006158396098124    0.2704003319968745    0.2187577116426634    0.20095410588018586    0.21875564453479832    
  0.27040144227558227    0.34005096327184037    0.38596385381803777    0.38547153974420245    0.37544737248661325    
  0.3854380852383413    0.33499853662282225    0.37544831123871597    0.38596811751679705    0.3304825682790392    
  0.2597409128163886    0.21889069762151064    0.2188976586190251    0.259735515421013    0.3304873668360103    
  0.3859746266096179    0.3754473814024577    0.33496996954186165    0.33499853662282225    0.3033062026601976    
  0.33499852289132415    0.38543811654113674    0.37191830897689293    0.3016880321211333    0.24061267042204126    
  0.2187891876116327    0.24061268096868352    0.30168807008255194    0.37191825460734096    0.385438140314443    
  0.33499846971676134    0.3033062026601976    0.4589540483168814    0.4445008204180624    0.3939669692552248    
  0.3126446207506822    0.2332271028117554    0.18217488208367447    0.16539948289637763    0.18217488986291835    
  0.23322713252465588    0.3126445865202029    0.39396699182073236    0.4445007439703437    0.4589540483168814    
  0.44450080534814534    0.444497975149377    0.41134981070257104    0.34300644048904466    0.2614360921984067    
  0.19773597531460918    0.1655889595048665    0.16558798347889853    0.19773686521916836    0.2614346675109137    
  0.3430068240136027    0.4113496733487328    0.44450080534814534    0.3939669624232836    0.4113498162320445    
  0.3939697134607958    0.3430075766370363    0.27216439946664533    0.20719611037283509    0.16581958869547803    
  0.15215259015050353    0.16581982929755898    0.20719637120896503    0.2721655917655497    0.34300679548704366    
  0.3939669624232836    0.312644599656082    0.34300637955376684    0.3430075205953165    0.3126406730343621    
  0.2614363567644344    0.2071957423032434    0.16586257845069396    0.14462945346185807    0.14463059631976607    
  0.16586079616665866    0.20719636135905822    0.2614346561455633    0.312644599656082    0.2332271044739032    
  0.26143605870817527    0.2721644125380633    0.26143636740954107    0.23322837986822487    0.19773698929122818    
  0.16581881796692835    0.14463029955294926    0.13732487493672807    0.14463057023629988    0.16581983190662322    
  0.1977368956383077    0.2332271044739032    0.1821748810104489    0.19773601057077073    0.20719609795761965    
  0.20719576468855955    0.19773700968208005    0.18217271997684112    0.1655888060104705    0.15215280328286038    
  0.1446302940301522    0.1446294384426117    0.152152618800934    0.16558793961807147    0.1821748810104489    
  0.16539948233353827    0.1655889673356669    0.16581958769853775    0.165862571217295    0.1658187610272902    
  0.1655887772742857    0.16540080101535817    0.1655887737259689    0.16581879445927472    0.16586258198701812    
  0.16581959568078689    0.16558891298929407    0.16539948233353827    0.1821748762850875    0.16558797293311964    
  0.1521525841010735    0.14462945848830278    0.14463028202144818    0.15215280290228073    0.16558879194475132    
  0.18217272678450583    0.19773699001519618    0.20719575474392687    0.20719616082272266    0.19773601147138561    
  0.1821748762850875    0.23322713121985528    0.1977368915114248    0.16581984202053196    0.14463058833352418    
  0.1373248690709935    0.14463030178327735    0.1658188015901584    0.19773699276161738    0.2332283678860387    
  0.2614363472184128    0.27216438953533983    0.2614360542960441    0.23322713121985528    0.3126445928185914    
  0.26143466905856944    0.20719633350561414    0.1658608066605065    0.14463057940801077    0.14462942255576727    
  0.16586255426765012    0.20719573941069291    0.26143636827042205    0.312640694914063    0.3430075786303568    
  0.34300637858610616    0.3126445928185914    0.39396690955606856    0.34300677132375856    0.27216557511841355    
  0.20719637811716915    0.16581982056652614    0.1521525631754149    0.16581959682130107    0.20719613062639428    
  0.2721643969973248    0.3430075681544638    0.39396974808430013    0.4113497600386802    0.39396690955606856    
  0.4445008306635246    0.4113496849111934    0.3430067754451215    0.2614346916243526    0.1977368724702027    
  0.1655879495106855    0.16558896654944524    0.19773599108007833    0.26143608740133645    0.3430064062641349    
  0.4113497986450778    0.44449793287828304    0.4445008306635246    0.4589540483168814    0.4445008204180624    
  0.3939669692552248    0.3126446207506822    0.2332271028117554    0.18217488208367447    0.16539948289637763    
  0.18217488986291835    0.23322713252465588    0.3126445865202029    0.39396699182073236    0.4445007439703437    
  0.4589540483168814    0.4414614054977675    0.4119947835225388    0.3382112773532774    0.2528222210361005    
  0.1837960776850793    0.14266651766087346    0.12946230058885352    0.14266653530913567    0.18379608651533516    
  0.25282221135532884    0.3382113150699706    0.411994683336871    0.4414614054977675    0.4119947785756057    
  0.41199760604357155    0.3605011033089501    0.2820526566148573    0.20741377601521369    0.1551093256053784    
  0.12962409636613834    0.12962511557782053    0.15510835640074427    0.2074145114536563    0.28205388647606383    
  0.36049963662379675    0.4119947785756057    0.3382112856822005    0.3605010790236377    0.33820761705536506    
  0.2820539005641716    0.21662231539665358    0.1629201111770791    0.13006955768708678    0.11929385270548423    
  0.130069316441157    0.16292075694299463    0.21662024092928084    0.28205387754255346    0.3382112856822005    
  0.2528221742454039    0.28205267270214013    0.2820538364554129    0.2528240563043871    0.20741368328394386    
  0.16292006871183248    0.1303514041914598    0.11377777046836852    0.11377747945343947    0.13035165390597564    
  0.16292075755757515    0.20741450741712875    0.2528221742454039    0.18379606131947343    0.20741375058602782    
  0.21662232721674518    0.2074136771981221    0.18379537004754473    0.15510819868681328    0.13007049540371327    
  0.11377728025848073    0.10823108066810451    0.11377745405791548    0.13006932252468026    0.15510835430062075    
  0.18379606131947343    0.14266652432169696    0.15510937041808145    0.16292016776611254    0.1629200887418369    
  0.155108236697223    0.14266821239914693    0.12962431609912556    0.11929355158900179    0.11377727583216261    
  0.11377778807580002    0.11929386677175915    0.12962509867317465    0.14266652432169696    0.12946229225896114    
  0.12962411284331882    0.13006951296321762    0.130351423493009    0.1300704734694677    0.12962429980862    
  0.12946138301337914    0.12962431356839993    0.13007047581303885    0.13035142902796987    0.13006955504185264    
  0.1296240680521901    0.12946229225896114    0.14266653203737678    0.12962512134265425    0.119293873005936    
  0.11377779178634158    0.11377727134644366    0.11929356131873807    0.1296243176413993    0.14266823393055714    
  0.1551082105298226    0.16292009446395167    0.16292019485569353    0.15510936627489808    0.14266653203737678    
  0.18379607307700147    0.15510835704845602    0.1300693115604086    0.11377746311544493    0.10823108200301629    
  0.11377726854137396    0.1300704882776387    0.15510820367514463    0.18379540099541708    0.20741363848803226    
  0.21662231597377693    0.20741372324449422    0.18379607307700147    0.2528222036067042    0.20741452211362726    
  0.1629207589816795    0.13035167254094263    0.1137774699001103    0.11377777272304164    0.1303514233608145    
  0.16292008185307483    0.2074136834488116    0.252824094303091    0.28205386712948993    0.2820526512349199    
  0.2528222036067042    0.3382112401606793    0.2820538531245724    0.21662025354942208    0.1629207769496191    
  0.13006929521428712    0.11929384855063169    0.1300695507361475    0.16292015843241353    0.216622310050605    
  0.28205389057797553    0.33820765067493985    0.36050106294753087    0.3382112401606793    0.41199476859838036    
  0.3604996496605261    0.28205387161746265    0.20741453494609066    0.1551083657629826    0.1296251068737987    
  0.12962410063361032    0.15510933995441117    0.20741374508339386    0.2820526606048431    0.3605010861689961    
  0.411997526971173    0.41199476859838036    0.4414614054977675    0.4119947835225388    0.3382112773532774    
  0.2528222210361005    0.1837960776850793    0.14266651766087346    0.12946230058885352    0.14266653530913567    
  0.18379608651533516    0.25282221135532884    0.3382113150699706    0.411994683336871    0.4414614054977675    
  0.41133081369172125    0.38224412250128786    0.31075299773494314    0.23039058846551377    0.16686517284071245    
  0.12923666621347252    0.11712487851090607    0.129236684358726    0.16686519681650508    0.2303905594353001    
  0.3107530461794496    0.38224406077127393    0.41133081369172125    0.38224414409154567    0.38224769654109353    
  0.3321135578639538    0.25755035891385697    0.1884585590164506    0.14064092001382064    0.11730565660242596    
  0.11730604913066263    0.14063988010999026    0.1884596387933416    0.2575527179670106    0.33211068879276934    
  0.38224414409154567    0.31075301824004103    0.3321135671987964    0.3107470667909384    0.25755300204814136    
  0.1968582059411047    0.14784680269250697    0.1179052784207613    0.10803360440985466    0.11790573596787621    
  0.1478470593517017    0.19685518907069585    0.2575526739236371    0.31075301824004103    0.23039057846737318    
  0.25755032674242295    0.25755291765237415    0.23039296305841653    0.18845821742662497    0.14784598150623537    
  0.11832802500348748    0.10329730669111142    0.10329655221841699    0.11832838557942173    0.14784706794297328    
  0.1884596144846023    0.23039057846737318    0.16686515560716703    0.18845853397309015    0.19685819081511313    
  0.18845826289863696    0.16686480039780027    0.1406393372963802    0.11790736484234435    0.10329655235804337    
  0.09837819604990095    0.10329654509409032    0.11790574308005215    0.1406398976661394    0.16686515560716703    
  0.12923666914834153    0.14064096906500356    0.14784684409448895    0.14784597545391823    0.14063937645872707    
  0.12923870944678237    0.117306048596069    0.10803218970844265    0.10329656265027874    0.1032973179298952    
  0.10803361375688453    0.11730602217513626    0.12923666914834153    0.11712486502296382    0.11730567325398315    
  0.11790525604501184    0.1183280355448122    0.11790734476349224    0.1173060276126521    0.11712278120971611    
  0.11730603376761758    0.11790736576935405    0.11832803119352471    0.11790526150094396    0.11730560288690098    
  0.11712486502296382    0.12923666903636435    0.11730605784692916    0.10803361076907854    0.10329731574087032    
  0.10329657101410844    0.1080321851864977    0.11730603538354178    0.12923872229166639    0.1406393510540906    
  0.14784600255902489    0.14784687098531632    0.14064096404704937    0.12923666903636435    0.16686518226053335    
  0.1406398993008568    0.11790572779214062    0.1032965631605424    0.09837819837042604    0.10329654803865918    
  0.11790737050762928    0.1406393569233473    0.16686481629707517    0.18845821748236607    0.19685819025620227    
  0.18845850769910738    0.16686518226053335    0.23039059603275697    0.18845965081989524    0.14784705826654748    
  0.11832835796949266    0.10329654957766905    0.10329729889862098    0.11832800605161779    0.1478459991356452    
  0.18845823795926694    0.2303929644639362    0.25755297779099046    0.25755033182144854    0.23039059603275697    
  0.31075297126910395    0.25755266797451576    0.19685518703152147    0.14784709076111002    0.11790569451375389    
  0.10803357754677763    0.11790528355382772    0.14784683609671231    0.196858154752051    0.2575529722988958    
  0.31074708073652124    0.33211356602250197    0.31075297126910395    0.38224411857990126    0.3321107245857716    
  0.2575526769293835    0.18845966821216084    0.14063990025606524    0.11730603161028001    0.11730565644700015    
  0.14064093947164732    0.18845853109755345    0.2575503991479785    0.33211354641433427    0.38224768770459433    
  0.38224411857990126    0.41133081369172125    0.38224412250128786    0.31075299773494314    0.23039058846551377    
  0.16686517284071245    0.12923666621347252    0.11712487851090607    0.129236684358726    0.16686519681650508    
  0.2303905594353001    0.3107530461794496    0.38224406077127393    0.41133081369172125    0.4414614046732132    
  0.4119947688666666    0.3382112599669229    0.25282223038109836    0.18379608344609927    0.14266652244096134    
  0.1294623022401717    0.14266653908065854    0.18379609951130235    0.2528222048103066    0.33821131446493574    
  0.41199469635276453    0.4414614046732132    0.4119947835127838    0.41199756841250856    0.36050110973588306    
  0.2820526656275206    0.20741376794830796    0.15510934130891477    0.12962409979698494    0.1296251164624689    
  0.15510835252050256    0.20741450783422338    0.2820538938155414    0.36049965344813456    0.4119947835127838    
  0.3382112825918313    0.3605010748410551    0.33820760242484965    0.2820538996983939    0.21662233226391553    
  0.16292011044867577    0.13006956180563972    0.11929383981465058    0.13006930611756282    0.16292076399988462    
  0.216620240737969    0.2820538722696135    0.3382112825918313    0.2528221797896514    0.28205265189794737    
  0.2820538439454013    0.2528240474247948    0.2074136682940969    0.16292006661422515    0.13035142435572897    
  0.1137777724947499    0.1137774681852109    0.13035166764443504    0.16292074925092254    0.20741449201684947    
  0.2528221797896514    0.1837960577646838    0.2074137516351694    0.21662231018744696    0.20741367755767293    
  0.1837953818865225    0.1551082013829077    0.1300705020815843    0.11377727603377256    0.10823107210923323    
  0.11377745862273822    0.13006932703250568    0.1551083586769943    0.1837960577646838    0.14266652160550375    
  0.15510936655790558    0.16292015104088906    0.16292008990986537    0.15510822675511537    0.14266822159796969    
  0.12962432284147907    0.11929355801383969    0.11377726868101506    0.11377780581687251    0.11929385946357879    
  0.12962510119515291    0.14266652160550375    0.12946229060135328    0.12962410155660656    0.13006952838263522    
  0.13035142276003367    0.13007048269331747    0.12962429826117783    0.12946138602817725    0.1296243089865669    
  0.13007047301001304    0.13035142594430874    0.13006956615884083    0.1296240654754292    0.12946229060135328    
  0.14266653059275874    0.12962512823811315    0.11929386129156756    0.11377779060356202    0.11377727606102592    
  0.11929356232754891    0.12962431654179127    0.14266822774989757    0.1551082027881297    0.1629200990368599    
  0.16292019328246946    0.15510935598945497    0.14266653059275874    0.18379607604281575    0.15510835603883852    
  0.13006931359086718    0.11377745937540877    0.10823107964421133    0.11377727241671183    0.13007050063434555    
  0.15510821189382457    0.18379539793538657    0.20741365411685034    0.21662232475903695    0.20741372520075183    
  0.18379607604281575    0.25282218920200844    0.207414521419983    0.16292076130228325    0.13035168012044332    
  0.11377746145217284    0.11377777489998317    0.13035141780393342    0.16292007324711594    0.20741368875438632    
  0.2528240958346888    0.2820538822127386    0.28205263564792715    0.25282218920200844    0.338211247005538    
  0.28205386905208624    0.21662024879158717    0.16292078005900335    0.13006931071507963    0.11929383620552207    
  0.13006954840888707    0.16292016069015205    0.2166223241126791    0.2820539003517871    0.33820763945976484    
  0.3605010719957267    0.338211247005538    0.41199474762464616    0.3604996500827855    0.28205387278795163    
  0.2074145348245605    0.1551083641503375    0.12962511738340454    0.12962410654618123    0.15510934605158014    
  0.2074137442044819    0.28205266989481775    0.3605010711190898    0.41199752469031997    0.41199474762464616    
  0.4414614046732132    0.4119947688666666    0.3382112599669229    0.25282223038109836    0.18379608344609927    
  0.14266652244096134    0.1294623022401717    0.14266653908065854    0.18379609951130235    0.2528222048103066    
  0.33821131446493574    0.41199469635276453    0.4414614046732132    0.4589540122962082    0.4445008204410553    
  0.3939669505492306    0.3126446355478254    0.2332271030342199    0.18217487926825232    0.16539948953820638    
  0.18217488611769408    0.23322714111066842    0.3126445820181417    0.39396698103556665    0.44450075142783485    
  0.4589540122962082    0.4445008264409282    0.4444979795901071    0.41134980250972125    0.3430064323784171    
  0.26143610961617697    0.1977359697138459    0.1655889698093518    0.16558798325867022    0.19773688198614192    
  0.2614346760191672    0.3430068220337889    0.4113496780804651    0.4445008264409282    0.393966942099615    
  0.4113498007687674    0.39396970930703973    0.34300758065816717    0.27216441930704544    0.20719611011386804    
  0.16581960325781578    0.15215257345948802    0.16581982780284046    0.20719637191257098    0.27216557437253247    
  0.3430068006858236    0.393966942099615    0.3126445994557459    0.3430063866583335    0.343007528981705    
  0.31264066737145874    0.26143635933407555    0.20719573258936308    0.1658625766173818    0.14462944539441963    
  0.14463058667930487    0.16586080244968626    0.20719636431184218    0.2614346605748334    0.3126445994557459    
  0.23322710925048332    0.2614360571365381    0.2721644266174288    0.26143637157096583    0.2332283789736149    
  0.1977369810669256    0.16581881404645935    0.14463029913002434    0.1373248695072248    0.14463057609465252    
  0.16581984351739315    0.1977368887158898    0.23322710925048332    0.18217488137909515    0.1977360115688033    
  0.2071960999826549    0.20719576087115393    0.19773700378633036    0.18217271008436708    0.16558881003495354    
  0.15215279492860495    0.1446302939514338    0.14462944509011108    0.1521526139684592    0.16558794547428154    
  0.18217488137909515    0.16539947161514718    0.16558896859028793    0.1658195749389952    0.16586256433187652    
  0.16581876424018888    0.16558878549621092    0.16540080381707675    0.16558875907759918    0.16581879534490446    