#     DFTpy    
  CRYSTAL 
    
  PRIMVEC    
  6.927931034482758    0.0    0.0    
  0.0    6.927931034482758    0.0    
  0.0    0.0    6.927931034482758    
  PRIMCOORD    
  8    1    
  Si    0.0    0.0    0.0    
  Si    1.7319827586206895    1.7319827586206895    1.7319827586206895    
  Si    0.0    3.463965517241379    3.463965517241379    
  Si    1.7319827586206895    5.195948275862068    5.195948275862068    
  Si    3.463965517241379    0.0    3.463965517241379    
  Si    5.195948275862068    1.7319827586206895    5.195948275862068    
  Si    3.463965517241379    3.463965517241379    0.0    
  Si    5.195948275862068    5.195948275862068    1.7319827586206895    
  BEGIN_BLOCK_DATAGRID_3D    
  3d_datagrid_density    
  BEGIN_DATAGRID_3D#0    
  31    31    31    
  0.0    0.0    0.0    
  6.927931034482758    0.0    0.0    
  0.0    6.927931034482758    0.0    
  0.0    0.0    6.927931034482758    
  0.07816285992975253    0.13334056348532536    0.3089573897909856    0.4231916841682372    0.3268430282740729    
  0.18749864876158093    0.10007624154705094    0.05609566731415214    0.035113967160008405    0.024957730859929007    
  0.019703878195974425    0.016751802614715306    0.014941074109805063    0.013811488340224734    0.013161541519849038    
  0.012939998048664797    0.013161571109169438    0.013811465120824186    0.014941111718220178    0.016751750540966327    
  0.01970393756764093    0.024957668024336112    0.03511407486543318    0.05609556114934879    0.10007635042772675    
  0.1874984887469623    0.3268432147637813    0.4231915388384443    0.3089575692303321    0.133340504782282    
  0.07816285992975253    0.13334054239130605    0.19461026227409656    0.35381930278405305    0.42036364703906237    
  0.30983935866207163    0.17780418554262892    0.09643113426874543    0.05511781444732867    0.03512539214007343    
  0.025292628620918224    0.020103681734603907    0.017124289382253178    0.01526122997140163    0.014074032975625992    
  0.013389378554077557    0.013161544630836988    0.013389360269571347    0.01407404971639941    0.015261205308568655    
  0.017124334380710315    0.0201036241103354    0.025292701842568176    0.03512531355763265    0.0551179440867506    
  0.0964309394105743    0.17780434983540278    0.30983928931346194    0.42036391101789533    0.3538192404732412    
  0.19461026626131223    0.13334054239130605    0.30895752769853446    0.3538192161733546    0.4223337456585869    
  0.38527586653951723    0.26178978262766095    0.1524886701015754    0.08689136116479668    0.05259515329545546    
  0.03529776678051276    0.026344674693466033    0.021314372596324252    0.01823814561561597    0.016205544195992707    
  0.01485934171388927    0.014074028036284455    0.013811472313364971    0.014074036998575689    0.014859299225870549    
  0.016205604333862804    0.018238082444786995    0.02131443512515455    0.026344601754484647    0.03529785454762161    
  0.05259501865925312    0.08689149950500911    0.15248850005939735    0.2617900106514822    0.3852757839715541    
  0.4223338726086443    0.35381917936498164    0.30895752769853446    0.4231914878920423    0.4203637997343411    
  0.3852758759272867    0.2979381697962864    0.19684615891713247    0.12081513430167999    0.07489929133444945    
  0.0495846052961608    0.035901454285044855    0.02816293115037557    0.0233430816476824    0.020099525509853087    
  0.017799029170723155    0.016205555497831946    0.015261224208926755    0.014941092574646228    0.015261212584841661    
  0.01620559054663794    0.017798993113667255    0.020099586603395368    0.02334299818817989    0.028163014701139716    
  0.03590135634505801    0.04958471717111785    0.07489914899002037    0.12081530057383756    0.19684601242130406    
  0.297938372627862    0.3852757401189791    0.4203639170214987    0.4231914878920423    0.3268432256730428    
  0.3098392660461125    0.26178989298226274    0.19684613096395448    0.13615797199393842    0.09183318316942646    
  0.06379131229713732    0.04711367025692682    0.03715429874947745    0.030738226260665334    0.026169529088543312    
  0.022723253206111522    0.02009952535808714    0.018238143869203683    0.01712429434441624    0.016751794414836232    
  0.017124298225028003    0.01823811176013232    0.02009958538831637    0.022723185920823487    0.02616960699673864    
  0.03073813594211376    0.03715442577778188    0.04711357155391873    0.06379142643098377    0.09183308302259797    
  0.13615814911374371    0.19684601614717825    0.2617900218799811    0.3098391485382699    0.3268432256730428    
  0.1874984612191147    0.17780437012693523    0.1524885713692291    0.12081523548572298    0.09183316297550428    
  0.06994284661350426    0.05518598170914661    0.04560806156327009    0.03902291934648424    0.03394355921936258    
  0.029715420727533512    0.026169533817121664    0.02334307427243378    0.021314365372939546    0.020103682153779192    
  0.019703884063714896    0.020103682500690376    0.021314384687073664    0.02334303547220796    0.026169587385560637    
  0.029715342621936838    0.03394365200684023    0.03902281869551658    0.045608178190874184    0.05518583963268609    
  0.06994297474647274    0.09183306596656696    0.12081532258876171    0.15248847928312334    0.17780437456048875    
  0.1874984612191147    0.10007642505685949    0.09643094816317975    0.08689148138847416    0.07489918517089396    
  0.06379134027946766    0.05518594379288373    0.04915697027477241    0.04481952042951846    0.04110807723943304    
  0.037480847438652834    0.03394353765473233    0.03073826292755842    0.02816291069025165    0.02634471225523412    
  0.025292613010022662    0.024957737869190345    0.025292641366132483    0.02634467469295107    0.028162962141106713    
  0.03073818379253569    0.03394363722436749    0.037480774163460066    0.041108196066912545    0.04481941830653876    
  0.04915707942379578    0.05518582595300997    0.06379145964321263    0.07489912775253191    0.08689154951563251    
  0.09643090307735008    0.10007642505685949    0.056095499102166255    0.05511796232952561    0.052595060073179475    
  0.04958466032021047    0.04711361057308053    0.04560810555519357    0.04481952528584167    0.04411180141748676    
  0.0429119223144902    0.04110805736493921    0.03902294502247384    0.037154259469097374    0.03590149698338809    
  0.035297730429224905    0.03512544297479384    0.03511393163422734    0.03512542403368196    0.03529774366788801    
  0.035901458592222865    0.03715432827556394    0.03902285070807665    0.0411081604754876    0.04291180708123412    
  0.044111898756310566    0.04481942339514979    0.04560818927069075    0.047113535473179896    0.04958475850857975    
  0.05259501456360711    0.05511796665067582    0.056095499102166255    0.035114108977881704    0.03512527642393222    
  0.03529787077936172    0.03590136983603494    0.037154359083730625    0.039022867329259824    0.0411081145207211    
  0.04291190110269054    0.04411178256367523    0.044819581827712715    0.04560800298946668    0.0471137626805808    
  0.04958451304264251    0.052595237839095796    0.05511775629771901    0.05609571700345548    0.05511775356479298    
  0.0525951908918    0.049584594341385006    0.0471136771084801    0.045608090861033276    0.04481948621699679    
  0.04411189253109901    0.0429117959678608    0.041108208727451245    0.03902276304944062    0.037154435334507616    
  0.03590131360375764    0.0352978939554449    0.03512524957977583    0.035114108977881704    0.024957621404098417    
  0.025292743615368422    0.026344591527915188    0.02816301203646201    0.03073815316573799    0.03394360176629261    
  0.03748084443243151    0.04110807852894995    0.044819592546511564    0.049156869498876724    0.0551860569507739    
  0.06379118102244923    0.07489944179005543    0.08689121121591495    0.09643125834477155    0.10007609820974245    
  0.09643123196192845    0.08689126932168266    0.0748993471229493    0.06379126512044507    0.055185963913304735    
  0.049156981405318156    0.04481947966352798    0.041108189325594645    0.037480745861136026    0.0339436935896902    
  0.030738097990828887    0.02816305740358795    0.026344574266468287    0.02529275437259139    0.024957621404098417    
  0.019704002765238076    0.020103582791734933    0.02131445667905165    0.02334300291724357    0.02616958154970887    
  0.029715369930553345    0.033943583009271396    0.039022919152922546    0.045608012611143826    0.055186046691652064    
  0.06994271149972982    0.09183342940052962    0.12081490492891445    0.15248893680410863    0.1778038912328232    
  0.18749886745850253    0.1778039666682258    0.15248885524707173    0.12081502464270136    0.09183329762309204    
  0.06994280822780792    0.055185957020494274    0.045608116316347334    0.039022832888087444    0.03394367577882508    
  0.0297152978626131    0.026169652117244445    0.023342949591817007    0.021314487090825434    0.02010355704855252    
  0.019704002765238076    0.016751704756147363    0.017124376489238338    0.018238075692262958    0.020099593076945425    
  0.02272319350143644    0.02616956053982155    0.030738227133376594    0.037154285649933116    0.04711375149107555    
  0.06379114906823374    0.09183340918504013    0.13615768952024207    0.1968465683816164    0.261789413793123    
  0.30983985578244055    0.32684256637986103    0.3098397562194587    0.2617894882399923    0.19684643097523508    
  0.1361578473107567    0.0918332908575469    0.06379129698837221    0.04711363906913878    0.037154372786005335    
  0.030738131768280556    0.02616963582740486    0.022723142417530408    0.020099640347398803    0.01823804243112174    
  0.01712438361830768    0.016751704756147363    0.01494116139260962    0.015261155151683683    0.016205617077542814    
  0.01779897617897011    0.02009956227491433    0.023343059142201538    0.028162937905069192    0.03590149823775333    
  0.049584506423109416    0.07489943597943968    0.12081489590636958    0.1968465937481395    0.2979376476456965    
  0.385276529156968    0.42036308382805104    0.4231922085918455    0.42036311411192556    0.3852763873865504    
  0.2979378799211193    0.19684642338568742    0.12081504914242336    0.07489931810811526    0.04958461769718904    
  0.03590139010541087    0.028163010013751846    0.02334298359324007    0.02009961974377226    0.01779894833676361    
  0.016205641939950118    0.015261140982061336    0.01494116139260962    0.013811416594778506    0.014074103547411934    
  0.014859282750942632    0.016205609817542446    0.018238098132727983    0.021314386692450542    0.026344694303753555    
  0.0352977223139804    0.05259524805841103    0.08689117190656999    0.15248898926182705    0.2617893595381081    
  0.38527650941286984    0.42233306630017553    0.3538199867531621    0.30895684287835157    0.3538198712992033    
  0.4223331694286103    0.38527640416860615    0.26178950060981787    0.1524888094448606    0.0868913019473688    
  0.05259514520316249    0.035297793872914526    0.026344625343796575    0.021314444857302425    0.0182380482506068    
  0.01620563701401069    0.014859257525061906    0.014074105839338697    0.013811416594778506    0.013161614909096708    
  0.01338932473707405    0.014074083923008126    0.015261188789751443    0.01712430331975097    0.020103669923564063    
  0.025292607399433977    0.03512546537926411    0.05511773318498768    0.09643130574382512    0.1778038500271009    
  0.30983993160323076    0.4203629783111933    0.3538199923390953    0.19460970409291398    0.13334106620178596    
  0.194609720710268    0.3538198676913424    0.42036319659827576    0.30983972093910794    0.1778040436485537    
  0.09643116596315573    0.05511782521125928    0.03512535429155988    0.02529268776759943    0.020103613083128333    
  0.017124364784108954    0.015261164067919223    0.014074105861383251    0.013389306124903124    0.013161614909096708    
  0.012939950175018674    0.013161612411425818    0.013811437426659898    0.01494110413211535    0.016751773835612004    
  0.019703883940496176    0.024957765635643767    0.0351139173629181    0.05609577524860054    0.10007601904629027    
  0.18749899209235454    0.3268425107903034    0.4231924274673909    0.3089567287771711    0.13334106483502944    
  0.0781624233346575    0.13334105252153944    0.308956852512084    0.42319220193225615    0.3268426229099872    
  0.18749882319248012    0.10007618473778077    0.05609568179154311    0.035113996455767835    0.024957695201253894    
  0.019703943562685112    0.016751729716995047    0.014941145726961669    0.013811411899407952    0.013161608088738227    
  0.012939950175018674    0.013161604155946294    0.013389330809175889    0.014074063397311699    0.015261206438603233    
  0.017124302093751688    0.020103672891548616    0.025292603260476186    0.03512547317160645    0.05511769329105707    
  0.09643131638709421    0.1778038039908194    0.30983997338959485    0.42036298600704386    0.35382005876654743    
  0.19460969669969577    0.13334107628276246    0.19460970175150422    0.35381989864901014    0.4203631213039316    
  0.3098397777901437    0.17780401513556413    0.0964312273845562    0.05511779400741331    0.035125379076541764    
  0.02529267225420702    0.020103617131605477    0.01712435054225354    0.015261161827171263    0.014074100077926135    
  0.013389308389968428    0.013161604155946294    0.013811432175093065    0.014074078328391929    0.01485929841343998    
  0.016205572716409922    0.018238139450071182    0.021314364496096194    0.02634473587227552    0.035297682600144854    
  0.052595292925406475    0.08689111118868775    0.152489036224531    0.2617892369170916    0.3852765565513772    
  0.42233292373829556    0.35382006515475894    0.3089567333338523    0.3538199651280939    0.4223330295398772    
  0.38527652358765735    0.2617893867074968    0.15248888173020367    0.08689124994154553    0.05259517366539711    
  0.03529775747073365    0.0263446471795853    0.02131441893699922    0.0182380852687103    0.016205619067696568    
  0.01485927781846354    0.014074082220344133    0.013811432175093065    0.014941126263906946    0.015261185635148061    
  0.016205588552803962    0.01779900901977446    0.020099538550956874    0.02334308993744153    0.028162893913212077    
  0.03590155879725591    0.0495844608263649    0.0748995187181855    0.1208148152775792    0.19684669592060733    
  0.2979375477347969    0.38527666162121205    0.420362994582376    0.4231923816068971    0.42036298690380114    
  0.3852765369565346    0.29793769181332946    0.19684646609686704    0.12081494856281787    0.07489938705027503    
  0.049584558398158105    0.03590145701180782    0.028162964164116167    0.023343030089333628    0.02009958165347962    
  0.01779898400246499    0.01620560948078097    0.015261173125818057    0.014941126263906946    0.016751741404546466    
  0.017124327233111362    0.018238104393692906    0.02009955276464845    0.022723243745001214    0.026169512482878663    
  0.030738262932625063    0.03715420942729042    0.04711382237466243    0.06379109644147302    0.09183351655033543    
  0.1361575845723178    0.1968466822959962    0.2617892530917875    0.3098399454071205    0.32684243607066593    
  0.3098398930110543    0.2617893068921464    0.19684656518486918    0.1361576954039143    0.09183340363209838    
  0.0637912117232024    0.047113727211873305    0.03715430602822177    0.03073818659231377    0.026169580577647025    
  0.022723188475407906    0.02009959228943973    0.018238097223982352    0.01712433593008177    0.016751741404546466    
  0.019703932304731355    0.020103640044218465    0.021314406825714474    0.02334305289072489    0.026169531443023746    
  0.029715425044938525    0.03394351603138521    0.039023001819287785    0.04560792544171985    0.055186152017126316    
  0.06994260359566021    0.09183353101293552    0.12081477522170944    0.15248906891462224    0.17780375408138396    
  0.18749903222943468    0.17780382426883068    0.1524889641728436    0.12081489302123803    0.09183339784941852    
  0.06994270537065139    0.055186053747737905    0.04560804414414098    0.039022904063912615    0.03394358542852568    
  0.029715358162319135    0.02616958979464029    0.023343006025520693    0.02131444175081408    0.020103618077059814    
  0.019703932304731355    0.024957687467310398    0.025292673685807603    0.02634466782531928    0.028162943187393364    
  0.0307382222604635    0.033943538124409395    0.037480916611306835    0.04110801774843478    0.044819649838128944    
  0.04915679322362726    0.055186148484183906    0.06379108151708557    0.07489954329018929    0.08689108372494733    
  0.09643139291099742    0.10007595059824917    0.0964313602594003    0.08689112204629645    0.0748994591013001    
  0.0637911535035703    0.05518607990115979    0.04915689398078727    0.04481955655551383    0.04110809767850951    
  0.03748083445391471    0.03394361602007103    0.0307381735789236    0.028162999569658072    0.026344634255515722    
  0.025292674975760314    0.024957687467310398    0.03511401727861149    0.03512536137352867    0.035297793256571584    
  0.03590144407007532    0.03715430269889486    0.03902293586400085    0.04110804091615818    0.04291199083406633    
  0.04411169532738088    0.04481967075912863    0.04560790778031922    0.04711383614685949    0.049584418311679694    
  0.05259533882141529    0.05511765014237663    0.0560958412193267    0.05511766572434626    0.052595299435506    
  0.04958449595356281    0.04711376536198709    0.04560799522468136    0.04481959231756339    0.044111786465800974    
  0.04291187772890797    0.041108115804028865    0.03902285169026476    0.037154356422472425    0.035901408694237254    
  0.03529782675955759    0.03512533922968469    0.03511401727861149    0.05609560784204805    0.055117850857584055    
  0.0525951460794811    0.049584595999639235    0.047113696598277514    0.04560801098364832    0.04481960903914309    
  0.044111725526146645    0.04291200125794452    0.04110799063632044    0.03902302277574355    0.03715418740441822    
  0.03590157793134504    0.03529763192617402    0.03512552701475718    0.03511385681047512    0.03512550411716672    
  0.03529766407078635    0.03590152816958107    0.037154251075006764    0.03902294285331707    0.04110804867737117    
  0.042911906399160614    0.04411181506266654    0.04481950646661516    0.04560810342570056    0.04711362741394837    
  0.04958465404551726    0.05259508825835755    0.0551178687290809    0.05609560784204805    0.10007628730674921    
  0.09643107369123342    0.0868913741384186    0.07489930317743168    0.063791264540491    0.05518601191988457    
  0.0491568910012452    0.044819613891566246    0.04110799982132669    0.03748094424965783    0.03394347251460646    
  0.030738320911741997    0.028162838668741395    0.026344772278736713    0.02529254179593762    0.024957808446022443    
  0.025292558207205083    0.02634473661338529    0.028162887777443604    0.030738234558525687    0.03394355272247499    
  0.037480858947175164    0.04110811647921762    0.04481952467595138    0.049156964718495684    0.055185933338754364    
  0.06379135538289639    0.07489923825503972    0.0868914324500488    0.09643104812449421    0.10007628730674921    
  0.18749859448508296    0.17780420701601038    0.15248868736292662    0.12081509831709239    0.09183327539521682    
  0.0699427731733241    0.05518604538962303    0.04560798906071759    0.03902296609831311    0.03394349499086418    
  0.029715480733026517    0.02616947338862881    0.023343140515879088    0.02131431014884834    0.02010372531496293    
  0.01970382341195498    0.020103730223761353    0.021314334193383973    0.023343104772669054    0.026169520431731895    
  0.029715405935110743    0.033943561979801556    0.03902288950397341    0.04560810760891682    0.055185936421570644    
  0.06994288135907122    0.09183319087255942    0.12081518143857015    0.15248864480367522    0.17780424526894742    
  0.18749859448508296    0.32684304422654825    0.3098394147232136    0.2617897669927946    0.19684624757505234    
  0.13615788513631402    0.09183327071996426    0.06379126367387883    0.04711374207760561    0.03715423853669935    
  0.030738288135388876    0.02616947950174905    0.022723296126330512    0.020099489922487383    0.018238189097869263    
  0.01712424985493922    0.016751823441186565    0.017124253984609893    0.018238155996783478    0.020099524394937274    
  0.022723241029532715    0.026169566667880603    0.030738199707807567    0.03715434588648055    0.04711364423399203    
  0.06379131879842191    0.09183318393304216    0.13615803589203165    0.19684614616309434    0.2617898927523315    
  0.3098392772685026    0.32684304422654825    0.42319159857721833    0.4203636646522812    0.38527603396181964    
  0.29793811937408665    0.1968462655078656    0.12081509218196387    0.07489936168444569    0.049584544000084226    
  0.035901497301022885    0.028162894127774805    0.023343098586576756    0.020099502280056865    0.01779906559632589    
  0.016205536219679396    0.015261258156506538    0.01494105610420396    0.015261247369429413    0.016205549771000496    
  0.017799032006574546    0.02009955371928737    0.02334304599233453    0.028162969007158173    0.03590141154353219    
  0.04958465605957182    0.0748992242910966    0.12081520846742003    0.19684615516557963    0.2979382240143664    
  0.38527591291914565    0.42036369251974853    0.42319159857721833    0.308957394780665    0.35381930055456884    
  0.42233371832153516    0.38527599825872827    0.2617896880343098    0.1524887050711155    0.08689133483664697    
  0.0525951840322758    0.03529773090765389    0.02634471107700322    0.021314353365348045    0.01823816022934585    
  0.016205516062372083    0.014859358074715355    0.014074013591155388    0.013811498670982077    0.014074022121143724    
  0.014859321049443253    0.016205567072578555    0.018238106102427473    0.021314411635238905    0.026344621273170433    
  0.035297825347890596    0.05259507377518556    0.08689141983023721    0.15248856215960707    0.2617899069955139    
  0.38527586706463424    0.4223337390997528    0.3538192879716265    0.308957394780665    0.13334056742213243    
  0.19461025502524168    0.35381938953798253    0.4203636048848086    0.3098394105492072    0.17780411635897445    
  0.09643117204001946    0.05511780533615869    0.035125406043570014    0.025292615372120977    0.020103690876426075    
  0.0171242737668461    0.01526124284747294    0.014074032045426068    0.013389382167631362    0.013161553118126713    
  0.013389371819603958    0.014074040568311522    0.015261212756714342    0.017124323513314534    0.0201036401673847    
  0.02529267739084191    0.03512534473435832    0.0551179191408375    0.09643099171700448    0.177804340521868    
  0.30983925739977053    0.42036381503396913    0.3538192036258902    0.19461029165870433    0.13334056742213243    
  0.07816285992975253    0.13334056348532536    0.3089573897909856    0.4231916841682372    0.3268430282740729    
  0.18749864876158093    0.10007624154705094    0.05609566731415214    0.035113967160008405    0.024957730859929007    
  0.019703878195974425    0.016751802614715306    0.014941074109805063    0.013811488340224734    0.013161541519849038    
  0.012939998048664797    0.013161571109169438    0.013811465120824186    0.014941111718220178    0.016751750540966327    
  0.01970393756764093    0.024957668024336112    0.03511407486543318    0.05609556114934879    0.10007635042772675    
  0.1874984887469623    0.3268432147637813    0.4231915388384443    0.3089575692303321    0.133340504782282    
  0.07816285992975253    0.1333405125688399    0.19461028408191985    0.35381928284761227    0.4203636578385987    
  0.30983934986056877    0.17780421223002568    0.09643111029966844    0.055117833607811105    0.0351253872740238    
  0.02529263245466368    0.020103660817534903    0.01712429347813336    0.015261231838014906    0.01407403290294996    
  0.0133893584841939    0.013161562310916817    0.013389357604351374    0.014074061115233788    0.015261190394688524    
  0.01712433292353895    0.020103619056173486    0.025292716883699457    0.035125312275572654    0.0551179545532757    
  0.09643095791993248    0.1778043951094012    0.30983924070895186    0.42036392864624994    0.3538191708635641    
  0.1946103055933405    0.1333405125688399    0.19461033289427335    0.2561272946398468    0.39016532613050087    
  0.4163624871637705    0.29806762405164    0.17326711492500535    0.09674455253884418    0.05717334911985276    
  0.03749502508285031    0.0274557209564315    0.021888815706635048    0.01848480216507361    0.016227386404024623    
  0.014727463457456933    0.013804452552259887    0.013389350534451441    0.013466588737998178    0.014002873421858422    
  0.015016536741637491    0.016645806691786225    0.019311544503867996    0.02405583417926461    0.033131933747896886    
  0.05163608976502504    0.08980988136592004    0.1648799162071962    0.2890995664309515    0.40881744705048256    
  0.3855890666391732    0.25441575407829625    0.19461033289427335    0.35381916692185217    0.39016541660503795    
  0.43229043871813233    0.3776417710103259    0.2570590259899205    0.15448554130053235    0.09210462290396856    
  0.05848022719518538    0.040740887184180424    0.030940485628027755    0.024943060162477097    0.020906635394207056    
  0.018031035533246427    0.01601704691564389    0.014727439069033023    0.014074047631729725    0.014002876134034763    
  0.014434272444679954    0.015358046181214469    0.016859920199686237    0.01929115119610588    0.023521759317699974    
  0.03138480354052264    0.046947062649357336    0.07815567691301616    0.1382294748640397    0.23978189109829678    
  0.36223570235037184    0.42184392818654    0.385589025469878    0.35381916692185217    0.4203638717536951    
  0.41636240774335265    0.3776418515254794    0.2937562078367519    0.20029281451566766    0.12961521883694008    
  0.08567065730876415    0.06025567254654398    0.04547650235579323    0.03614496645152322    0.029541262658133484    
  0.024565230949572466    0.0207777314051542    0.018031038411857683    0.01622740451647605    0.015261203817116813    
  0.015016516095420178    0.015358056129975258    0.01622303215814643    0.01765323035903887    0.019874153141298527    
  0.02352377631416817    0.029926317885731194    0.04185318421929628    0.06455559775348611    0.10641775602596648    
  0.17661253487803857    0.27244765758112194    0.3622356477226425    0.4088172593256414    0.4203638717536951    
  0.3098391589332599    0.29806780565702073    0.25705892269449465    0.20029287139976196    0.1465367763394705    
  0.10648369913826976    0.08015787251122572    0.06333540805849322    0.05194505282508389    0.04317883725333088    
  0.03577239995939647    0.029537932212796266    0.024565235126486888    0.020906636378259937    0.018484791261418193    
  0.01712429878939566    0.016645834348636635    0.01685989589270713    0.01765324469721742    0.018995345509438114    
  0.020982467038924056    0.024003128434810717    0.02889132549269776    0.037271255724823905    0.052103386287297326    
  0.07783829521950289    0.11916618875134391    0.176612570673986    0.23978188170153023    0.2890994950381366    
  0.3098391589332599    0.17780442094641852    0.17326695701649786    0.15448568248429406    0.12961516512174215    
  0.1064837195047778    0.08886530981934226    0.07660491105566426    0.06760270641422161    0.059663820305124814    
  0.051567995320375724    0.043352872465163964    0.035772407747885954    0.02954123395686497    0.024943067031083364    
  0.02188882038034467    0.020103649721897446    0.01931150193815387    0.019291195739715564    0.019874115891947326    
  0.020982480767034482    0.022622479195938495    0.02494070130336706    0.028380519473039236    0.03372760117169023    
  0.04241915929295605    0.0565137987509452    0.07783831856940922    0.10641769988967188    0.1382295135938199    
  0.16487986645478897    0.17780442094641852    0.0964309171885451    0.09674467377254262    0.09210447648756646    
  0.08567070625651191    0.08015783483683285    0.07660491277087712    0.07439893779095422    0.07179140569098776    
  0.06713141132801399    0.060073797158457246    0.051567999295351934    0.04317880569964832    0.036145000438236596    
  0.030940474685378153    0.02745574826583378    0.025292629947410137    0.024055916650885804    0.02352169551380307    
  0.023523839711889583    0.024003111906582032    0.024940736567577393    0.02634336345257215    0.028357867930497445    
  0.0312821831662132    0.035682687564827176    0.04241917385814867    0.05210339421499129    0.06455564425711041    
  0.07815563854648422    0.089809923205996    0.0964309171885451    0.055117991467335446    0.057173228870740854    
  0.058480347651821384    0.06025557566654331    0.0633354757431746    0.06760266614754039    0.07179144600297854    
  0.07386388751856776    0.07232329613813847    0.06713144436752512    0.05966377204450661    0.05194510984404308    
  0.04547643239246109    0.040740948467550955    0.037494999665163654    0.03512540514926992    0.03313182215157045    
  0.031384899950219675    0.029926237247986927    0.028891368986156706    0.0283804622665058    0.02835788092427718    
  0.02881000615746011    0.02973740114237905    0.0312821938026618    0.033727581272369224    0.037271278203979435    
  0.04185314603670797    0.04694712057783093    0.051636025312406325    0.055117991467335446    0.035125246937966856    
  0.03749514877904576    0.040740790666134855    0.04547658585359282    0.05194496306396707    0.05966386750534958    
  0.06713138616822646    0.07232333232741904    0.07386394011344827    0.07179133258365866    0.06760281139773629    