#     DFTpy    
  CRYSTAL 
    
  PRIMVEC    
  4.626103448275861    0.0    0.0    
  0.0    4.626103448275861    0.0    
  0.0    0.0    4.626103448275861    
  PRIMCOORD    
  4    1    
  Si    0.0    0.0    0.0    
  Si    0.0    2.3130517241379307    2.3130517241379307    
  Si    2.3130517241379307    0.0    2.3130517241379307    
  Si    2.3130517241379307    2.3130517241379307    0.0    
  BEGIN_BLOCK_DATAGRID_3D    
  3d_datagrid_density    
  BEGIN_DATAGRID_3D#0    
  21    21    21    
  0.0    0.0    0.0    
  4.626103448275861    0.0    0.0    
  0.0    4.626103448275861    0.0    
  0.0    0.0    4.626103448275861    
  0.06296160020839002    0.10972203421795154    0.2650774494019676    0.3819567812866897    0.31548546007655126    
  0.199614668297912    0.1226364022791823    0.08240246591848605    0.06330804596423788    0.055163534915098275    
  0.05289095899619857    0.05516353762385132    0.06330806013627584    0.08240247203945894    0.12263639056843749    
  0.19961468558007564    0.3154854634960979    0.38195676565666664    0.26507747587061953    0.10972201587048923    
  0.06296160020839002    0.10972202425879399    0.1627198442236562    0.30655409921412613    0.3822216576332891    
  0.3014699635252314    0.19125407591922472    0.1198014369569838    0.08240479950988991    0.06468247700081522    
  0.05722043256835848    0.05516352410627875    0.057220425305147024    0.06468246959007316    0.08240480803989295    
  0.11980142093391806    0.19125407823953897    0.30146998174027595    0.382221647900207    0.3065541052397324    
  0.1627198238676743    0.10972202425879399    0.26507743007618156    0.3065540865322787    0.3758383176058544    
  0.3586313640658975    0.261653861440606    0.16994610532236043    0.11321878201620997    0.08367385005468601    
  0.0700357246041763    0.06468247231029102    0.06330804323342958    0.06468248544299451    0.07003572057890918    
  0.08367383953685899    0.11321876217763699    0.16994611073058916    0.2616538729615751    0.3586313776019578    
  0.3758383425057802    0.30655410207560024    0.26507743007618156    0.38195673948428    0.38222161103635877    
  0.3586313452575791    0.29032794420492525    0.20782193492983628    0.14495731384794158    0.10806420647560033    
  0.09019734053740154    0.0836738600182538    0.08240478075242015    0.0824024948231071    0.08240480008759109    
  0.08367386920307789    0.09019733789672124    0.10806424221610046    0.14495733211271208    0.20782191280504647    
  0.29032790422143284    0.3586313493899673    0.3822216424685967    0.38195673948428    0.31548545421936974    
  0.30146999936429    0.26165385057540014    0.2078219402231224    0.15886914121144796    0.1262539496206278    
  0.11062252745946947    0.1080642074877217    0.11321874378235669    0.11980144986058086    0.12263636549401821    
  0.11980144154772339    0.11321874316238902    0.10806421375716692    0.11062251200524649    0.1262539306874534    
  0.15886915743901336    0.20782193481253547    0.261653875224295    0.30146997346966714    0.31548545421936974    
  0.19961468116467518    0.1912540773474404    0.1699461053996834    0.144957310304255    0.12625397134495062    
  0.11956110400678543    0.12625396888420296    0.14495731931327005    0.1699461134477749    0.1912541077501093    
  0.19961465248580895    0.19125410804592405    0.16994612365965558    0.14495734547752698    0.12625396110496093    
  0.11956113953238716    0.126253939277462    0.14495731487754457    0.16994614528668053    0.19125409383140984    
  0.19961468116467518    0.12263634949202581    0.11980144853876613    0.1132187537956624    0.10806423006122057    
  0.11062250735267876    0.1262539577814487    0.15886916030924178    0.2078219267722879    0.2616538603113143    
  0.3014699979451166    0.31548544202863354    0.30146998879441084    0.26165382876475585    0.2078219393098401    
  0.15886916211177315    0.12625395550258597    0.1106225125201295    0.10806423515539303    0.11321874479904992    
  0.11980144690146072    0.12263634949202581    0.08240245936779396    0.08240478797283726    0.0836738603237818    
  0.09019732441233155    0.10806422498216436    0.14495731775209011    0.20782197303407138    0.29032791441717176    
  0.3586314063846652    0.3822216201419119    0.38195674037517413    0.3822216487758981    0.35863137651937693    
  0.2903279191338181    0.20782195277613216    0.14495733073145864    0.10806424207136477    0.09019731611900433    
  0.08367385514791655    0.08240480164733484    0.08240245936779396    0.06330803887764172    0.0646825008287926    
  0.07003572234116152    0.08367386282661474    0.11321874106689714    0.16994613228889513    0.2616538846315955    
  0.3586313609937926    0.37583833711609604    0.3065540785973799    0.2650774616387843    0.30655408141497936    
  0.37583832835750364    0.35863138496074914    0.26165389851692517    0.16994609071572422    0.11321876142323582    
  0.0836738833851228    0.07003572032878998    0.06468247862718393    0.06330803887764172    0.055163559289290516    
  0.057220405723273915    0.0646824907394473    0.08240478514152998    0.11980141373153551    0.1912540798403583    
  0.30146999513442274    0.3822216108066805    0.30655410132127936    0.1627198321132112    0.1097220129816586    
  0.16271982152768968    0.30655406011213565    0.38222161873428845    0.30146996530567616    0.19125406826089886    
  0.11980142253831691    0.08240478899735185    0.06468248502988622    0.05722038547791522    0.055163559289290516    
  0.05289093996259031    0.055163556748921976    0.06330803582940749    0.08240248946531228    0.12263636973800801    
  0.19961465490247876    0.3154854631874475    0.3819567824388643    0.26507746126178944    0.10972202353566567    
  0.06296158663075899    0.10972201681870894    0.2650774679954526    0.3819567889012437    0.3154854608445596    
  0.1996147003516534    0.12263638087402345    0.08240249138270224    0.06330802561038017    0.05516355032906909    
  0.05289093996259031    0.0551635535719507    0.05722042476442221    0.06468248132327623    0.0824047924710532    
  0.11980142239908724    0.19125409720345377    0.30146997309510093    0.38222160523066473    0.3065541024760641    
  0.16271982753430397    0.10972203650897344    0.16271985845605424    0.30655407684983177    0.38222164411652326    
  0.3014699615103027    0.19125406284131538    0.11980143327906204    0.08240478409378627    0.06468249239557762    
  0.05722040814144757    0.0551635535719507    0.06330803202125426    0.0646824874649194    0.07003571586310635    
  0.08367386376440945    0.11321875965139859    0.1699461182981172    0.2616538856267163    0.3586313453372523    
  0.37583838150468696    0.3065540669433254    0.2650774531577174    0.3065540767690584    0.3758383353156638    
  0.3586313583962747    0.26165388942976275    0.169946103812064    0.11321875367204362    0.08367386114876307    
  0.0700357314654468    0.06468248746927001    0.06330803202125426    0.08240248173302427    0.08240480282342068    
  0.08367385623958748    0.09019731930960628    0.1080642259383769    0.14495733408060724    0.2078219503651897    
  0.2903279404612588    0.3586313488516773    0.3822216558956023    0.3819567760906484    0.3822216837466954    
  0.35863134323969315    0.2903279719077093    0.20782195302593195    0.14495731998960934    0.10806422900155715    
  0.0901973345386019    0.08367386382455763    0.0824047943857525    0.08240248173302427    0.12263638721431479    
  0.11980143839855352    0.11321876065715712    0.10806421823057932    0.11062250767327274    0.12625393891095507    
  0.15886916556719494    0.20782190409040388    0.2616538695655564    0.301469980679738    0.31548543998657114    
  0.30146993436675196    0.26165385593470597    0.20782191688830737    0.15886916274734447    0.12625393586132427    
  0.11062253180611291    0.10806421532118621    0.11321876941819446    0.11980141948837045    0.12263638721431479    
  0.1996146670725746    0.19125409081116015    0.1699461045802239    0.14495732176505782    0.12625395784551738    
  0.11956112347838971    0.1262539530251551    0.14495733730842278    0.16994607881089627    0.19125409626274395    
  0.19961463605472357    0.19125412062382152    0.1699460877502956    0.14495735917213445    0.12625395244847154    
  0.119561127143731    0.12625394519012795    0.14495731464308984    0.16994608178506834    0.19125408735390248    
  0.1996146670725746    0.3154854586173023    0.30146997694879435    0.2616539005054846    0.20782194449770694    
  0.15886914748911787    0.1262539339086666    0.1106225400777441    0.10806419413549304    0.11321877399191448    
  0.11980143201555123    0.12263639115396019    0.1198014257453085    0.11321877002657474    0.10806420824261068    
  0.11062253702219596    0.12625393308045907    0.15886917059648337    0.20782190868808367    0.26165390715619347    
  0.30146995645990854    0.3154854586173023    0.38195672627147714    0.38222167979647176    0.3586313503419742    
  0.2903279494396269    0.20782190892518107    0.1449573483002606    0.10806420899328928    0.09019734476771203    
  0.08367385223632322    0.0824047921599392    0.0824024538554358    0.08240481750374928    0.08367383297859245    
  0.09019733665617304    0.10806421555944364    0.144957350952848    0.2078219057666884    0.2903279503005302    
  0.3586313600423599    0.3822216518436882    0.38195672627147714    0.26507744833186736    0.30655409580752907    
  0.37583834557146734    0.3586313927276032    0.261653878018116    0.16994611720351052    0.11321876701639058    
  0.08367384872753487    0.07003573920114212    0.06468246335395074    0.06330804524267125    0.06468249060892928    
  0.07003573502474042    0.08367384655794059    0.11321878173340119    0.16994607917343235    0.2616538852008457    
  0.3586313130693328    0.37583835662982984    0.3065540900908106    0.26507744833186736    0.10972199861428082    
  0.16271984316217536    0.30655407286473374    0.38222166442271055    0.3014699608488379    0.1912540873576082    
  0.11980142882452889    0.08240479768021988    0.06468247337210756    0.05722043127284635    0.055163517050781465    
  0.057220431291429195    0.06468246073459395    0.08240480528631489    0.11980140268719114    0.1912540960890125    
  0.3014699888599812    0.3822216530362157    0.30655409112287646    0.16271981228312446    0.10972199861428082    
  0.06296160020839002    0.10972203421795154    0.2650774494019676    0.3819567812866897    0.31548546007655126    
  0.199614668297912    0.1226364022791823    0.08240246591848605    0.06330804596423788    0.055163534915098275    
  0.05289095899619857    0.05516353762385132    0.06330806013627584    0.08240247203945894    0.12263639056843749    
  0.19961468558007564    0.3154854634960979    0.38195676565666664    0.26507747587061953    0.10972201587048923    
  0.06296160020839002    0.10972202151995147    0.16271983060801365    0.3065540593400621    0.38222165538888875    
  0.3014699864556521    0.19125408453374448    0.11980144021054658    0.08240481076227352    0.06468247731420426    
  0.05722041856599075    0.055163530762837046    0.05722041440001743    0.0646824612530415    0.08240481124922305    
  0.11980142640922832    0.19125409770817037    0.30146994708909747    0.3822215972930276    0.3065540825881896    
  0.162719819391137    0.10972202151995147    0.16271979933238814    0.21617210460481806    0.33883501929814    
  0.3774190554402249    0.28733824927733564    0.18313468963182647    0.11690230148666746    0.08226056203896505    
  0.06588448113267702    0.059074048408973054    0.057220408043155535    0.05907404540813804    0.0658844868603215    
  0.08226056280935667    0.11690229852900122    0.1831346685448913    0.287338297319324    0.3774190327151406    
  0.3388350390873802    0.21617209362861484    0.16271979933238814    0.3065540763763722    0.3388350537363391    
  0.38207433386564754    0.34530549742278316    0.24840285504091328    0.16268806481499126    0.11025610907180798    
  0.08307393093050743    0.0706574837932517    0.06588449468744324    0.06468246717345741    0.06588450594742877    
  0.07065748632628878    0.08307394028251298    0.11025607634231963    0.16268809484329932    0.24840286878971157    
  0.34530551743566207    0.3820743245034802    0.33883500577860254    0.3065540763763722    0.382221613168635    
  0.37741906941798425    0.34530547268298645    0.2754752954874661    0.19735950980171182    0.13899062162712983    
  0.10494839807912072    0.08871312861704139    0.0830739462010429    0.08226058021934325    0.08240478979327591    
  0.08226058930447454    0.08307393810836693    0.08871312196471315    0.10494840614052868    0.13899060426709256    
  0.19735953293549582    0.27547525771284137    0.34530549879253586    0.3774190482614074    0.382221613168635    
  0.3014699881389212    0.2873382399828011    0.24840290213973934    0.19735953299818695    0.15161466282021668    
  0.12126062193004175    0.10691945308725055    0.10494836669609989    0.11025607563375045    0.11690232198110669    
  0.11980140756716075    0.1169022921683936    0.11025605583885471    0.10494840204093646    0.10691945416826262    
  0.12126062965763203    0.15161468730755534    0.19735953020066108    0.24840289053599215    0.287338218515656    
  0.3014699881389212    0.19125405793961148    0.1831347078662435    0.16268805260073615    0.13899062188761835    
  0.12126066505864891    0.11488895068732337    0.12126065513026119    0.13899062697051903    0.16268807062934637    
  0.1831347017016725    0.19125407723535381    0.1831347209984283    0.1626880903914414    0.13899063226782574    
  0.12126066629077101    0.11488896440011795    0.12126063567620259    0.1389906138842649    0.16268807179143635    
  0.18313471774126283    0.19125405793961148    0.11980143062001465    0.11690231308919308    0.11025608733780021    
  0.10494838999725484    0.10691945871271652    0.12126063663853355    0.15161469255984317    0.19735949861965613    
  0.24840286627840266    0.2873382587894279    0.30146996078090693    0.2873383031059903    0.24840287755264012    
  0.19735950134474373    0.1516146892218963    0.12126063494222661    0.10691945794814735    0.10494840014487944    
  0.11025608546821036    0.11690228958384664    0.11980143062001465    0.0824047603858674    0.08226061616047152    
  0.08307391783564731    0.08871313610485888    0.10494837473977027    0.13899063225226752    0.19735952949046232    
  0.27547529817754185    0.34530553018189264    0.3774190463379166    0.38222162613146976    0.3774190638154986    
  0.3453054981694708    0.2754752476997974    0.19735951587833706    0.13899062593037934    0.10494839541817075    
  0.08871313471066385    0.08307392251978557    0.0822606052990865    0.0824047603858674    0.0646824829458615    
  0.06588447563870217    0.07065750631102156    0.08307392372941072    0.11025607422651379    0.1626880815144786    
  0.24840288285146983    0.3453054693914996    0.38207431296544764    0.3388350386146232    0.3065540895838191    
  0.3388350800295194    0.38207434148194724    0.34530547898129466    0.24840290818112637    0.16268805705475362    
  0.1102560789630024    0.08307393205470073    0.07065749094261106    0.06588447022791044    0.0646824829458615    
  0.057220404741241744    0.059074048849180716    0.0658844815215333    0.08226061626823897    0.1169022802990387    
  0.18313470206015492    0.28733827788649485    0.3774190296856173    0.3388350516122595    0.21617209811627522    
  0.16271981349721926    0.21617211341030348    0.33883502948398564    0.37741903352130785    0.2873382645992604    
  0.18313468743747416    0.11690228208569825    0.08226059580442016    0.0658844756542987    0.0590740457538341    
  0.057220404741241744    0.05516355698221873    0.05722039467472951    0.06468248055716298    0.08240478875080216    
  0.11980143556343074    0.19125405402083878    0.30146996894774963    0.38222165758004867    0.30655409459119365    
  0.16271983318118238    0.10972202538231243    0.16271982004575986    0.3065540632950479    0.3822216723178893    
  0.30146996582281665    0.1912541243865558    0.11980142707603222    0.08240479740648658    0.06468247748140953    
  0.05722039570591413    0.05516355698221873    0.05722039571947889    0.05907406182826244    0.06588446848973063    
  0.0822605777396881    0.11690227652235474    0.1831347046510092    0.2873382632660591    0.3774190163872997    
  0.33883506058904256    0.21617207702827923    0.1627198483551971    0.21617210186258148    0.3388350226313388    
  0.37741902440365466    0.28733825504770694    0.18313467950899973    0.116902290477859    0.08226059008844273    
  0.06588449075528591    0.059074037912140165    0.05722039571947889    0.06468246351745133    0.0658844755010724    
  0.07065749822151247    0.08307393985929366    0.11025607767179829    0.16268806960203466    0.24840289530214943    
  0.34530549729429294    0.3820743532447262    0.33883505802151376    0.3065540433664816    0.33883506900476096    
  0.3820743006520709    0.34530548931349003    0.24840285177444443    0.1626880721420329    0.11025607907904883    
  0.08307395244936577    0.07065747375422521    0.06588448038805166    0.06468246351745133    0.08240478110588978    
  0.08226061091076438    0.08307392889860712    0.08871313282178298    0.10494838737800631    0.13899060647108422    
  0.1973595439106799    0.27547526985440157    0.3453055187575857    0.3774190012178396    0.3822216405564958    
  0.3774190053474364    0.3453055228066844    0.27547529546670985    0.19735956415081846    0.13899059902476502    
  0.10494841208980701    0.08871312724366964    0.08307394275362859    0.08226058719296203    0.08240478110588978    
  0.11980140850965282    0.11690232088530869    0.11025609041916126    0.10494839602171747    0.1069194303782337    
  0.12126064493393018    0.15161465479625036    0.19735951844834204    0.24840283741948938    0.2873383205693146    
  0.3014699295061241    0.2873382889376081    0.248402819110235    0.19735951950743882    0.15161465431323637    
  0.12126064177680099    0.10691943296116388    0.10494841208966658    0.11025607700730858    0.11690228489428747    
  0.11980140850965282    0.19125409963468296    0.18313471162298725    0.1626880898736842    0.13899062395902145    
  0.1212606744263252    0.11488894136925451    0.1212606806441963    0.13899061336875806    0.16268808347212965    
  0.1831346990408549    0.1912541050441328    0.18313470516946417    0.16268809295235712    0.1389906080621951    
  0.12126067598125641    0.1148889407426099    0.12126066512052189    0.1389906027515622    0.16268807891207426    
  0.18313469261170046    0.19125409963468296    0.3014699578750622    0.28733829704987957    0.24840286015946716    
  0.1973595314315405    0.15161466057943299    0.12126063924912064    0.10691943594574989    0.10494841338197404    
  0.11025608316946517    0.11690230844616188    0.11980139673238933    0.11690232316346394    0.1102560701157207    
  0.10494840945282327    0.10691941936993388    0.12126064210383215    0.1516146652491229    0.19735953010295393    
  0.24840287023981875    0.2873382934895749    0.3014699578750622    0.38222160904263525    0.3774190358123727    
  0.34530553748532095    0.2754752788797157    0.19735953281940594    0.13899062585699232    0.10494842266016176    
  0.0887131110755261    0.08307396246362661    0.08226056502183754    0.08240479591433578    0.08226056787827536    
  0.08307393420167224    0.08871311580664717    0.10494842237241299    0.13899059723724855    0.19735953044478066    
  0.2754752422586757    0.34530551244340807    0.3774190208060125    0.38222160904263525    0.30655407046149763    
  0.33883506833835714    0.3820743295693437    0.34530553731953184    0.2484028607882309    0.1626881082974535    
  0.11025606407257628    0.08307394015332009    0.07065747765537994    0.06588448732929672    0.0646824690782794    
  0.06588450827636376    0.07065746916605507    0.08307395171104136    0.11025609016885118    0.16268808195489154    
  0.24840285094541026    0.3453054962340497    0.38207434228455683    0.3388350605401507    0.30655407046149763    
  0.1627197974098013    0.21617210326176892    0.3388350641394398    0.37741906478692916    0.2873382576755059    
  0.18313468453649998    0.11690231386875656    0.08226056339623983    0.06588448555526989    0.05907404579009789    
  0.057220400302940996    0.05907404731106805    0.06588448788109984    0.08226057927541663    0.11690230661280711    
  0.1831346733787124    0.28733827017105507    0.37741902522943077    0.33883506613807823    0.21617209486258793    
  0.1627197974098013    0.10972202151995147    0.16271983060801365    0.3065540593400621    0.38222165538888875    
  0.3014699864556521    0.19125408453374448    0.11980144021054658    0.08240481076227352    0.06468247731420426    
  0.05722041856599075    0.055163530762837046    0.05722041440001743    0.0646824612530415    0.08240481124922305    
  0.11980142640922832    0.19125409770817037    0.30146994708909747    0.3822215972930276    0.3065540825881896    
  0.162719819391137    0.10972202151995147    0.2650774483328887    0.3065540849405827    0.37583834681972095    
  0.35863134750691694    0.2616538896347967    0.16994611073937224    0.11321875734729339    0.0836738558211217    
  0.07003572389278737    0.06468247669309032    0.06330803729250632    0.0646824598003028    0.07003574415416361    
  0.08367386586547546    0.11321876690412655    0.16994611897540496    0.2616538507658925    0.35863132770450556    
  0.37583833129643907    0.30655409545060514    0.2650774483328887    0.3065540657028208    0.33883503132748566    
  0.38207430325308134    0.3453054633763195    0.24840287372945943    0.16268805658923782    0.11025607536060938    
  0.08307394524146176    0.07065747605290314    0.06588450340412923    0.0646824553598677    0.06588450045410299    
  0.0706574629616728    0.08307394774452884    0.11025607021452835    0.16268806952051526    0.24840288954687645    
  0.3453055193626109    0.382074380908798    0.3388350435884097    0.3065540657028208    0.3758383091504267    
  0.38207436352690777    0.36833734518078787    0.30156685073048195    0.21363846212625046    0.1447274845688273    
  0.10348418068277211    0.08256698409827204    0.07362730177742746    0.07065749301594584    0.07003571953575516    
  0.07065748933111844    0.07362731906735924    0.08256697673990812    0.10348418515278442    0.14472748618151215    
  0.21363848523229811    0.30156681090181636    0.36833736960562835    0.38207433730622414    0.3758383091504267    
  0.3586313892529185    0.3453054661704698    0.30156680670510827    0.23516948746500863    0.17059919476196067    
  0.1242472466607711    0.09768474986542437    0.08575932726492877    0.08256696852765572    0.08307394258105841    
  0.08367384994875143    0.08307395168115628    0.08256697448873428    0.0857593483371104    0.09768473871093024    
  0.12424727521367256    0.17059916583635992    0.23516947462340615    0.3015668446609061    0.34530551484498617    
  0.3586313892529185    0.26165387077391944    0.248402900378781    0.21363847834562605    0.17059919107235214    
  0.13328192694396712    0.10893131098589223    0.09803029709809331    0.09768472138937974    0.10348416259428615    
  0.11025609148817905    0.11321871820634316    0.1102560995251582    0.10348412480415717    0.09768473753842583    
  0.09803028536441473    0.10893129539046072    0.13328195720695826    0.17059920330746892    0.2136384787874628    
  0.2484028848309364    0.26165387077391944    0.16994610513820343    0.16268808677573768    0.14472747681062464    
  0.12424724745316791    0.10893133159043378    0.10337696544992643    0.10893132450904766    0.12424727324590032    
  0.14472748072609806    0.16268808620411576    0.16994610193087795    0.16268807534318216    0.1447275100882843    
  0.12424727904468233    0.1089313189360573    0.10337698845288495    0.10893129803712527    0.12424725365510643    
  0.14472750711065321    0.16268806993864035    0.16994610513820343    0.11321873447020746    0.11025609548479946    
  0.1034841418494033    0.09768474297282916    0.09803026929194263    0.10893130300475402    0.1332819541750476    
  0.17059918236515312    0.2136384549128449    0.2484029067024452    0.26165384115857143    0.24840287971028277    
  0.21363845943001167    0.17059918744138902    0.13328196996506006    0.10893130711832863    0.09803029005192286    
  0.09768475071491668    0.10348415844930117    0.11025608727450427    0.11321873447020746    0.08367384291295085    
  0.08307393524167288    0.08256698936796078    0.08575931558788179    0.09768475283525042    0.12424725870781604    
  0.1705992133910502    0.235169494979338    0.30156687053491893    0.3453055040311359    0.3586313541170728    
  0.3453055083229817    0.3015668285237979    0.23516947401152652    0.17059918960780282    0.12424725572389653    
  0.09768474989852342    0.08575933902320282    0.08256698331190655    0.08307393836199257    0.08367384291295085    
  0.07003570701358751    0.0706575108780694    0.07362730629800743    0.08256699122869585    0.103484146347139    
  0.14472749548539543    0.21363847421107643    0.301566829297747    0.3683373287321178    0.382074346818145    
  0.3758383231770053    0.382074373377146    0.36833735273672635    0.3015668118613951    0.21363849040539126    
  0.14472747511552742    0.10348414825307707    0.08256699825908378    0.07362729990867005    0.070657513298692    
  0.07003570701358751    0.06468247470883569    0.06588447154272503    0.07065750264846887    0.08307392279922193    
  0.11025606185117341    0.16268805035368067    0.24840290998875814    0.345305445407868    0.38207436254776    
  0.3388350434873461    0.30655404896017335    0.3388350661507609    0.382074352633233    0.3453054976875738    
  0.24840288366132776    0.16268806253613546    0.11025608779614654    0.08307392911558374    0.07065751645125325    
  0.06588445503350417    0.06468247470883569    0.06330803400080175    0.06468249316636697    0.07003569930118322    
  0.08367386683398174    0.1132187571938048    0.16994610686290348    0.2616538638259786    0.3586313628789083    
  0.37583832382371923    0.30655408955524577    0.2650774487433212    0.30655408113360527    0.37583830504691046    
  0.3586313880366623    0.26165385151561776    0.16994613168589118    0.11321875472637356    0.08367385156607302    
  0.07003570884740967    0.0646824710424166    0.06330803400080175    0.0646824858662429    0.0658844907657537    
  0.07065749244073027    0.0830739228271358    0.11025608009695473    0.16268807956376047    0.24840290154255257    
  0.3453054623123808    0.3820743330218917    0.3388350460118898    0.3065540479066152    0.3388350768452618    
  0.38207431809464154    0.3453055115164425    0.24840289984556413    0.16268804863801203    0.11025607317620452    
  0.0830739379448042    0.07065750474555302    0.06588448106014293    0.0646824858662429    0.07003571208713918    
  0.07065749467779718    0.07362730084485297    0.0825670064528931    0.10348415159022703    0.14472749723907852    
  0.21363850734226475    0.3015667770810989    0.3683374092478556    0.3820743119994129    0.37583834169992497    
  0.3820743454697015    0.3683373572679877    0.30156678093706746    0.21363849062850673    0.14472748839990024    
  0.1034841464957453    0.08256700274275441    0.07362728410183154    0.07065747792511376    0.07003571208713918    
  0.08367386216142074    0.08307394144817293    0.08256698195806966    0.08575933368334028    0.09768473430081537    
  0.12424727462073297    0.1705991785108332    0.23516951899234484    0.3015668365517416    0.345305486356921    
  0.35863137382656946    0.3453054940305385    0.3015667892105865    0.23516955268641299    0.1705991981878678    
  0.12424727904804682    0.09768473631286127    0.08575932780372482    0.08256697630331804    0.08307395334926136    
  0.08367386216142074    0.11321876821993161    0.11025608458014091    0.10348417122864148    0.09768473109229639    
  0.09803027972163589    0.10893128782099396    0.13328196588400312    0.17059915493593575    0.21363848913534647    
  0.24840287130310862    0.26165387339102075    0.24840287447241124    0.21363847743930248    0.1705991485839046    
  0.13328195056057296    0.108931297559341    0.09803028794071318    0.09768472859652967    0.10348417107915729    
  0.11025607029475727    0.11321876821993161    0.16994610212486824    0.16268807152773687    0.1447274791169386    
  0.12424726940091291    0.10893130817501238    0.10337698979995406    0.10893132867271023    0.12424727800578406    
  0.14472745054854297    0.16268808986686611    0.1699460671957612    0.16268810802979336    0.14472747860018012    
  0.12424730354468294    0.10893130477968162    0.10337699922058899    0.10893129717730674    0.12424725475730955    
  0.144727464274712    0.16268808862466336    0.16994610212486824    0.2616538419796093    0.24840288546066355    
  0.21363849136407334    0.17059918578597127    0.1332819615177628    0.10893128836402914    0.0980303081588974    
  0.09768471793015815    0.10348416039333203    0.11025606524137443    0.11321875215411784    0.11025607511153171    
  0.10348415286642412    0.09768471363487241    0.0980303058167549    0.10893128701100295    0.13328197697523597    
  0.1705991635031115    0.2136384905166176    0.2484028882716429    0.2616538419796093    0.3586313296930872    
  0.34530553350306026    0.3015668141769372    0.23516954810726443    0.17059915458292227    0.12424728758203984    
  0.09768474083703886    0.08575934918080463    0.08256699130389598    0.08307393902820076    0.0836738434209069    
  0.08307395776910036    0.08256697089534054    0.08575933890648875    0.09768472454910528    0.124247287725202    
  0.17059916083393728    0.23516952791685677    0.3015668114522608    0.3453055215110958    0.3586313296930872    