#     DFTpy    
  CRYSTAL 
    
  PRIMVEC    
  2.724    0.0    0.0    
  0.0    2.724    0.0    
  0.0    0.0    2.724    
  PRIMCOORD    
  4    1    
  Si    0.0    0.0    0.0    
  Si    0.0    1.362    1.362    
  Si    1.362    0.0    1.362    
  Si    1.362    1.362    0.0    
  BEGIN_BLOCK_DATAGRID_3D    
  3d_datagrid_density    
  BEGIN_DATAGRID_3D#0    
  13    13    13    
  0.0    0.0    0.0    
  2.724    0.0    0.0    
  0.0    2.724    0.0    
  0.0    0.0    2.724    
  0.06070280539612384    0.11827663154011146    0.36222311503580495    0.6997993634797067    0.8170127927394402    
  0.7740549329663752    0.7426053007561151    0.7740549544171206    0.8170127990736303    0.6997993601322484    
  0.3622230736213053    0.11827661932639644    0.06070280539612384    0.11827666527337073    0.19340510469719277    
  0.4570903945851212    0.7632653042114824    0.8505311631956324    0.8039996279309493    0.7740549188065315    
  0.8039996675241718    0.8505311645115814    0.7632652394375131    0.45709042605963    0.19340506732990081    
  0.11827666527337073    0.3622231218951444    0.4570903554468399    0.7004727289809445    0.8987388354030322    
  0.9156122887442826    0.8505310978321724    0.8170128242573591    0.8505312148743057    0.9156123228981561    
  0.8987389964878171    0.7004726786923122    0.45709044151254713    0.3622231218951444    0.6997993369080089    
  0.7632652678829278    0.8987388646731217    0.97047369823928    0.8987389917811516    0.7632652217863746    
  0.6997993950229225    0.7632653326526849    0.8987390540343998    0.9704735124761766    0.8987389881833331    
  0.7632652685254125    0.6997993369080089    0.8170128338520376    0.8505310685526993    0.9156124261933211    
  0.8987389323191408    0.700472766759338    0.45709040760987574    0.3622230855199292    0.4570904269003732    
  0.7004727639361922    0.8987388649102689    0.9156123375372799    0.8505310950576713    0.8170128338520376    
  0.7740550386548181    0.803999688700861    0.8505310881359194    0.7632652467267291    0.4570904312566582    
  0.19340507713147487    0.11827661476731209    0.1934050604146478    0.4570904376026426    0.7632653197535757    
  0.8505311547604673    0.803999619048972    0.7740550386548181    0.7426051971870242    0.7740549658317467    
  0.8170128496129043    0.6997993442769042    0.36222307665630166    0.11827662704908067    0.060702788691144184    
  0.1182766430134119    0.3622230754696373    0.6997993631573157    0.8170127784691565    0.7740549974916558    
  0.7426051971870242    0.7740549758495051    0.8039996808413237    0.8505311000814588    0.7632652185338574    
  0.4570904506045206    0.19340505622763984    0.11827663561103641    0.19340504649896836    0.45709043078531614    
  0.76326525581751    0.8505312018350963    0.8039997205799108    0.7740549758495051    0.8170127607919427    
  0.8505311939301635    0.9156123118113113    0.898738825719221    0.700472742640325    0.45709034882324523    
  0.36222308095787065    0.4570904125898179    0.700472789126152    0.8987390741023843    0.9156121831762437    
  0.8505310290624442    0.8170127607919427    0.6997993351415818    0.763265395603561    0.8987389617131064    
  0.9704736144532171    0.8987390031931826    0.7632653516968618    0.6997994625951101    0.7632653028030565    
  0.8987389278700324    0.9704735643861047    0.8987390022856551    0.7632652181718794    0.6997993351415818    
  0.36222310867898455    0.4570903969736147    0.7004728764323295    0.898738890065172    0.9156123360248467    
  0.8505310554496244    0.817012787617651    0.8505311292103958    0.9156124219272156    0.8987389451242553    
  0.7004727399061937    0.45709043368738117    0.36222310867898455    0.11827663924362801    0.19340509519190885    
  0.4570904037569801    0.7632652162210264    0.8505311923280565    0.8039995829229609    0.7740549198168566    
  0.8039996438179715    0.8505311446351406    0.7632653743434464    0.4570903579319316    0.19340507833426282    
  0.11827663924362801    0.06070280539612384    0.11827663154011146    0.36222311503580495    0.6997993634797067    
  0.8170127927394402    0.7740549329663752    0.7426053007561151    0.7740549544171206    0.8170127990736303    
  0.6997993601322484    0.3622230736213053    0.11827661932639644    0.06070280539612384    0.11827660160574388    
  0.19340508680300525    0.4570904019614208    0.7632653036385254    0.8505312100390761    0.8039996082379828    
  0.7740549671165097    0.8039997062057597    0.8505310651455248    0.7632652972501809    0.4570904190397332    
  0.19340506416739114    0.11827660160574388    0.19340513915919383    0.28125285320979676    0.5499763920382919    
  0.8206427957208129    0.8826784290776125    0.8331505398967154    0.8039997414565051    0.8331506323590282    
  0.8826785465144663    0.8206426674432284    0.5499764110963804    0.2812528765923959    0.19340513915919383    
  0.45709042879929085    0.5499763321167633    0.7729188166902327    0.9396757979814481    0.9457112500599936    
  0.8826784109436205    0.8505311492969285    0.8826785719336676    0.9457113130779887    0.9396758761782283    
  0.7729186549368021    0.5499763649680348    0.45709042879929085    0.7632653510402291    0.8206427561790082    
  0.9396758321472014    1.0009459206677667    0.9396758118797113    0.8206427388010151    0.7632653304488697    
  0.8206428775141904    0.9396759515686459    1.0009456828519376    0.9396759104351132    0.8206427441804055    
  0.7632653510402291    0.8505312807198232    0.8826786054387864    0.9457113095058864    0.9396758103324139    
  0.7729189566265917    0.5499763391942754    0.45709043143091777    0.5499763265274039    0.7729188827739781    
  0.9396756874719451    0.9457112397539603    0.882678531955878    0.8505312807198232    0.8039996969462876    
  0.8331506824988438    0.8826785037080638    0.8206427507171036    0.5499762863197617    0.28125285115886733    
  0.19340504393454952    0.2812529007666993    0.5499763546036938    0.8206428536224648    0.8826784499243743    
  0.8331506696004485    0.8039996969462876    0.7740549360585508    0.8039996830577414    0.8505311253381345    
  0.7632652920073263    0.4570904412604196    0.19340509516542329    0.11827662921601113    0.19340510221795668    
  0.45709040158981845    0.7632652981155175    0.8505311099260635    0.8039996914244321    0.7740549360585508    
  0.8039996274269887    0.833150659964481    0.8826785301905766    0.8206428069374397    0.5499764620100897    
  0.2812528492116428    0.19340507430412657    0.28125285853093124    0.5499763859533462    0.8206428070983302    
  0.8826785027777597    0.833150735180606    0.8039996274269887    0.8505311054816258    0.8826785140046577    
  0.9457112300111787    0.9396756884009547    0.7729189418552282    0.5499763467915924    0.4570904126327543    
  0.5499763696462789    0.7729188053401478    0.9396759363586383    0.9457111359449184    0.8826783885120993    
  0.8505311054816258    0.7632652922527738    0.8206428998294699    0.9396757497558684    1.0009458427077351    
  0.9396758823247756    0.8206428450155915    0.7632654108387517    0.8206428772425185    0.9396759244717299    
  1.0009457482151252    0.9396758984960992    0.8206427813201903    0.7632652922527738    0.4570903852964761    
  0.549976392136454    0.772918924318116    0.939675815454971    0.9457111965392169    0.8826784803850787    
  0.8505311589026471    0.8826784580371072    0.9457112595985123    0.9396757880591614    0.772918911646265    
  0.5499764102058337    0.4570903852964761    0.1934051347931549    0.28125284647287363    0.5499763683088709    
  0.8206427907012369    0.8826784240989377    0.8331505992662611    0.8039996908498475    0.8331505721069642    
  0.8826785479121447    0.820642847253769    0.5499762728045823    0.2812528287829129    0.1934051347931549    
  0.11827660160574388    0.19340508680300525    0.4570904019614208    0.7632653036385254    0.8505312100390761    
  0.8039996082379828    0.7740549671165097    0.8039997062057597    0.8505310651455248    0.7632652972501809    
  0.4570904190397332    0.19340506416739114    0.11827660160574388    0.36222309338511016    0.45709039830346376    
  0.7004727238133707    0.8987389803323476    0.9156123409436403    0.8505312242368174    0.8170128426002874    
  0.8505311919736614    0.9156123191758878    0.8987389875078694    0.7004727723003166    0.4570903607986422    
  0.36222309338511016    0.4570904601463958    0.5499763962259739    0.7729188350632539    0.9396759068823426    
  0.9457111739206666    0.8826783395429265    0.8505311847026266    0.8826785062628696    0.9457112545187261    
  0.9396757728550708    0.7729189651139454    0.5499763873874856    0.4570904601463958    0.700472693682965    
  0.7729188783768361    0.9251217846728279    1.0186020384595307    1.0045884560955805    0.9457111090065323    
  0.9156122569493965    0.9457113543671363    1.004588494869391    1.0186022837447648    0.9251216645361009    
  0.7729188150693523    0.700472693682965    0.898738994243163    0.9396758257355721    1.0186020904210293    
  1.0562702197439133    1.0186021713561184    0.9396758116383536    0.898739078370556    0.9396759060545863    
  1.018602310585351    1.0562700922778843    1.0186022379098265    0.9396757826771764    0.898738994243163    
  0.9156123648420179    0.9457113076024869    1.0045885457365045    1.0186021060078148    0.9251219284876208    
  0.77291876272482    0.7004728292983915    0.7729188347662783    0.9251218485775945    1.018602177320757    
  1.0045884641451823    0.945711307803023    0.9156123648420179    0.8505311705412522    0.8826785070802525    
  0.9457111888577648    0.9396757811849499    0.7729187745859654    0.5499764289631889    0.4570903797788529    
  0.5499763622453282    0.7729188395807397    0.9396759212626273    0.9457112093955298    0.8826784662593461    
  0.8505311705412522    0.8170127211044346    0.8505311683995438    0.9156123489849529    0.8987389155661083    
  0.700472808852994    0.45709042217149437    0.36222309914164347    0.4570904530716273    0.7004728155852429    
  0.8987389706935522    0.9156122808067412    0.8505310769656623    0.8170127211044346    0.8505311844107046    
  0.8826785015835606    0.9457113286391641    0.9396758272222854    0.7729188798321245    0.5499763439581672    
  0.4570903876559    0.5499763867536293    0.7729188773123662    0.9396758404498526    0.9457112481466735    
  0.8826784823674833    0.8505311844107046    0.9156123042860003    0.9457112621207794    1.0045883210219797    
  1.0186020336828512    0.9251219540286794    0.7729187464927314    0.7004727520848318    0.7729188095473707    
  0.9251218411725186    1.0186022791762617    1.0045883076215327    0.9457111462631173    0.9156123042860003    
  0.8987390164152271    0.9396759801223115    1.0186021364653444    1.0562703317389737    1.0186022153609124    
  0.9396758449956927    0.8987390397648832    0.9396758931827192    1.018602256754772    1.0562701280920956    
  1.0186022825682404    0.9396758106913947    0.8987390164152271    0.7004728172400031    0.772918923601715    
  0.9251219317746524    1.018602096556479    1.0045884191757637    0.9457112088607296    0.9156123458509671    
  0.9457112451428745    1.0045884604247879    1.0186021602708848    0.9251219191203419    0.7729188753680812    
  0.7004728172400031    0.4570903935438979    0.5499763872021148    0.7729187719515144    0.9396757738736666    
  0.9457112668741722    0.882678424671362    0.8505311511219498    0.88267847304799    0.9457113079631614    
  0.9396760022569982    0.7729186703920066    0.5499763888034648    0.4570903935438979    0.36222309338511016    
  0.45709039830346376    0.7004727238133707    0.8987389803323476    0.9156123409436403    0.8505312242368174    
  0.8170128426002874    0.8505311919736614    0.9156123191758878    0.8987389875078694    0.7004727723003166    
  0.4570903607986422    0.36222309338511016    0.6997994311194294    0.7632653581804282    0.8987389922643639    
  0.9704735707422975    0.8987390023222818    0.7632652964091535    0.6997994781263914    0.7632652482807187    
  0.8987390715772311    0.9704736047451953    0.8987389203596136    0.7632652828465208    0.6997994311194294    
  0.7632654482971403    0.8206428812172896    0.939675856859214    1.000945775653342    0.9396758156196608    
  0.8206426935573169    0.7632652944876828    0.8206428694437924    0.9396758797599505    1.0009457116581173    
  0.9396759378299501    0.8206428793184637    0.7632654482971403    0.8987390832631202    0.9396758162283789    
  1.018602240718311    1.0562701412105462    1.0186022482284114    0.9396758330575139    0.8987390267847315    
  0.9396759109349966    1.0186022745443557    1.0562702634227663    1.0186021084876153    0.9396759033300153    
  0.8987390832631202    0.9704736514390762    1.0009458146663361    1.056270125357633    1.080844079807098    
  1.0562703268006428    1.0009458002365461    0.9704735454631371    1.0009458492516317    1.0562703419649282    
  1.0808438082736662    1.056270302528052    1.000945738182719    0.9704736514390762    0.8987389886890075    
  0.9396758615455547    1.018602313773474    1.0562701527309997    1.0186022933634549    0.9396758828210935    
  0.8987389575220998    0.93967579055993    1.0186021490171422    1.0562701764441327    1.0186022327722266    
  0.939675862305313    0.8987389886890075    0.7632654137968795    0.8206428231893075    0.9396758271492716    
  1.0009456698070793    0.939675821178069    0.8206427807493376    0.7632652199121678    0.8206427780561174    
  0.9396759277180609    1.0009458172795138    0.9396758883395425    0.8206428029514602    0.7632654137968795    
  0.6997993712067975    0.7632653203508253    0.8987390625619716    0.9704735349852126    0.8987389680294356    
  0.7632652900315111    0.6997993861485499    0.7632653103645031    0.8987390565277962    0.9704735881479151    
  0.8987389675752785    0.7632653736490422    0.6997993712067975    0.7632653722306206    0.8206428511147326    
  0.9396758109429743    1.0009457058288675    0.9396759349260961    0.8206427636430204    0.7632653607469861    
  0.8206428033748857    0.9396758712580128    1.0009457364717753    0.9396759471079019    0.8206429023802233    
  0.7632653722306206    0.8987389349400904    0.9396759139192622    1.0186022425592234    1.056270122354708    
  1.0186022558632404    0.9396757562636575    0.8987389408253325    0.9396758039159999    1.01860223346351    
  1.0562703011534866    1.0186021525010498    0.9396757781028549    0.8987389349400904    0.9704735263823335    
  1.0009458624015937    1.056270251985754    1.0808439496485853    1.056270319648509    1.0009458021190345    
  0.9704736772233759    1.0009458238346323    1.0562702648787377    1.08084391218921    1.0562703289287352    
  1.000945686701531    0.9704735263823335    0.8987389868334981    0.9396759509954483    1.0186023483057238    
  1.056270148975705    1.0186022808443782    0.9396757785803191    0.8987390493218503    0.9396758806790908    
  1.0186023005613716    1.0562701803806966    1.0186022503435588    0.9396759152071047    0.8987389868334981    
  0.7632653271738148    0.8206428740626603    0.9396758666114853    1.0009457100082957    0.9396758206757768    
  0.8206427740499959    0.7632653237010515    0.8206427589152944    0.9396759873981132    1.0009458752472795    
  0.9396757508594767    0.8206427847779612    0.7632653271738148    0.6997994311194294    0.7632653581804282    
  0.8987389922643639    0.9704735707422975    0.8987390023222818    0.7632652964091535    0.6997994781263914    
  0.7632652482807187    0.8987390715772311    0.9704736047451953    0.8987389203596136    0.7632652828465208    
  0.6997994311194294    0.8170126621984396    0.8505311645497203    0.9156122913347562    0.8987389941662114    
  0.7004727544761746    0.45709042881439055    0.362223069726178    0.4570904235940448    0.7004727131152751    
  0.8987390176187593    0.9156123417240699    0.8505310719562468    0.8170126621984396    0.8505312237248621    
  0.8826784790265226    0.9457112209475911    0.9396759089913578    0.7729188172528868    0.5499762899439461    
  0.4570904285474204    0.5499763601400601    0.7729188357162758    0.9396757806670019    0.9457113059679549    
  0.8826785903790996    0.8505312237248621    0.9156123398123003    0.9457112610376271    1.0045883932335147    
  1.0186021167403616    0.9251218065047859    0.7729186575162491    0.7004727938216324    0.772918890546433    
  0.9251218910792697    1.0186021914834684    1.0045883362873766    0.9457112967068598    0.9156123398123003    
  0.8987389347813791    0.9396758566078017    1.0186022106737302    1.0562703847611823    1.0186022506849144    
  0.9396757364580753    0.8987390360122348    0.9396759540101862    1.0186022809804673    1.0562701210858843    
  1.0186022454658192    0.9396758338329362    0.8987389347813791    0.7004728007124458    0.7729189258388943    
  0.925121986019113    1.0186021621343309    1.0045885476815186    0.9457111993429266    0.9156122492485591    
  0.9457111577953352    1.0045884677847838    1.0186020828513338    0.9251219444386319    0.7729188272586315    
  0.7004728007124458    0.45709043804872523    0.5499764461243438    0.7729188104436021    0.9396757301805465    
  0.9457111640587487    0.8826785205233    0.8505310553655377    0.8826785422374863    0.9457112897621434    
  0.9396759047145125    0.7729187920196606    0.5499764377007078    0.45709043804872523    0.36222305212242034    
  0.4570904258648033    0.7004727968083737    0.8987388833491241    0.915612339432126    0.8505310920979323    
  0.8170126862268586    0.8505312065676528    0.9156123282314407    0.8987390146562061    0.7004727184590617    
  0.45709042147431356    0.36222305212242034    0.45709041040556087    0.5499763857260708    0.7729188707424419    
  0.9396758840119127    0.9457112736248485    0.8826785386851683    0.8505311447849435    0.8826785147223943    
  0.9457112982275054    0.9396758126416158    0.7729188258232444    0.5499763997113607    0.45709041040556087    
  0.7004727518168893    0.7729187950075956    0.9251217514248454    1.0186020598213776    1.0045886025718804    
  0.9457111985645202    0.9156122911885315    0.9457112266269769    1.0045884701532302    1.0186023180410972    
  0.9251217828281356    0.7729187142656865    0.7004727518168893    0.8987389751585217    0.9396759145980765    
  1.0186021004889059    1.0562703242850793    1.0186022132926325    0.939675906199258    0.8987390908741477    
  0.9396759179867284    1.0186022654676    1.0562701762561457    1.0186021991676584    0.9396757814406637    
  0.8987389751585217    0.9156122774960356    0.9457112638471917    1.0045885760963873    1.0186021338577218    
  0.9251218110392128    0.7729188245168472    0.7004727672167312    0.7729188323404138    0.9251218857462659    
  1.018602155743764    1.0045884862136285    0.9457112533653966    0.9156122774960356    0.8505312040848921    
  0.8826784598914736    0.9457112405080503    0.9396757586744774    0.7729188580777928    0.5499763300816408    
  0.4570903957188223    0.5499763556965577    0.7729189523236646    0.9396758653601242    0.9457110599952187    
  0.8826784590358582    0.8505312040848921    0.8170126621984396    0.8505311645497203    0.9156122913347562    
  0.8987389941662114    0.7004727544761746    0.45709042881439055    0.362223069726178    0.4570904235940448    
  0.7004727131152751    0.8987390176187593    0.9156123417240699    0.8505310719562468    0.8170126621984396    
  0.7740549956599131    0.8039996100217431    0.850531157742991    0.7632653466619437    0.45709048984311795    
  0.19340509432252137    0.11827665979320212    0.19340508527574496    0.45709043785442555    0.7632653210802541    
  0.850531186001443    0.803999576932178    0.7740549956599131    0.8039997207379103    0.8331506789585588    
  0.8826785284724648    0.8206427817028547    0.5499763088734994    0.28125280269080577    0.19340510217901158    
  0.28125287550287476    0.5499763246168486    0.8206427776687248    0.8826785520979258    0.8331507133981327    
  0.8039997207379103    0.8505311184284827    0.882678457832485    0.945711240785863    0.9396757723649553    
  0.7729188386061987    0.5499762689000451    0.45709043130257865    0.54997645452364    0.7729189110161364    
  0.9396759824315708    0.9457110799887642    0.8826784870614651    0.8505311184284827    0.7632653507330394    
  0.8206427843099986    0.9396758284860793    1.0009458363683843    0.9396758483718033    0.8206427645143698    
  0.7632653551011096    0.8206428388269023    0.9396758980593195    1.0009457472495134    0.9396759213160019    
  0.820642726842739    0.7632653507330394    0.45709040795232647    0.5499764041637948    0.772918896585605    
  0.939675820737766    0.94571129652548    0.8826784110751819    0.8505312410047599    0.8826784583343312    
  0.9457111930759744    0.9396758364591217    0.7729188456793828    0.5499764228160067    0.45709040795232647    
  0.19340508144494473    0.28125288660699316    0.5499763376444228    0.8206427183062464    0.8826784578808594    
  0.8331506702855352    0.8039996735672533    0.8331506436917078    0.8826785373103159    0.8206429008447985    
  0.5499763387265472    0.2812528862300526    0.19340508144494473    0.11827662482912847    0.19340509314326995    
  0.45709043299281055    0.7632652552399419    0.8505311719028785    0.8039996635304497    0.774054967837925    
  0.8039997055660822    0.8505312280773681    0.7632652958781566    0.45709042737625144    0.1934050758902236    
  0.11827662482912847    0.19340508112874666    0.28125287608157024    0.5499764019925879    0.8206427361826608    
  0.8826785504889471    0.8331506349377824    0.8039996341131924    0.8331506742746229    0.8826784676447001    
  0.8206428286580183    0.5499763522884099    0.28125288866578907    0.19340508112874666    0.4570904067426371    
  0.5499763852781349    0.7729188624613897    0.9396756697645909    0.945711358543453    0.8826784087601258    
  0.8505310972654601    0.88267848142428    0.9457112748995767    0.9396759214950846    0.7729187028524418    
  0.5499762815657327    0.4570904067426371    0.7632653459269443    0.8206429312810278    0.9396757785136229    
  1.0009458068206107    0.9396758764378572    0.820642809672915    0.7632653707603092    0.8206428001939582    
  0.9396758906784611    1.0009457392448666    0.9396758322646741    0.8206428263031159    0.7632653459269443    
  0.8505311749040682    0.8826785385099212    0.9457113713341545    0.9396757803547755    0.7729188181316257    
  0.5499763803130476    0.45709039058053563    0.5499763570721129    0.7729188637406097    0.9396758084736218    
  0.945711325068283    0.882678566985747    0.8505311749040682    0.8039996672405639    0.8331506750601017    
  0.8826784292891959    0.8206426959137227    0.5499763319466081    0.281252829867954    0.1934050974801764    
  0.2812528445550121    0.5499764041581234    0.8206428133822824    0.8826783033752152    0.8331506575799112    
  0.8039996672405639    0.7740549956599131    0.8039996100217431    0.850531157742991    0.7632653466619437    
  0.45709048984311795    0.19340509432252137    0.11827665979320212    0.19340508527574496    0.45709043785442555    
  0.7632653210802541    0.850531186001443    0.803999576932178    0.7740549956599131    0.7426052545281109    
  0.7740549702159795    0.8170128000283045    0.6997993624634747    0.36222308382500734    0.11827662459211352    
  0.06070281054967853    0.11827662662345473    0.36222311524953155    0.6997993331265712    0.8170127238110083    
  0.7740549462930836    0.7426052545281109    0.7740550816340654    0.8039997115965454    0.8505311028736782    
  0.7632653061265888    0.45709044675226235    0.1934050550701394    0.11827662578775894    0.19340506924278764    
  0.45709041881521706    0.7632652506694294    0.850531192171673    0.8039997104482951    0.7740550816340654    
  0.8170128166877723    0.8505310244621709    0.9156122921515398    0.8987388239948507    0.7004727393957176    
  0.45709038392091256    0.3622231461166301    0.4570904727541171    0.7004727972247    0.8987390098352945    
  0.915612203446107    0.8505311495132126    0.8170128166877723    0.6997993478414434    0.7632652506875995    
  0.8987388514547193    0.9704737106318577    0.8987389797945964    0.7632652093280934    0.6997993990346402    
  0.76326536670639    0.8987390402616587    0.9704735341355644    0.8987389624803146    0.763265280214712    
  0.6997993478414434    0.3622231266000731    0.45709038676673563    0.700472873039407    0.8987389317543023    
  0.9156123191170354    0.8505311491062036    0.8170127792250442    0.8505311466245522    0.9156122787747665    
  0.898738877586497    0.7004728087845637    0.457090389551193    0.3622231266000731    0.11827665952990084    
  0.19340509372247056    0.45709038651598066    0.7632652340051768    0.8505311638994402    0.8039996344077228    
  0.7740549477478046    0.8039996001425508    0.8505311781146834    0.7632653307561477    0.45709041704725706    
  0.19340506989312445    0.11827665952990084    0.060702783232435414    0.11827661712794232    0.36222313773109704    
  0.6997993532453206    0.8170127383140806    0.774054939858574    0.7426052135155978    0.7740549802107574    
  0.8170127603714532    0.6997993874992456    0.36222308760012156    0.1182766480854357    0.060702783232435414    
  0.11827664188136805    0.19340511365239532    0.4570903507081545    0.7632652522201049    0.8505311601711247    
  0.8039996171307032    0.7740549520867279    0.8039996224982816    0.85053116301688    0.7632652202534855    
  0.45709047294673644    0.19340508847151577    0.11827664188136805    0.3622230919713986    0.4570904669954147    
  0.7004727400884709    0.8987388146019931    0.9156123013228388    0.8505310771384178    0.8170127155345001    
  0.8505311204464304    0.915612350899507    0.8987390532434778    0.7004726632784463    0.45709033468656596    
  0.3622230919713986    0.6997993374588057    0.7632654045554411    0.8987389605423586    0.9704736317546532    
  0.898739012667467    0.7632653711011742    0.6997994651838447    0.7632653062620466    0.8987389111389551    
  0.9704735658005998    0.8987390083905914    0.7632652513483525    0.6997993374588057    0.8170128059407165    
  0.850531100851651    0.915612419312685    0.8987389007645804    0.7004728061585137    0.45709035225008027    
  0.36222310972739064    0.4570904124913383    0.7004728458702292    0.8987389209941293    0.9156122637543618    
  0.8505311875999981    0.8170128059407165    0.7740550092181205    0.8039996790309628    0.8505311074317375    
  0.7632652010403957    0.45709046193411723    0.19340504957722116    0.1182766168425178    0.193405082310572    
  0.4570904476865533    0.7632653611484199    0.8505310209634043    0.8039996095153382    0.7740550092181205    
  0.7426052545281109    0.7740549702159795    0.8170128000283045    0.6997993624634747    0.36222308382500734    
  0.11827662459211352    0.06070281054967853    0.11827662662345473    0.36222311524953155    0.6997993331265712    
  0.8170127238110083    0.7740549462930836    0.7426052545281109    0.7740549132710558    0.8039996757014266    
  0.850531127944102    0.763265295038633    0.4570904712531433    0.193405058833865    0.1182766236402916    
  0.19340509494402436    0.4570903636435075    0.7632653037307345    0.8505311453445316    0.8039996408254094    
  0.7740549132710558    0.8039997889919753    0.8331506300371659    0.8826785413407582    0.8206427594028277    
  0.5499763300589299    0.28125278559576383    0.19340512186595588    0.28125283550707825    0.5499763783780348    
  0.8206427022670983    0.8826785702124966    0.8331507454150596    0.8039997889919753    0.8505311796271103    
  0.8826784390016378    0.9457112025406108    0.9396758050462835    0.7729188529092282    0.5499762926706944    
  0.4570904572676159    0.5499764298732845    0.7729189297026454    0.9396759109525503    0.945711062359454    
  0.8826785007960539    0.8505311796271103    0.763265330875172    0.8206427518830454    0.9396758455839991    
  1.0009459398989222    0.9396758208945615    0.8206427549858197    0.7632653543632778    0.8206428841860623    
  0.9396759486044213    1.0009456807819366    0.9396759117104516    0.8206427304558404    0.763265330875172    
  0.4570904884643923    0.5499764558640465    0.7729188913072104    0.939675820749743    0.9457113570408642    
  0.8826784496496403    0.8505311753365207    0.8826784178604414    0.9457112825840328    0.9396757009140858    
  0.7729188225514829    0.5499763884461647    0.4570904884643923    0.19340508525487676    0.281252880908633    
  0.549976376268928    0.8206427629805778    0.8826783851130238    0.8331506353037299    0.8039995742795655    
  0.8331507085169453    0.8826784992072245    0.8206428752922077    0.5499763368013957    0.28125287429707635    
  0.19340508525487676    0.11827660828023097    0.19340508447318042    0.4570904071549016    0.763265284013223    
  0.8505311728688276    0.8039996593418834    0.7740549550208352    0.8039996778379316    0.85053115921895    
  0.7632652780573078    0.4570903896011532    0.19340509645878345    0.11827660828023097    0.19340508043230578    
  0.2812528550615091    0.5499764014978512    0.8206428284668849    0.8826786182317662    0.833150653229444    
  0.8039996273437608    0.833150679149435    0.8826784863899465    0.8206428190549488    0.5499763661580259    
  0.281252871467576    0.19340508043230578    0.45709041831078134    0.5499763845339669    0.7729188036087993    
  0.9396757000330054    0.945711374052216    0.8826784727595123    0.85053111716663    0.8826784739303264    
  0.9457112421482831    0.939675921771263    0.7729187693181447    0.5499762924825013    0.45709041831078134    
  0.7632653207719637    0.8206429150579756    0.9396757484635605    1.0009458775743458    0.93967587878608    