#     DFTpy    
  CRYSTAL 
    
  PRIMVEC    
  1.7831794372971208    -3.0885573844106946    0.0    
  1.7831794372971208    3.0885573844106946    0.0    
  0.0    0.0    6.029077506068965    
  PRIMCOORD    
  2    1    
  Si    1.7831794372971208    1.029519128136898    1.5072693765172414    
  Si    1.783179437297121    -1.029519128136898    4.521808129551724    
  BEGIN_BLOCK_DATAGRID_3D    
  3d_datagrid_density    
  BEGIN_DATAGRID_3D#0    
  17    17    27    
  0.0    0.0    0.0    
  1.7831794372971208    -3.0885573844106946    0.0    
  1.7831794372971208    3.0885573844106946    0.0    
  0.0    0.0    6.029077506068965    
  0.032895567420214294    0.03372190317223077    0.0362506856440689    0.04053880982189553    0.04642198445988019    
  0.05339064705299576    0.06041362673202813    0.06577102922607722    0.06776883734407396    0.06577103276845295    
  0.06041363399465512    0.05339065010338278    0.04642197329445511    0.040538810967178394    0.03625067765343011    
  0.03372190339825239    0.032895567420214294    0.03372189819876732    0.03372170498748254    0.035401445210737265    
  0.038837388704712955    0.044033777234984826    0.05068991295303015    0.05804059751526262    0.06462386472811368    
  0.06855103658221834    0.06854954995561675    0.06462502346453056    0.05803950464385267    0.05069081487952825    
  0.04403323624754567    0.038837629143328806    0.03540107172830052    0.03372189819876732    0.03625067387997236    
  0.03540144490361798    0.03625051484720883    0.03883759307014633    0.04326071913204494    0.0494924500218737    
  0.05702926900891459    0.06464527485085857    0.07044246068549143    0.07261913943384625    0.07044282422378785    
  0.06464515065814695    0.057029593878839685    0.04949218428674723    0.04326113386839564    0.038837629294474776    
  0.03625067387997236    0.04053881614640922    0.038837381682297535    0.0388375894898874    0.0405386661444301    
  0.044033850487796    0.0494918503769761    0.056773076862740024    0.06496271026715193    0.07232823064983411    
  0.07677527232479947    0.07677622203095007    0.07232724763994897    0.06496360656108337    0.05677222491987481    
  0.04949217343223857    0.04403322458889782    0.04053881614640922    0.04642198613027193    0.04403377995803602    
  0.043260713071897654    0.04403384686997716    0.04642150445550277    0.05069091975375619    0.05702880078279962    
  0.06496381242845886    0.07309893226441538    0.07941531901777958    0.08184108711801343    0.07941509387963676    
  0.07309906757487984    0.06496361934780596    0.05702958453899669    0.05069081889633381    0.04642198613027193    
  0.053390637886414294    0.05068993005249693    0.049492457030540365    0.04949185441518194    0.05069091812107757    
  0.05338995531328318    0.058040868889063194    0.0646445140951571    0.072328238598361    0.0794139945335981    
  0.08380362177740522    0.0838031035529651    0.07941509843931871    0.07232726554766981    0.06464514232300837    
  0.05803949975443384    0.053390637886414294    0.06041363295741823    0.058040587279738945    0.057029263776676505    
  0.056773083038259044    0.05702880816529081    0.05804087087110514    0.0604128615188055    0.06462493443850048    
  0.07044230693593943    0.07677617591045593    0.0818414542967086    0.08380360207965777    0.0818410859334312    
  0.076776219596475    0.07044283418797335    0.06462502664147662    0.06041363295741823    0.06577102194304897    
  0.06462387675922947    0.06464526985060014    0.06496270377168616    0.06496382095573121    0.0646445184909307    
  0.06462493053004316    0.06577105587322195    0.06855056086044793    0.07261884120743005    0.07677616583835742    
  0.07941401355129281    0.0794153115295121    0.07677527310374252    0.07261909342920297    0.06854955967582786    
  0.06577102194304897    0.06776884309663528    0.06855103783336658    0.0704424703780558    0.07232822439225305    
  0.07309892495034993    0.07232825901190967    0.0704423197603492    0.06855056111619053    0.06776831325446056    
  0.06855056948735248    0.07044231527160892    0.07232826957110919    0.0730989185982074    0.07232823476083818    
  0.07044244303634004    0.06855103992930743    0.06776884309663528    0.06577103478274482    0.06854955118449332    
  0.07261912411378697    0.07677526974581976    0.07941531076781243    0.07941402864439844    0.07677618284553976    
  0.07261883970563686    0.06855055780361774    0.06577104800412656    0.06462493645350127    0.0646445315014758    
  0.06496381389992034    0.06496271067953296    0.06464526330461094    0.064623895881578    0.06577103478274482    
  0.06041362108841739    0.06462501480997605    0.07044282646352835    0.07677622144741107    0.08184108100791357    
  0.08380361503224412    0.08184146921224492    0.0767761674905301    0.07044229029542215    0.06462493551904484    
  0.06041285944288439    0.058040861175899607    0.05702879084961108    0.05677308471396425    0.0570292540633012    
  0.05804059787495365    0.06041362108841739    0.053390652845497814    0.05803951235581934    0.06464513250509255    
  0.07232726533547691    0.07941508910680774    0.08380307569146653    0.08380360497658618    0.07941401043778211    
  0.07232824459983052    0.06464452554024153    0.058040884414916234    0.05338993298930292    0.050690909952731185    
  0.04949184564905406    0.04949246060071759    0.05068991543764296    0.053390652845497814    0.0464219874188611    
  0.05069082833674995    0.057029581980813066    0.06496359632438398    0.07309908174154614    0.0794151046538482    
  0.08184107974666507    0.0794153178061586    0.07309894208863955    0.06496381680651919    0.057028801392051895    
  0.05069091857216209    0.046421503393378846    0.04403385830057747    0.04326070620905653    0.0440337761312811    
  0.0464219874188611    0.04053880733907949    0.04403323448420983    0.049492195053098424    0.05677224469081706    
  0.06496362589531232    0.07232724584822461    0.07677618874109526    0.07677527471958125    0.07232821908423762    
  0.0649627006832622    0.05677309686138348    0.04949185178582571    0.044033854595059055    0.040538658847480674    
  0.03883759498635161    0.0388373810728285    0.04053880733907949    0.03625067402392877    0.038837628632558734    
  0.04326112757582894    0.04949218248281583    0.05702960366896523    0.06464514437595971    0.07044283463082687    
  0.07261913292891896    0.07044247267622485    0.06464525943091037    0.05702927202231039    0.04949246020395463    
  0.04326071453548987    0.03883759634236163    0.03625050998481228    0.03540145402268848    0.03625067402392877    
  0.033721899978795565    0.03540106774866864    0.038837628706600125    0.04403321912448667    0.050690819181742744    
  0.058039487294327834    0.06462499358506857    0.0685495458664688    0.06855103330249226    0.0646238694740488    
  0.05804060453876854    0.05068991030293583    0.044033768997345915    0.03883737844780674    0.03540144201904602    
  0.03372170042750021    0.033721899978795565    0.032895567420214294    0.03372190317223077    0.0362506856440689    
  0.04053880982189553    0.04642198445988019    0.05339064705299576    0.06041362673202813    0.06577102922607722    
  0.06776883734407396    0.06577103276845295    0.06041363399465512    0.05339065010338278    0.04642197329445511    
  0.040538810967178394    0.03625067765343011    0.03372190339825239    0.032895567420214294    0.033788796961711526    
  0.034727840703070834    0.03760295399221679    0.0425051553652636    0.04934478805119101    0.05757068890853227    
  0.0658878899037255    0.07223823291118729    0.0746225291755058    0.07223770396734375    0.06588795696845955    
  0.05757056359865313    0.04934537200573601    0.04250479337364716    0.03760289915138746    0.03472795987795095    
  0.033788796961711526    0.03472795241379228    0.03472816694216988    0.03619821840491221    0.039202787542477524    
  0.04377028809760801    0.04965077356983377    0.056154127534817404    0.06197534173460205    0.06543372077511014    
  0.06543397395997332    0.06197590122790163    0.05615389017415051    0.049650476270823904    0.04377034474892265    
  0.03920289442781138    0.03619822261364124    0.03472795241379228    0.03760289047597105    0.03708515428060109    
  0.03760275848061943    0.03920282227346572    0.04200719862191433    0.04599341283125776    0.05080536742596271    
  0.055701555005877784    0.05944544741451918    0.06083880850396667    0.05944489063876832    0.05570135291018057    
  0.05080592291171781    0.04599335139784821    0.04200727806246239    0.03920289486018705    0.03760289047597105    
  0.04250479636278843    0.0419645467095893    0.04196444917923532    0.04250513389653555    0.043770379180129264    
  0.04599334174425802    0.04913316398980561    0.05281195208755615    0.05624275018307012    0.05832762200053999    
  0.05832780986927079    0.05624328024948214    0.052811635269537915    0.049133045558297415    0.045993340988614365    
  0.04377032822416769    0.04250479636278843    0.04934537885971879    0.04947873519955245    0.04957899735164995    
  0.04947859781227172    0.0493450185107172    0.049650665935724314    0.050805692342586146    0.052811497702750815    
  0.055250238903595074    0.05729097869987421    0.05808198021547631    0.05729087368584237    0.055250237388234105    
  0.05281164931893666    0.05080590831545533    0.049650474353550265    0.04934537885971879    0.05757055432059891    
  0.05934376921985574    0.060544972355254946    0.06054497916361848    0.05934395888176975    0.05757067492035626    
  0.056153780736777896    0.05570187949840421    0.05624274390761809    0.05729151230311975    0.05808096977140405    
  0.058081049454038476    0.0572908779277782    0.056243280556485205    0.055701350655223206    0.0561538937141974    
  0.05757055432059891    0.06588795056863218    0.07040758557811985    0.07412322965953015    0.07557267126320782    
  0.07412324025844436    0.07040769989070857    0.06588783428009522    0.061975506591789964    0.05944518324097026    
  0.058327816995411716    0.05808130415747411    0.05808096821591357    0.058081982249109605    0.05832780129044004    
  0.059444896674638266    0.06197591088811127    0.06588795056863218    0.07223768526452931    0.0803900519301345    
  0.08804612199899121    0.09281215347262059    0.09281185733363315    0.08804628945868698    0.08039000092036529    
  0.07223838313114161    0.06543389908666844    0.0608387096213589    0.05832782268210867    0.05729152491790985    
  0.05729098046881147    0.058327622628550804    0.06083877419247447    0.06543396890326798    0.07223768526452931    
  0.07462252080893149    0.08643332605864859    0.09880048728198187    0.10850106679083837    0.11223582219107477    
  0.10850104603587933    0.0988007025335788    0.08643278422445272    0.07462251640869876    0.06543390220596823    
  0.05944517695763928    0.05624276539439041    0.05525022601423628    0.05624275224642644    0.059445434474800114    
  0.06543372882213834    0.07462252080893149    0.07223823094006245    0.08643282859444164    0.10290843444563987    
  0.11806768397934228    0.12736102832085716    0.12736014922288091    0.11806738676835168    0.10290900036133978    
  0.08643276797499289    0.07223838306770458    0.06197551265810172    0.05570189386390551    0.05281150298278415    
  0.05281196630445864    0.05570154875190914    0.06197535650570145    0.07223823094006245    0.06588789005785482    
  0.08039002408139136    0.09880126888247152    0.11806711058782753    0.13316813070266945    0.13897673236675473    
  0.13316938828730676    0.11806739080151868    0.09880066490234642    0.08039001019518359    0.06588782366423805    
  0.05615378748065105    0.050805685554348765    0.049133166891687785    0.050805351628090925    0.056154137739087756    
  0.06588789005785482    0.05757070525151951    0.07040721405623994    0.08804622851299962    0.10850084692035503    
  0.1273611791975115    0.13897750365699127    0.13897671682308338    0.12736012731014856    0.10850104119380158    
  0.08804629322851373    0.07040772061948067    0.05757065020744228    0.049650669403466526    0.04599334271105728    
  0.04599342394390516    0.04965077671688084    0.05757070525151951    0.0493447879293511    0.059344013875635995    
  0.07412379417455854    0.09281193897544653    0.1122356694670913    0.12736118705092994    0.1331681203446452    
  0.12736104567406603    0.11223583106963961    0.09281186156521253    0.07412323403972655    0.05934395206302608    
  0.04934502204238355    0.043770385792782786    0.04200719536695451    0.04377028395066015    0.0493447879293511    
  0.04250514840800994    0.04947908001509827    0.06054447121847706    0.07557293096435239    0.09281196736682652    
  0.10850082669271524    0.11806708196427025    0.11806769538599268    0.108501060260581    0.09281214851642114    
  0.07557268170224456    0.06054498237258694    0.04947860950728192    0.0425051382210501    0.039202812349686485    
  0.039202791556154    0.04250514840800994    0.03760294621346147    0.0419640408655071    0.04957939882956928    
  0.060544465399053726    0.07412380901123508    0.0880462266966037    0.0988012686629396    0.10290844405212492    
  0.09880047058244629    0.08804611582014309    0.07412324254472481    0.06054497351279843    0.049578997384582754    
  0.04196445218127627    0.03760276215218597    0.03619822986529113    0.03760294621346147    0.03472783880379397    
  0.03708551274405833    0.04196404936890657    0.049479057537679436    0.05934401182426837    0.07040718397339127    
  0.0803900100664479    0.08643282800696109    0.0864333188731015    0.08039005725845477    0.07040760230840643    
  0.0593437570982647    0.04947872660664339    0.04196454078075621    0.0370851447521168    0.03472815766297592    
  0.03472783880379397    0.033788796961711526    0.034727840703070834    0.03760295399221679    0.0425051553652636    
  0.04934478805119101    0.05757068890853227    0.0658878899037255    0.07223823291118729    0.0746225291755058    
  0.07223770396734375    0.06588795696845955    0.05757056359865313    0.04934537200573601    0.04250479337364716    
  0.03760289915138746    0.03472795987795095    0.033788796961711526    0.03637777147437316    0.03764924670551181    
  0.04156832430850576    0.04838307886167124    0.05818070556757834    0.07028517440891632    0.08264999387843287    
  0.09215880637923253    0.09577865565321843    0.09215864699610445    0.08264997137452862    0.07028486748512293    
  0.058180086538672154    0.04838280359303174    0.041568680412424966    0.03764953443412302    0.03637777147437316    
  0.03764951920292396    0.03764826051241379    0.03930678323655177    0.042708915204793134    0.04799954539439979    
  0.05501195697193872    0.0628769597394405    0.06994424284777873    0.07419660049145065    0.07419732781652287    
  0.06994419263419976    0.06287754276785852    0.055012420505150005    0.04799932371042092    0.04271000375875655    
  0.03930521850583919    0.03764951920292396    0.041568682392674604    0.04121470061734242    0.04156901730051816    
  0.04270890327696593    0.044862129089179324    0.048135577739377454    0.052258811164087655    0.05655318784324743    
  0.05989600713076494    0.061156901997826606    0.05989520883741083    0.05655342053903713    0.05225739381351399    
  0.048136758577017116    0.04486067285131522    0.04271000275681302    0.041568682392674604    0.048382808415339464    
  0.04878813957678228    0.04878859174635738    0.04838265781308118    0.047999403912998055    0.04813622484738597    
  0.04898138993592177    0.05044607154352738    0.05207751020023003    0.05312301647282345    0.05312374481050657    
  0.05207751792543785    0.05044692585486456    0.0489811456465512    0.048136742960721825    0.047999316645873646    
  0.048382808415339464    0.058180089880529126    0.060821892065504736    0.061867440895111724    0.060821268286804765    
  0.05818117028079642    0.055011760326929435    0.052258571997029046    0.0504461710211162    0.04963572641750601    
  0.049417906007352005    0.049379592254294565    0.04941791081046137    0.04963485253667874    0.05044693323056385    
  0.05225738112566878    0.055012429114717    0.058180089880529126    0.07028485187589506    0.07714242128122456    
  0.08136433610361929    0.08136559571308853    0.07714067399626202    0.07028533673973565    0.06287676898237633    
  0.05655351647817082    0.05207758420516713    0.04941750011123039    0.04820332177555536    0.048202984516094706    
  0.04941791703833609    0.052077513891359443    0.056553427320291456    0.06287755987583069    0.07028485187589506    
  0.08264997218352102    0.09589332263815421    0.10626542130152201    0.11025842061604595    0.10626615869147597    
  0.09589445151400657    0.08265021896900787    0.06994446244579036    0.059895347584222505    0.0531239110729711    
  0.04937938893669501    0.04820331597119195    0.04937959079443324    0.053123724066840454    0.05989520657147161    
  0.06994419701603007    0.08264997218352102    0.09215862743740272    0.11305576605934951    0.13240149030791223    
  0.1443692037810696    0.14436827026010213    0.1324011847091506    0.11305508733792737    0.09215794531994354    
  0.07419782211101822    0.06115591175216767    0.053123926109303735    0.04941749921686052    0.049417908155583536    
  0.053123026891463816    0.061156878359760296    0.07419733686134466    0.09215862743740272    0.0957786428997063    
  0.12357527604718373    0.1528831837960848    0.1758427196817657    0.18465198977502115    0.17584302595184176    
  0.15288327415248823    0.12357691045265914    0.0957785086106569    0.07419783148495046    0.059895348961926664    
  0.05207760220102489    0.049635708823322036    0.052077513095476695    0.05989600028110744    0.07419660719960063    
  0.0957786428997063    0.09215879798827509    0.12357731545249255    0.16076297468602796    0.19498835722155253    
  0.21564695057313388    0.21564513542801908    0.19498889890175716    0.1607619794108112    0.12357689809885568    
  0.09215793393329094    0.0699444630875975    0.05655351813792487    0.05044617399538129    0.0504460742497755    
  0.05655318555992031    0.06994425087569306    0.09215879798827509    0.08264999125516229    0.11305392574438272    
  0.15288397208986437    0.1949882132564613    0.22727327588841592    0.23932540056849458    0.2272742464802317    
  0.19498891861837042    0.15288324767104247    0.11305509208260886    0.08265020771315873    0.06287676508942201    
  0.05225855626536932    0.048981393412833675    0.05225879477174189    0.06287696413697175    0.08264999125516229    
  0.0702851943499738    0.09589474351090811    0.13240258038255004    0.17584126245160211    0.21564814806506677    
  0.23932430582631078    0.23932539192314323    0.2156451059716724    0.17584302526442333    0.13240118250129876    
  0.09589447887175676    0.070285314863195    0.05501174984416248    0.04813622269824758    0.04813557968214116    
  0.05501195579364262    0.0702851943499738    0.05818070626268068    0.07714142003633605    0.10626427166138504    
  0.14436975988718317    0.18465168461498313    0.21564815290401934    0.22727325834243262    0.21564694290219374    
  0.18465203385866    0.1443682776568253    0.10626614576156551    0.07714066799336192    0.05818116777597241    
  0.04799940871385938    0.04486212025548696    0.04799954646790733    0.05818070626268068    0.04838308070657451    
  0.06082110210795519    0.08136611613786567    0.11025871960230837    0.14436979652966925    0.1758412539048091    
  0.19498815601897643    0.19498836880174053    0.17584269240227296    0.14436919933089168    0.11025843432148985    
  0.08136560076480807    0.060821278224417505    0.04838265521423332    0.04270889007760922    0.04270891630193451    
  0.04838308070657451    0.04156831014200095    0.04878902656392784    0.0618663082331856    0.0813660946163618    
  0.10626428625304993    0.13240258777188185    0.15288396637954255    0.16076297583607718    0.152883170897168    
  0.13240146690834798    0.10626542736317426    0.08136433476729098    0.061867454292827716    0.04878859828839746    
  0.041569018978405044    0.039306795992552504    0.04156831014200095    0.03764924647369667    0.04121428701512721    
  0.0487890300224678    0.06082109018887436    0.07714139275162399    0.09589473556960726    0.11305388665237436    
  0.12357732195033604    0.12357524103769696    0.11305576708645981    0.09589334157533637    0.07714240129801626    
  0.06082187589131784    0.04878813833157183    0.04121469420190023    0.03764825990725464    0.03764924647369667    
  0.03637777147437316    0.03764924670551181    0.04156832430850576    0.04838307886167124    0.05818070556757834    
  0.07028517440891632    0.08264999387843287    0.09215880637923253    0.09577865565321843    0.09215864699610445    
  0.08264997137452862    0.07028486748512293    0.058180086538672154    0.04838280359303174    0.041568680412424966    
  0.03764953443412302    0.03637777147437316    0.040297356385875165    0.042079069766795894    0.04769642281937641    
  0.057747139861332994    0.07259089280736516    0.09136381828673105    0.11084904493437156    0.1259923060215387    
  0.1317986847016885    0.12599332605101865    0.11084813022657282    0.09136310065590945    0.07259074409254042    
  0.057747177360079505    0.04769628813731351    0.04207918496214347    0.040297356385875165    0.0420791739928007    
  0.04207904840704911    0.044233024143221264    0.04875121479994801    0.055948597790482446    0.06570167833241579    
  0.07679079628981456    0.0868454004104146    0.09299643756441184    0.09299496353407401    0.08684575213769094    
  0.07679163459059872    0.06570297677044663    0.05594782818023302    0.04875154560732617    0.044233079451081396    
  0.0420791739928007    0.04769628572034824    0.047380076304635796    0.047696486315062694    0.048751777191933965    
  0.05090416469703834    0.05446109068083823    0.059182686293370014    0.06419943192619482    0.06816330779850496    
  0.06968920305898946    0.06816371647378114    0.06419928467839404    0.059181270706154594    0.05446072292942381    
  0.05090490356900377    0.048751548626375804    0.04769628572034824    0.05774716454768388    0.05896959972932967    
  0.05897017702717244    0.05774638682020911    0.055948671560469655    0.054460491754998806    0.05384776051541512    
  0.054173169991743333    0.055007558707896205    0.0556479278182909    0.055648180391973806    0.05500722175784654    
  0.054173688277121226    0.053848796537430035    0.05446071774066699    0.055947816489141385    0.05774716454768388    
  0.07259074646354013    0.07802970303357208    0.08012939159528062    0.07802983091124882    0.07259029536729039    
  0.06570297377068836    0.05918227745738115    0.054173826161702375    0.05097269260730841    0.049280922762212374    
  0.04875087219138283    0.04928074201112711    0.050972620162155695    0.05417371183410558    0.05918125675063801    
  0.06570298513521966    0.07259074646354013    0.09136306864295735    0.10473232049609384    0.11291806599380616    
  0.1129170154289248    0.10473335773075264    0.09136282080540536    0.0767906542543402    0.06419921345145624    
  0.05500747839023953    0.049280371114479325    0.04659766220549017    0.046597896852894914    0.049280754570459426    
  0.055007226930715594    0.06419928945556451    0.07679164150340816    0.09136306864295735    0.11084811770543412    
  0.1361832637034556    0.15597100805183842    0.1635303539173651    0.1559703528576299    0.13618362879533458    
  0.11084982113868083    0.08684610032535922    0.06816354338377875    0.05564840383126182    0.048751250349229114    
  0.046597673165583504    0.04875084806010982    0.05564817288442416    0.06816370926468313    0.08684577349230571    
  0.11084811770543412    0.12599329904981948    0.16521498419670247    0.20139541840974157    0.22317831698598756    
  0.22318255739185425    0.20139386903516013    0.1652150313156094    0.12599068520507875    0.09299643852892775    
  0.06968823233124775    0.055648414610759214    0.04928036873011808    0.04928093825653008    0.05564793012617471    
  0.06968920128013255    0.09299499036835648    0.12599329904981948    0.13179867927639358    0.18292792722236767    
  0.23616371197052657    0.275478163790741    0.28960911267838313    0.27547678051352614    0.23616665409151705    
  0.18292851317227113    0.13180058584242696    0.09299645340723474    0.06816353617533143    0.05500749740054689    
  0.050972658082372335    0.05500757496446917    0.06816330288108295    0.09299643181024946    0.13179867927639358    
  0.12599228035023236    0.18292836880929722    0.2491428207330754    0.3045975787209755    0.33330739260077225    
  0.3333067293315755    0.3045957270588356    0.24914181616665693    0.1829285027593378    0.12599065910453255    
  0.08684612656477032    0.06419920590907094    0.05417381581793368    0.05417317571321221    0.06419941538491371    
  0.08684541194479051    0.12599228035023236    0.11084903974316823    0.16521454389467927    0.2361665795493123    
  0.3045976261700341    0.34713585639450334    0.35968190892166363    0.3471382890221469    0.3045957199468629    
  0.23616664241828456    0.16521503125309367    0.11084980634569538    0.0767906608130894    0.0591822624759942    
  0.05384776270923269    0.05918267579846909    0.07679080087317877    0.11084903974316823    0.09136383638092839    
  0.13618346677098161    0.2013946036640951    0.27547744650283135    0.3333072553849245    0.359683818209774    
  0.359681915065295    0.33330670675353286    0.27547680523897106    0.20139387208988907    0.1361836482859092    
  0.09136278533589563    0.06570297692902975    0.054460490487302185    0.05446108972858388    0.06570167317520088    
  0.09136383638092839    0.07259089105468922    0.1047329905353545    0.15597005835914274    0.22318265914544883    
  0.28960964721349897    0.3333072503418408    0.34713585367223404    0.33330740271347664    0.28960916788777913    
  0.22318254740851348    0.15597034548082186    0.10473336064050473    0.07259030136193412    0.05594868422583218    
  0.05090417126700801    0.05594858575133168    0.07259089105468922    0.05774712974839598    0.07802866958257156    
  0.1129185020500179    0.16352974095201483    0.22318269880036498    0.2754774221236477    0.3045975540961423    
  0.3045975763709491    0.2754781277932157    0.2231783527405148    0.16353035274592462    0.11291701008342811    
  0.0780298337148904    0.057746393018102075    0.048751769244799854    0.048751221973547705    0.05774712974839598    
  0.04769640495242039    0.05896998200695175    0.08012968296657651    0.1129184767727938    0.15597009184356672    
  0.2013946176125912    0.23616656747983544    0.24914283262071818    0.2361636801620126    0.20139542104913258    
  0.15597103152965272    0.11291804809019737    0.08012938768545756    0.05897017965595091    0.04769648460143118    
  0.04423303930210252    0.04769640495242039    0.04207906406448528    0.04738007943382188    0.05896998089869936    
  0.07802865300069897    0.10473298764697081    0.13618346242294443    0.16521455360312068    0.18292839524123877    
  0.1829278910335196    0.16521500212933737    0.13618327703183966    0.10473230834179555    0.07802967533630838    
  0.058969595630315605    0.04738007414484474    0.04207904145487863    0.04207906406448528    0.040297356385875165    
  0.042079069766795894    0.04769642281937641    0.057747139861332994    0.07259089280736516    0.09136381828673105    
  0.11084904493437156    0.1259923060215387    0.1317986847016885    0.12599332605101865    0.11084813022657282    
  0.09136310065590945    0.07259074409254042    0.057747177360079505    0.04769628813731351    0.04207918496214347    
  0.040297356385875165    0.04477318982428516    0.047182759870195226    0.054925578244401974    0.0691129835595998    
  0.09050552190771063    0.11810110245165968    0.1472383014674153    0.17001113747575594    0.17872203497224137    
  0.17001404787394941    0.14723289299590772    0.11810069529146967    0.09050923903208173    0.06911232139329797    
  0.05492466653081818    0.047182635112100045    0.04477318982428516    0.04718262830782718    0.04718357421321951    
  0.050017549655519224    0.05613352306404559    0.06605925924530302    0.07966451530046076    0.09532956847123177    
  0.10972074460090575    0.11858821456381942    0.11858522371689319    0.10971900712858687    0.09533420196512195    
  0.07966420528144313    0.06605691776448132    0.05613338747745183    0.05001953692480015    0.04718262830782718    
  0.054924669126688835    0.05458572384724901    0.054925360939275025    0.056134736170127146    0.05875083338880013    
  0.06323193569829111    0.06931132386752044    0.07583512479911769    0.08102518423039264    0.08303365977928362    
  0.08102718538814767    0.07583585423651786    0.06930835046979855    0.063231287628145    0.058754379471551016    
  0.05613338291678185    0.054924669126688835    0.06911231309992948    0.07110051704417646    0.07109914268522906    
  0.06911176805794556    0.06605939434359469    0.06323188588510946    0.061554558402892506    0.06121936439453705    
  0.061727054143534306    0.06226430274944143    0.062263821361204764    0.061726191380303004    0.06121807452457847    
  0.06155833554773026    0.06323126876248931    0.06605690709928595    0.06911231309992948    0.09050925150098142    
  0.09901335902540878    0.10228744982375851    0.09901514347778446    0.09050477994097618    0.07966479799232103    
  0.06931097120186702    0.061217827595121045    0.055895987747844614    0.05303573170010211    0.05215062830700443    
  0.05303557287849738    0.055897235317245726    0.06121810505737466    0.06930834014318746    0.07966421325233292    