#     DFTpy    
  CRYSTAL 
    
  PRIMVEC    
  4.3056199588270045    1.8013118378954485e-05    -4.516220689655173e-13    
  -2.1527943795944777    3.728785377771269    -8.836206896551725e-12    
  -7.426372413793104e-13    -1.720540965517241e-11    7.079108211648202    
  PRIMCOORD    
  4    1    
  Si    1.0718343391443493e-05    2.4858627467719754    3.9811051991267914    
  Si    2.15281486088409    1.242940644087172    0.44155104102890386    
  Si    1.0718345009037577e-05    2.4858627467709495    6.637557118342045    
  Si    2.1528148608910773    1.2429406441147874    3.098003064780089    
  BEGIN_BLOCK_DATAGRID_3D    
  3d_datagrid_density    
  BEGIN_DATAGRID_3D#0    
  19    19    31    
  0.0    0.0    0.0    
  4.3056199588270045    1.8013118378954485e-05    -4.516220689655173e-13    
  -2.1527943795944777    3.728785377771269    -8.836206896551725e-12    
  -7.426372413793104e-13    -1.720540965517241e-11    7.079108211648202    
  0.02739153811166664    0.028964792803521447    0.034357521792271355    0.04583355033813989    0.06773713168497479    
  0.10619791509784361    0.16521582183440156    0.23857080390252064    0.3038760445136385    0.330596457848466    
  0.30387605074708024    0.23857079812537174    0.1652157922966907    0.10619792082288644    0.06773711730333201    
  0.04583355565785199    0.03435751278946507    0.02896478557473222    0.02739153811166664    0.028964796813707536    
  0.02896554320810763    0.03245505093081018    0.04099063135316593    0.05813349800377554    0.0897541125403189    
  0.14223746048857988    0.21550653048933546    0.2939860313958915    0.34666626719803706    0.3466424434784353    
  0.2940047082675806    0.21554338768198414    0.14220551817239097    0.08975103141007153    0.058141594776965996    
  0.040989348467817426    0.03245620276263568    0.028964796813707536    0.03435752456694908    0.03245504399790678    
  0.03435737499333322    0.0409893499319973    0.055520244909170506    0.08386302168648492    0.13395827277018027    
  0.2107031499387131    0.3034932105597848    0.38071856941751736    0.4103062633801426    0.3807240889320835    
  0.30343550040803663    0.2107143676438175    0.1339957448610953    0.08385837351871411    0.055516086920957275    
  0.040989345761683386    0.03435752456694908    0.045833553763564974    0.04099062599851595    0.0409893539055398    
  0.04583468184991426    0.05813324877701203    0.08385835741432597    0.13232836103390838    0.21191215091876708    
  0.31445876717910964    0.4013186796656792    0.44090511548653677    0.44094059161068616    0.40136487425313677    
  0.31447051521293856    0.21189730436186563    0.13231276103360076    0.08385837577134518    0.05814158545778095    
  0.045833553763564974    0.06773713039058081    0.058133498251386    0.05552022970285657    0.0581332465510544    
  0.0677456733471317    0.08974988984319614    0.13397337945751966    0.2119003585991865    0.3185027466032533    
  0.4003479700976536    0.40980859580963086    0.39694729727341554    0.4097163349880739    0.4003714521695489    
  0.3185082083427679    0.2118973307826534    0.1339957683091331    0.08975101464260284    0.06773713039058081    
  0.10619791270220565    0.08975411951988661    0.08386302089874188    0.08385835989479636    0.08974990835177117    
  0.10619334245688557    0.1422388679760874    0.21069869718748885    0.31446824841045995    0.4003869393335162    
  0.3829213244440881    0.31721452122633037    0.31728892380395274    0.38291127018025545    0.4003714059528758    
  0.31447050051557796    0.21071434918118145    0.14220547344811182    0.10619791270220565    0.1652157910628358    
  0.1422374475236024    0.13395826926578813    0.13232832824653026    0.13397335904713747    0.14223885109860027    
  0.1651896975266278    0.21555595019210463    0.30345075915021197    0.4013649909480632    0.4097169542611217    
  0.3172897163252709    0.2648122680479393    0.3172889392979839    0.409716293700642    0.4013649133815111    
  0.30343553660686806    0.21554340969761698    0.1652157910628358    0.23857080389321927    0.21550656201335727    
  0.21070315800524766    0.2119121384173404    0.21190033550179033    0.21069866226460468    0.21555593008698262    
  0.23855619453798882    0.2940114157496491    0.3807246564545212    0.4409337602332433    0.39693907396717176    
  0.3172896619567875    0.3172145443794915    0.3969472610882799    0.4409405781754224    0.38072409153685166    
  0.29400468372960287    0.23857080389321927    0.3038760795951487    0.29398604420788843    0.30349318164281053    
  0.3144587718191491    0.3185026966050704    0.31446823028573684    0.3034507558810798    0.2940113993065358    
  0.30389636619309646    0.3466481222845379    0.41033248422504476    0.4409338165836954    0.40971692567272894    
  0.38292136772634017    0.4098085528170126    0.44090519370470616    0.41030623237686487    0.3466424515326399    
  0.3038760795951487    0.3305964436693329    0.34666630776536134    0.3807185802613183    0.40131868145018185    
  0.40034795055077055    0.40038692055445974    0.40136494117335686    0.3807246490061525    0.3466480583471908    
  0.3306284383459881    0.3466481307062629    0.380724625614285    0.4013649413847968    0.4003869454429601    
  0.40034795358051994    0.4013187323401577    0.3807185640195538    0.34666627990400567    0.3305964436693329    
  0.3038760525178309    0.346642475474872    0.41030622354403523    0.44090512263668263    0.40980858479550997    
  0.3829213736311353    0.40971693518459146    0.440933733185987    0.41033246870028867    0.3466480644782276    
  0.3038963853381443    0.29401140448039415    0.3034507490815608    0.3144682920240376    0.3185027173733757    
  0.3144588081971983    0.30349317022518624    0.2939860075630427    0.3038760525178309    0.23857082594846277    
  0.2940047129074037    0.3807241045394043    0.4409405569427684    0.3969472549994839    0.31721454540347804    
  0.31728971359632513    0.39693907697752046    0.44093376768908416    0.3807245759456401    0.2940113860919559    
  0.23855623617969268    0.21555593983856125    0.21069869384272316    0.2119003508733483    0.21191216035463262    
  0.2107031384402819    0.2155065542328947    0.23857082594846277    0.16521580293628574    0.21554341961300555    
  0.30343550924512475    0.4013648954942312    0.4097163347552611    0.3172889420422129    0.26481231368274843    
  0.31728971196947214    0.40971688783632443    0.40136492877820223    0.3034507956768639    0.21555593124087552    
  0.16518969544761208    0.14223885818871926    0.13397333683749235    0.13232834955953887    0.13395825069268275    
  0.142237451650929    0.16521580293628574    0.10619792539825512    0.14220552353173066    0.2107143849427799    
  0.3144704680711914    0.40037145316833633    0.3829112569291286    0.31728898314436704    0.31721455009848226    
  0.3829213822243695    0.400386958477849    0.31446825016612556    0.21069869788545378    0.14223884482066    
  0.1061933669759867    0.08974989190666663    0.08385836631660938    0.08386300143765674    0.08975410679217956    
  0.10619792539825512    0.06773713122152647    0.08975102401828706    0.1339957753005409    0.21189730023251074    
  0.31850819466821806    0.4003714623596244    0.40971633166568927    0.39694728462857765    0.4098086088319497    
  0.4003479370843788    0.31850272733502966    0.21190035921616407    0.13397335872044167    0.08974991077698988    
  0.06774565316894605    0.05813325581937477    0.055520225508420375    0.058133488441360674    0.06773713122152647    
  0.04583354525876654    0.05814159089093165    0.08385838554889002    0.1323127357905621    0.2118972989332088    
  0.3144704742640066    0.4013649254668475    0.440940551086182    0.4409050871649446    0.4013186828609237    
  0.31445879783208014    0.2119121608509955    0.13232833190511034    0.08385836205389258    0.0581332438524964    
  0.04583469418136373    0.0409893410938388    0.040990629880392496    0.04583354525876654    0.03435752088968853    
  0.04098935570391634    0.05551608874769988    0.08385836798830841    0.13399575371866626    0.21071433724781174    
  0.30343551392031587    0.3807240939847877    0.41030621517882665    0.38071854670467636    0.3034932083244799    
  0.2107031507809816    0.13395823183961497    0.0838630448897387    0.05552023311723749    0.04098935548618245    
  0.034357370226269515    0.032455042165443745    0.03435752088968853    0.02896479963790268    0.032456214234853134    
  0.040989353254357014    0.05814159128698524    0.08975103359489545    0.14220548828484536    0.21554338826830222    
  0.2940046769734354    0.3466424110963326    0.3466662847247892    0.2939860102210862    0.21550655598944402    
  0.14223746190864547    0.08975412011563659    0.05813349987161955    0.04099063871109063    0.03245504538406798    
  0.028965541392587456    0.02896479963790268    0.02739153811166664    0.028964792803521447    0.034357521792271355    
  0.04583355033813989    0.06773713168497479    0.10619791509784361    0.16521582183440156    0.23857080390252064    
  0.3038760445136385    0.330596457848466    0.30387605074708024    0.23857079812537174    0.1652157922966907    
  0.10619792082288644    0.06773711730333201    0.04583355565785199    0.03435751278946507    0.02896478557473222    
  0.02739153811166664    0.027173366639407098    0.02868035128822907    0.03385730413540709    0.04486631617572748    
  0.06575396515502888    0.10213477541344707    0.1576006910351886    0.22616976122534796    0.28697393079344835    
  0.3117820274449599    0.28702139999723075    0.226178587087916    0.15754344496817585    0.1021445325548826    
  0.0657708400138015    0.04486349330157922    0.033857643271900724    0.02868016700661345    0.027173366639407098    
  0.028680177562161905    0.028681206319331975    0.032319495754293416    0.04126701182325539    0.05932010751253722    
  0.0926210190032107    0.14777514098863528    0.22461818631784042    0.30608751164220177    0.3599230018931786    
  0.3598656682421248    0.3060780101858935    0.22469326334049614    0.1477651322972366    0.09259995931039733    
  0.05932743027418058    0.04126554140791125    0.03232119763892421    0.028680177562161905    0.0338576500618747    
  0.031739814709905285    0.03385756935086569    0.041265285248920314    0.05759104289476549    0.08971311455676152    
  0.14687604760111592    0.2338687208045761    0.33525456253345254    0.4132938945803689    0.44088723955018844    
  0.41331776127210096    0.3351701739533482    0.23388442681385083    0.1469119274720745    0.08970715134612788    
  0.05759253294672154    0.04126553743386845    0.0338576500618747    0.04486349214680022    0.039188974491256856    
  0.039183559114282666    0.04486886019946448    0.05931983417411014    0.08971453004775892    0.14754807008505086    
  0.24174697936191658    0.35355146072949206    0.42459695106097844    0.4365465512453204    0.43661141965761335    
  0.4246749718824116    0.35355779917268215    0.24169397820093905    0.14756922545467124    0.08970716104890741    
  0.0593274197413046    0.04486349214680022    0.06577084867993058    0.053963591849938874    0.05074644648660071    
  0.05396274658346605    0.06577280851272331    0.09259643552942486    0.14691125021106646    0.24170133204609895    
  0.35793329291407744    0.40150354284510514    0.3392389836040162    0.29530866227127306    0.33909550060641963    
  0.4015245292322143    0.35799308126090457    0.24169398499459482    0.14691192727702776    0.0925999533079628    
  0.06577084867993058    0.10214453403881324    0.08088876118588141    0.07290332328030683    0.07289580225757641    
  0.08089713971399017    0.1021342209534287    0.14778392810276963    0.23386026527833206    0.35357648651306134    
  0.4015673187528825    0.2852694980547424    0.16928929188042688    0.16936486637855022    0.28527668055409955    
  0.40152448450237577    0.3535578082842752    0.23388441428026163    0.14776512671464226    0.10214453403881324    
  0.15754345935214703    0.125014086126337    0.11138965072619778    0.10803209074964304    0.11139113122552138    
  0.12501579770068338    0.15754177010174153    0.22469754724258983    0.3351719694507124    0.4246754149453205    
  0.3390960538543054    0.16936488321700166    0.10806661208628517    0.16936492624271085    0.339095483482829    
  0.4246750182003381    0.33517020174297835    0.22469329591303563    0.15754345935214703    0.2261786077824839    
  0.18589702206383363    0.16985028818532044    0.16537014821020193    0.1653813817934208    0.16984087610181342    
  0.18591950220593004    0.22616351906306578    0.30611190855591935    0.41330709082006595    0.43657124243918705    
  0.2953162206968332    0.16936486180960184    0.16928932069557107    0.295308630075976    0.4366113837319785    
  0.413317762812156    0.30607799776945943    0.2261786077824839    0.2870214259391688    0.2509233202438738    
  0.2414303661860471    0.24280544109521887    0.24468399004484623    0.24280936502388362    0.241424997120338    
  0.25094000897840857    0.28702234921702463    0.35986193115193577    0.44095730583586945    0.4365712651541169    
  0.3390960772281819    0.28526951891164576    0.33923893961997287    0.4365465359189286    0.4408871854126465    
  0.3598656900781503    0.2870214259391688    0.3117820274972589    0.294717804419886    0.30348964569245185    
  0.31965106070581223    0.32894575945396376    0.32896872546172723    0.31964782878030096    0.30350970167529184    
  0.29470782045153066    0.3118308278152448    0.3598619367831711    0.4133071007094086    0.42467539046495956    
  0.4015673168628348    0.4015034903370981    0.4245969725200549    0.4132938614714188    0.359923030595743    
  0.3117820274972589    0.28697397800309804    0.294713936235092    0.3282879477436283    0.3661446790631219    
  0.38377168218943347    0.3855072116322709    0.38375703380798376    0.36615515084941913    0.32829877632735033    
  0.29470782134158086    0.28702236074967735    0.30611190451551473    0.33517193976832704    0.35357651128119294    
  0.3579332827756462    0.3535515058679957    0.33525455885647293    0.30608752013204926    0.28697397800309804    
  0.22616977606463035    0.250968093411509    0.3034897166209886    0.3661547207032731    0.39986418708560345    
  0.39849277084678786    0.39850764465785155    0.39986675020113377    0.36615521679518725    0.30350968657518407    
  0.2509400081563565    0.22616353743504855    0.2246975242181706    0.2338602598877568    0.2417012963407789    
  0.2417469929366645    0.23386869243150485    0.22461818290481875    0.22616977606463035    0.15760067062677857    
  0.1859025806001555    0.24139006003428917    0.31965482072309165    0.3837546199720032    0.39850723737246446    
  0.39275705769001656    0.3985076440479276    0.3837569913938912    0.3196478258657659    0.24142504243300683    
  0.18591948892154472    0.1575417464455439    0.14778393991967756    0.1469112134708943    0.14754806802631862    
  0.1468760289102697    0.14777512543798826    0.15760067062677857    0.10213476133938497    0.12496263866369614    
  0.16985130395217143    0.24283902984114195    0.3289577410519534    0.3855043090793133    0.39850726967371664    
  0.3984927696187054    0.38550722946144383    0.32896877540670993    0.24280938276485362    0.1698409311648233    
  0.1250157967213972    0.10213423834942786    0.09259641928927313    0.08971452981443785    0.08971309686844886    
  0.09262102274446242    0.10213476133938497    0.06575395325051384    0.08089526594045363    0.11143726050857129    
  0.16537390276983976    0.24465477068827415    0.3289577133092047    0.38375462054157405    0.3998641764479228    
  0.38377168380291055    0.32894578679408604    0.24468402825888683    0.16538139503288207    0.11139114516405    
  0.08089713490658015    0.06577280766435957    0.059319832171654006    0.05759103226770342    0.05932009643903555    
  0.06575395325051384    0.04486630723984261    0.053979398723888704    0.07289837341226227    0.10798984385653503    
  0.16537389774774092    0.2428390259312652    0.3196548099850525    0.36615469978402365    0.366144658967921    
  0.31965109139673686    0.24280548101041843    0.16537014857013083    0.1080320805515808    0.07289580863196471    
  0.05396273972003787    0.044868864743875726    0.041265273299425136    0.04126701474967952    0.04486630723984261    
  0.033857304505104546    0.0391857812559655    0.05073211422225988    0.07289835853715938    0.11143723909526553    
  0.16985128448163847    0.2413900621289424    0.3034896966153888    0.3282879118337048    0.3034896108029801    
  0.24143037850228008    0.16985028592057952    0.11138963381620709    0.07290333159431579    0.05074645003178086    
  0.03918356030766023    0.03385756665117631    0.03231949322046024    0.033857304505104546    0.028680360241025687    
  0.03174059106972869    0.039185784108413536    0.05397939725128483    0.08089526684392011    0.12496264663635566    
  0.1859025755619963    0.25096806697883356    0.29471388739154003    0.29471778182480435    0.25092330894675213    
  0.18589701509793957    0.12501408188621158    0.08088877644199627    0.05396358503576413    0.03918898323629041    
  0.03173981066139497    0.028681201393845814    0.028680360241025687    0.027173366639407098    0.02868035128822907    
  0.03385730413540709    0.04486631617572748    0.06575396515502888    0.10213477541344707    0.1576006910351886    
  0.22616976122534796    0.28697393079344835    0.3117820274449599    0.28702139999723075    0.226178587087916    
  0.15754344496817585    0.1021445325548826    0.0657708400138015    0.04486349330157922    0.033857643271900724    
  0.02868016700661345    0.027173366639407098    0.026540399320717285    0.027884787932439238    0.03248685753703444    
  0.04218150718231166    0.060285838893738876    0.09119491287657197    0.13743015968139047    0.19375647574074348    
  0.243067198165298    0.26300291315564894    0.24312243310835607    0.19376880112021003    0.1373660898508497    
  0.09120373527424169    0.06030916111216756    0.04217735140300027    0.03248773253276744    0.027884528734381978    
  0.026540399320717285    0.027884538247783485    0.027885491714084006    0.031386497353899534    0.03993091917399964    
  0.05705753042174348    0.0883188829625479    0.1393945587222029    0.20957881943559087    0.28284184622997804    
  0.3304844429112479    0.3304216688147104    0.2828220728509795    0.20966438061110193    0.1393898568131169    
  0.08829084270239555    0.057065939392167385    0.039929652344677664    0.03138832548113832    0.027884538247783485    
  0.03248774171847268    0.030349391042239333    0.03248732407698401    0.03993040024106342    0.05625608044218773    
  0.08829743687828634    0.14509135636558806    0.2305603914929161    0.3274476236922177    0.39852548984573166    
  0.4224658875193913    0.39856008904917445    0.32735681131527616    0.23056939172792612    0.14513717714862348    
  0.0882885650280794    0.05625952277756386    0.03992964953303032    0.03248774171847268    0.042177339314092795    
  0.036329875026424124    0.036323356282121445    0.042183613977147566    0.0570564282020072    0.0882989825097986    
  0.14781762718591407    0.24418155326835075    0.3539277798057991    0.41296002661332726    0.4119974468308129    
  0.41205738599984404    0.413042089940874    0.3539476254464773    0.24410935409307236    0.14784876871820155    
  0.08828856529572365    0.0570659321737156    0.042177339314092795    0.06030916358553884    0.04796908451873392    
  0.04460768729418217    0.04796898046605133    0.06030953379997939    0.08828937111805629    0.14513504737447427    
  0.24412479618544666    0.3602586225301883    0.38599298815614286    0.3008815937691225    0.25005655684456685    
  0.3007491079676116    0.38598982887397865    0.3603475504034131    0.24410936841031347    0.14513717843834562    
  0.08829084310612134    0.06030916358553884    0.09120374122127735    0.06872372058446723    0.06016491863618425    
  0.06015565894975149    0.06873357578876776    0.09119174143045894    0.13940536331635012    0.2305450117178474    
  0.3539633703734003    0.3860511451484647    0.2432120560537027    0.12454507261627804    0.12459570394980592    
  0.24324009792085047    0.38598978507291837    0.35394763753964426    0.23056936399169697    0.13938981768053013    
  0.09120374122127735    0.13736612707547685    0.10192825475518286    0.08654052258504295    0.08253677458437778    
  0.08654145084211369    0.10192880203938948    0.13736816289124928    0.209666495861675    0.3273564343822911    
  0.41304293251505353    0.30074814153747487    0.1245956201931671    0.06993372485265885    0.1245957322462093    
  0.3007490966935428    0.4130421409137953    0.32735680725806016    0.2096643966273462    0.13736612707547685    
  0.1937688081862753    0.14669436789792722    0.12566168509821732    0.11830882638654179    0.11832188024623326    
  0.12564989817679403    0.14671275138930343    0.1937520186711738    0.28285534884661007    0.39854978240771705    
  0.4119963706705263    0.2500845680148238    0.12459560002436225    0.12454506456014    0.25005655055505843    
  0.41205749721554513    0.39856006277480244    0.28282207204542664    0.1937688081862753    0.24312241289037442    
  0.19378365774208203    0.17288290378972784    0.16656946766276542    0.16579729817782954    0.1665715467216398    
  0.1728848435609916    0.19379045142673126    0.2431290414747551    0.3304061239254091    0.42256189696269025    
  0.4119963971005277    0.30074815214422707    0.24321203681292333    0.300881572033193    0.4119975507736978    
  0.4224658824571556    0.3304216648514749    0.24312241289037442    0.2630029054697433    0.22517969050762504    
  0.21386595869792704    0.2165766731772987    0.22143411957471298    0.2214509965971124    0.2165652361650155    
  0.21388688519365795    0.22516767564221102    0.26304953205906545    0.33040613703347693    0.3985498263253647    
  0.41304288008514933    0.38605117212871237    0.38599299448808616    0.4129600700971677    0.39852548725815595    
  0.33048446405961857    0.2630029054697433    0.24306722526127778    0.22517969515885614    0.23035341430609138    
  0.2491655985200808    0.2671400632171511    0.27395505066469766    0.2671421770334093    0.2491663596136661    
  0.2303646424997712    0.22516770254060883    0.24312906723819783    0.2828553428615516    0.32735639731445015    
  0.3539634002039528    0.3602585998434429    0.3539277950881245    0.3274475875780937    0.28284183351484427    
  0.24306722526127778    0.19375649883373408    0.19382754053036036    0.21386745953347736    0.2491675167121679    
  0.2847532523247921    0.30480923859740466    0.304806017719606    0.2847613705413755    0.24916639092652754    
  0.21388685094636692    0.1937904610071203    0.19375204543753258    0.20966648056573692    0.23054504406846119    
  0.24412475307091597    0.24418155296182614    0.230560366314366    0.20957880574450263    0.19375649883373408    
  0.13743014497169148    0.14669985910523445    0.1728448627473031    0.21657356599324254    0.26713893618166434    
  0.3048058985594109    0.3177551892334466    0.3048060504906265    0.26714216616287767    0.2165652388376879    
  0.17288486718107388    0.14671275167465722    0.13736813371282894    0.1394053838980326    0.14513499413724534    
  0.1478176243147554    0.14509134929642287    0.13939453119848413    0.13743014497169148    0.09119492467955344    
  0.10187343609465137    0.1256571228241181    0.1666061594456208    0.22143939572139593    0.273958928413812    
  0.304805945809201    0.30480924669453835    0.2739550485278602    0.2214510086771595    0.1665715808609198    
  0.1256499319051285    0.10192879272741935    0.09119174699769399    0.08828936806487127    0.08829899135835222    
  0.08829742095463873    0.08831888560185129    0.09119492467955344    0.060285836232695324    0.06872953192813057    
  0.0865896982420302    0.118313883839866    0.16576474118597592    0.22143942998639463    0.2671389584208562    
  0.2847532239749511    0.2671400844994459    0.2214341117590397    0.16579730349905825    0.11832189230978866    
  0.08654144967728016    0.0687335695157437    0.06030951716280005    0.05705643553576068    0.05625606991098401    
  0.05705752823817608    0.060285836232695324    0.04218149938908372    0.047988537920262996    0.06015921700319265    
  0.08249120959160226    0.11831388155104036    0.16660615455115493    0.21657358088169779    0.24916749609876584    
  0.249165632886539    0.21657670678742688    0.16656947770289454    0.11830882703631285    0.08253676811257779    
  0.06015567215593626    0.047968970785690346    0.042183610282562935    0.039930391938663386    0.03993091460748189    
  0.04218149938908372    0.032486860008666296    0.03632574692055039    0.044589733373636    0.0601591996266309    
  0.08658970060061136    0.1256571051551799    0.17284483524849822    0.21386743606144107    0.23035338108768771    
  0.2138659442069396    0.17288291494684419    0.12566168145733744    0.08654050273891276    0.060164935282600085    
  0.04460768529068918    0.036323357701187005    0.03248731911513805    0.03138649592185169    0.032486860008666296    
  0.02788479354146694    0.030350278009089966    0.03632574689066968    0.0479885389774742    0.06872953436411697    
  0.10187341473005349    0.14669985618870063    0.19382750513750302    0.22517967700551692    0.2251796471803373    
  0.19378365721649654    0.1466943915018966    0.10192823638297242    0.0687237271386612    0.04796907954321815    
  0.036329889027252746    0.030349381423966443    0.02788548375893871    0.02788479354146694    0.026540399320717285    
  0.027884787932439238    0.03248685753703444    0.04218150718231166    0.060285838893738876    0.09119491287657197    
  0.13743015968139047    0.19375647574074348    0.243067198165298    0.26300291315564894    0.24312243310835607    
  0.19376880112021003    0.1373660898508497    0.09120373527424169    0.06030916111216756    0.04217735140300027    
  0.03248773253276744    0.027884528734381978    0.026540399320717285    0.025646696088427186    0.026762757015552432    
  0.030542602399604702    0.03837692126742515    0.052706182042304026    0.07655759332283882    0.11126285828886051    
  0.15249719415708493    0.1879235281006642    0.20208207161330988    0.18795817418624497    0.15250357415991161    
  0.11121734362275393    0.07656766915998961    0.05271927653952767    0.038375033271076046    0.03054326227399626    
  0.026762954313665047    0.025646696088427186    0.02676296130315845    0.026763056482453786    0.029847398120705634    
  0.03727014743429082    0.051933213910306364    0.07819934929062336    0.12019702600771529    0.17676545728487308    
  0.23498799483538235    0.2726518321165407    0.27260964798390075    0.23498143069248206    0.17682918068155884    
  0.12018894271800339    0.07818516095902282    0.05193805703356936    0.03727011664499127    0.029847960747601987    
  0.02676296130315845    0.030543269570976094    0.02859968068655926    0.03054313603120491    0.03726982299211785    
  0.051887255581209844    0.08018862378387127    0.12962054129300177    0.2033226212917288    0.2875107787568626    
  0.3516364822564932    0.3743788516303964    0.3516546013397037    0.28743797095815615    0.2033418663377525    
  0.12964613570282021    0.0801847066397488    0.05188937293966571    0.0372701161396614    0.030543269570976094    
  0.03837502609474267    0.0330333534270023    0.03302971671760783    0.0383779984631045    0.051933065233180656    
  0.08018977105288806    0.1335377700001904    0.22018623855072886    0.3237190555298284    0.3927111679847099    
  0.40851160654313423    0.40857075926070985    0.39278744541199284    0.3237184110784699    0.22014484419674493    
  0.13355886124857252    0.08018469744948174    0.05193805490770765    0.03837502609474267    0.05271928608712991    
  0.041484071147377975    0.03840691061777863    0.041483320919460887    0.05272087029941458    0.07818032497103654    
  0.12964948490903844    0.22014766001183547    0.3351122509126396    0.39093284474807205    0.347607850213201    
  0.310880901520381    0.34746660824211517    0.3909620579697379    0.3351611120959735    0.22014487782658196    
  0.12964613235657857    0.0781851653563644    0.05271928608712991    0.07656766512144782    0.05616662415041985    
  0.04836283335029219    0.04835572036246079    0.05617453254758343    0.07655741492433438    0.12020271231725445    
  0.20331778310943519    0.32373682013918276    0.39099133986179785    0.3056161438107736    0.20011166371092817    
  0.20020093051406854    0.30561213845372964    0.3909619952125401    0.3237184509448395    0.20334185230638416    
  0.12018891726465568    0.07656766512144782    0.11121735492416636    0.07897822406797585    0.06486012757938991    
  0.06109186004735515    0.06486011945233515    0.07897857416477308    0.11121862021839678    0.17683022892282269    
  0.2874387183994259    0.3927875449320567    0.34746481735615736    0.20020025472092554    0.13931215112710485    
  0.20020097206773727    0.3474665840012892    0.39278750661635786    0.2874379985408187    0.17682918436450415    
  0.11121735492416636    0.15250356851804292    0.10881353393695124    0.08860691663154877    0.08111663122105689    
  0.08112595567677812    0.08859900133208921    0.1088263804752598    0.15248970060504577    0.2350081056376394    
  0.35163847046080376    0.4085411679063325    0.31087826675846425    0.20020022904374626    0.2001116574506066    
  0.3108808934898744    0.40857080613402474    0.35165458188995874    0.23498140634096515    0.15250356851804292    
  0.18795817555958425    0.13948327572918764    0.11651661098158386    0.10756196955890103    0.10553176917652239    