#     DFTpy    
  CRYSTAL 
    
  PRIMVEC    
  3.8511724137931034    0.0    0.0    
  0.0    3.8511724137931034    0.0    
  0.0    0.0    3.8511724137931034    
  PRIMCOORD    
  4    1    
  Si    0.0    0.0    0.0    
  Si    0.0    1.9255862068965517    1.9255862068965517    
  Si    1.9255862068965517    0.0    1.9255862068965517    
  Si    1.9255862068965517    1.9255862068965517    0.0    
  BEGIN_BLOCK_DATAGRID_3D    
  3d_datagrid_density    
  BEGIN_DATAGRID_3D#0    
  17    17    17    
  0.0    0.0    0.0    
  3.8511724137931034    0.0    0.0    
  0.0    3.8511724137931034    0.0    
  0.0    0.0    3.8511724137931034    
  0.05710138732101842    0.10541121084915647    0.270025549215482    0.39219758743625266    0.33419273303335667    
  0.23581938777942366    0.17248251806374884    0.14179691574512504    0.13293964135075867    0.14179695542197268    
  0.17248252890243018    0.23581935966935347    0.3341927200561874    0.3921976355820798    0.27002552145454417    
  0.10541120713673184    0.05710138732101842    0.10541121922350061    0.1614920798219437    0.31487173611717423    
  0.39633435685470286    0.32734425601029205    0.2354213856704713    0.17769733154263695    0.1498543901815143    
  0.14179692724724613    0.1498543639852159    0.17769732724248677    0.2354213814378636    0.3273442255750244    
  0.39633429359301076    0.3148717518141315    0.16149205456077603    0.10541121922350061    0.2700255476388309    
  0.3148717725397356    0.3916559769807928    0.38599444620349993    0.30915386801650047    0.23825492799179124    
  0.19669680873539516    0.17769730569259423    0.17248251014081428    0.1776973087059795    0.19669682634429222    
  0.2382549077253751    0.3091538960883159    0.385994504827293    0.39165600630696107    0.3148717278534969    
  0.2700255476388309    0.3921976938038402    0.39633439631994166    0.3859945458355349    0.3417236032121499    
  0.2886986345301053    0.25324142027645585    0.23825489106905454    0.2354213777749559    0.23581939724556505    
  0.2354213740243076    0.23825492875286855    0.2532414115869849    0.2886986213463097    0.3417236269693939    
  0.38599450538804364    0.3963343143781004    0.3921976938038402    0.3341926747710329    0.32734422381417155    
  0.3091539002424668    0.28869857202459615    0.27961322986865333    0.2886986009181177    0.3091539407237356    
  0.3273442224173281    0.33419268121712803    0.3273442383386486    0.309153928451579    0.28869857907808794    
  0.27961325206272664    0.28869860697849836    0.3091539029945472    0.3273442178215479    0.3341926747710329    
  0.2358193946949316    0.2354213718418348    0.2382548834435851    0.25324141782536974    0.2886986124522916    
  0.34172364729655935    0.3859945151052657    0.39633430487825566    0.3921976336540687    0.39633435557507024    
  0.38599446928618686    0.34172360522903156    0.28869856243309605    0.25324145478832816    0.23825495833791863    
  0.23542137546119282    0.2358193946949316    0.17248249820431968    0.17769732103994273    0.19669679330890386    
  0.23825492076817334    0.30915388739940713    0.38599447302863016    0.39165599392585154    0.3148717094694498    
  0.2700255636334594    0.3148717573945118    0.3916559637726148    0.3859944701560559    0.3091539028158167    
  0.23825492097766293    0.19669680291469716    0.17769730441102466    0.17248249820431968    0.14179694215772873    
  0.14985440911343967    0.17769730273077644    0.23542136925631757    0.3273442214340912    0.3963343804271993    
  0.3148717156725349    0.1614920708358445    0.10541122952443223    0.1614920601949322    0.31487175080028923    
  0.3963343686127603    0.32734426153489704    0.23542136980648257    0.17769730163533037    0.14985438884180824    
  0.14179694215772873    0.13293962381414884    0.14179694385726963    0.17248249777288904    0.23581936224184952    
  0.33419271010701257    0.3921976656569651    0.27002552590490625    0.1054111942938853    0.05710137931115706    
  0.10541121671830744    0.27002550299049627    0.39219761073964304    0.33419272754314594    0.23581934306321972    
  0.1724825016581322    0.14179691851858262    0.13293962381414884    0.14179692958065762    0.14985438114687488    
  0.17769733567039991    0.2354213708477513    0.32734425280247814    0.39633436490334323    0.31487176399744743    
  0.16149206906221808    0.10541120994100617    0.16149204145522456    0.3148717352727864    0.3963343862621022    
  0.32734422014521714    0.23542134463944836    0.17769733686760242    0.14985436208209774    0.14179692958065762    
  0.17248252550230248    0.17769731198917876    0.19669681082512086    0.23825486870759469    0.30915386966446207    
  0.38599451105380006    0.391656007796464    0.314871714380282    0.2700255366547022    0.3148717447877792    
  0.391655982884298    0.38599448004007386    0.3091538914285879    0.2382548999367004    0.19669681449624427    
  0.1776973232573909    0.17248252550230248    0.23581936209714122    0.23542141984739406    0.23825492118486985    
  0.2532414140395589    0.2886985802469077    0.3417236211387547    0.38599445683146116    0.39633434141693114    
  0.3921976737634812    0.3963343412573179    0.3859945400313149    0.3417235788900042    0.2886986009309265    
  0.25324142368019814    0.23825491663644438    0.23542139638131568    0.23581936209714122    0.33419273292697677    
  0.3273442148675034    0.30915389964485007    0.2886985732255955    0.2796132308134399    0.28869859706288914    
  0.30915391854691343    0.32734421311978174    0.3341927023174005    0.32734424677281654    0.30915387798431704    
  0.2886985713447184    0.2796132361272007    0.28869856292336366    0.30915388667842436    0.3273442135061    
  0.33419273292697677    0.39219764671895546    0.39633435476442436    0.385994495432314    0.3417235829774719    
  0.28869864284565433    0.2532414776281984    0.23825494414044815    0.2354213457974225    0.2358193442571682    
  0.23542137411616584    0.23825494097314254    0.25324142034669017    0.288698584131211    0.3417235939780845    
  0.38599453728962085    0.39633432778715544    0.39219764671895546    0.2700255482510739    0.314871714966826    
  0.39165597883800585    0.3859944588322882    0.30915388367159763    0.238254921782807    0.19669680901428452    
  0.1776973024462757    0.17248249820421194    0.1776973287993895    0.1966968320582216    0.23825488701340872    
  0.3091539039972964    0.38599451493974496    0.39165593709795693    0.31487173474177865    0.2700255482510739    
  0.10541123302491415    0.16149209594591923    0.3148717431351592    0.39633435383613597    0.32734419220303435    
  0.23542142255420062    0.1776973249802299    0.14985436434562208    0.14179694463842876    0.14985436701243043    
  0.17769732889529988    0.2354213932437018    0.3273442404868298    0.396334362761636    0.3148717162874497    
  0.1614920615861966    0.10541123302491415    0.05710138732101842    0.10541121084915647    0.270025549215482    
  0.39219758743625266    0.33419273303335667    0.23581938777942366    0.17248251806374884    0.14179691574512504    
  0.13293964135075867    0.14179695542197268    0.17248252890243018    0.23581935966935347    0.3341927200561874    
  0.3921976355820798    0.27002552145454417    0.10541120713673184    0.05710138732101842    0.10541123350203276    
  0.161492062348445    0.31487174987399247    0.39633431992104884    0.32734423164784066    0.235421359431063    
  0.17769734516846386    0.14985433417081986    0.14179694636174794    0.14985438695273112    0.17769732200486343    
  0.2354213773309576    0.32734424731161543    0.3963343505946228    0.3148717349402471    0.16149207161126342    
  0.10541123350203276    0.16149207569632998    0.21866631626066355    0.34999866075809993    0.3951882971545655    
  0.3195054369763817    0.23430118669039138    0.18207237457826586    0.1570730791290935    0.1498543650502447    
  0.15707305649410697    0.18207236316754422    0.23430115443506214    0.3195054608654251    0.3951882706673963    
  0.3499986569121187    0.21866628296744078    0.16149207569632998    0.31487175513781723    0.3499986450713131    
  0.4000871181287394    0.37585446353064367    0.2997977566139516    0.2351821107873364    0.19841634396605676    
  0.18207233690902147    0.17769731310687628    0.1820723719283291    0.19841636130955004    0.235182111046821    
  0.29979779429396713    0.3758545566017801    0.4000871599883858    0.3499986598697631    0.31487175513781723    
  0.39633434023364533    0.3951882980099385    0.3758545639133196    0.328987824972566    0.2789401719685597    
  0.24724934735143014    0.23518206901226085    0.2343011315041121    0.23542141365775662    0.23430113281507225    
  0.2351821463423173    0.24724935879228202    0.27894018382090796    0.32898787716899686    0.3758545422720405    
  0.39518827389162725    0.39633434023364533    0.32734422695868787    0.31950545774892214    0.2997977796241251    
  0.27894016817517864    0.26997613553182737    0.27894013533314543    0.2997978001540919    0.3195054049004373    
  0.32734418801548537    0.31950546614812353    0.29979781822729407    0.27894013826885    0.26997614591649843    
  0.27894017160887213    0.29979779208955776    0.31950544638556816    0.32734422695868787    0.23542139916556815    
  0.234301151162746    0.23518208909819202    0.24724935636863252    0.27894017469144583    0.32898789357898445    
  0.37585455802579887    0.3951882601026713    0.39633433141000474    0.39518831560432915    0.37585452794874075    
  0.3289878255187544    0.2789401247305695    0.24724935034168974    0.23518214823877626    0.23430113544438394    
  0.23542139916556815    0.17769734510366064    0.18207236995526152    0.19841631060578652    0.23518210692947403    
  0.29979779234218956    0.375854516824192    0.4000871272808747    0.3499986254096609    0.3148717515263435    
  0.3499986285285229    0.4000871271723718    0.3758545128634491    0.29979780454140426    0.23518211673802714    
  0.19841632773902726    0.18207235180773365    0.17769734510366064    0.14985438998279496    0.15707310639643823    
  0.18207235336425043    0.23430113954964152    0.31950543959522093    0.39518832376475027    0.3499986212834691    
  0.21866631335257355    0.16149206187502133    0.2186662948040799    0.3499986837822889    0.39518826621131437    
  0.31950548371021364    0.23430115310638358    0.18207234778997544    0.15707307678931298    0.14985438998279496    
  0.14179693452107078    0.14985436514149503    0.17769730105900813    0.2354213760320514    0.32734425418367213    
  0.3963343488665042    0.3148717550338879    0.1614920600899727    0.10541122466125454    0.16149207367391127    
  0.3148717349122251    0.3963343378191135    0.3273441864262724    0.23542135753335167    0.17769732912730382    
  0.14985436799799773    0.14179693452107078    0.14985438131249454    0.15707306530035128    0.1820723745700751    
  0.23430114138480743    0.3195054566897507    0.3951882965668376    0.34999866704165156    0.21866632420380872    
  0.1614920656978889    0.21866630191421843    0.34999865541762315    0.3951882941452445    0.3195054403277815    
  0.234301142327045    0.18207240110429543    0.15707308201111717    0.14985438131249454    0.17769732272043937    
  0.18207236744612965    0.19841636338736887    0.23518210123436012    0.2997977882997468    0.3758545755442564    
  0.40008713818549707    0.3499986180071544    0.314871735594851    0.34999863729714153    0.4000871578602113    
  0.37585454597187345    0.2997978006482774    0.23518208908308572    0.1984163575016569    0.18207235438429273    
  0.17769732272043937    0.23542136770980848    0.23430115479861294    0.23518209817951738    0.24724935168595566    
  0.27894019116320784    0.3289878654587957    0.37585450563008305    0.3951882302139258    0.3963343703460101    
  0.3951882845573094    0.3758545617320897    0.32898783250782215    0.2789401884098905    0.2472493534788917    
  0.2351821048806719    0.23430115301669285    0.23542136770980848    0.3273442150580634    0.3195054342600289    
  0.299797796708723    0.27894013638423365    0.26997613862710956    0.27894019112574414    0.2997978380726475    
  0.3195054732316422    0.3273442006109044    0.3195054520244382    0.2997977775925222    0.27894013773234744    
  0.2699761678548047    0.2789401461799135    0.29979780604416134    0.3195054734017842    0.3273442150580634    
  0.39633435027614605    0.3951883022954736    0.3758545179113984    0.32898783000810133    0.27894020157485183    
  0.24724939764071047    0.23518211927187838    0.23430113115080295    0.23542134541326165    0.2343011599183727    
  0.23518212025835591    0.24724936764193126    0.27894016992284715    0.3289878711402226    0.3758545974456114    
  0.39518823086456206    0.39633435027614605    0.314871754247225    0.34999862468376547    0.4000871542379631    
  0.3758545178942709    0.29979779548848423    0.23518210311423865    0.19841634976690717    0.1820723351094432    
  0.1776972934517218    0.1820723607162718    0.19841635560545345    0.23518206673691552    0.29979779069061346    
  0.37585455997445905    0.4000871180373428    0.3499986311155674    0.314871754247225    0.1614920944551199    
  0.21866634014183356    0.349998624472468    0.39518826715487937    0.319505424284226    0.2343011692042698    
  0.182072369546656    0.15707306686627004    0.14985439672481457    0.15707306922941483    0.1820723431235812    
  0.23430117284270258    0.3195054512601529    0.3951883139675386    0.349998612114811    0.21866631263529376    
  0.1614920944551199    0.10541123350203276    0.161492062348445    0.31487174987399247    0.39633431992104884    
  0.32734423164784066    0.235421359431063    0.17769734516846386    0.14985433417081986    0.14179694636174794    
  0.14985438695273112    0.17769732200486343    0.2354213773309576    0.32734424731161543    0.3963343505946228    
  0.3148717349402471    0.16149207161126342    0.10541123350203276    0.2700255617394    0.31487173099591825    
  0.39165597287821236    0.38599445969273327    0.30915389861487946    0.23825492032946663    0.19669680990760255    
  0.177697289422778    0.1724825122065447    0.17769731434543737    0.19669679741868032    0.23825488412151616    
  0.30915388435071856    0.38599448964474786    0.39165597835726706    0.3148717374172748    0.2700255617394    
  0.31487172051499257    0.3499986283769449    0.400087147896141    0.3758545700436917    0.29979780059021105    
  0.2351821431122803    0.19841636798392487    0.1820723720355709    0.17769730787122415    0.18207232994029177    
  0.1984163389960461    0.2351821178192885    0.29979781737045214    0.37585451826455213    0.4000871355750921    
  0.3499986252592755    0.31487172051499257    0.3916559556133603    0.40008714060960626    0.3939587126148233    
  0.34311645901982646    0.2775303941932091    0.23061260460034425    0.20696271224043913    0.1984163164623214    
  0.19669681115326698    0.19841634344229028    0.20696272669882745    0.23061257093654136    0.2775304021526693    
  0.34311653620012617    0.39395872513534486    0.40008712556086345    0.3916559556133603    0.38599452286426533    
  0.37585457628217955    0.34311655695119625    0.29610605180857447    0.25582670961843795    0.23454417930648228    
  0.23061258258830414    0.23518207309456465    0.23825492063173176    0.23518208806959154    0.23061262520188056    
  0.23454417999649246    0.25582671328350215    0.29610610769228596    0.3431165282991225    0.375854489952362    
  0.38599452286426533    0.3091538901279204    0.29979777365121024    0.27753041604890816    0.2558266959109872    
  0.24702778464029645    0.25582670268359675    0.277530473095715    0.29979778664216106    0.30915387963710317    
  0.29979781454789073    0.27753042719661103    0.2558266699197311    0.24702778199213635    0.2558267205654523    
  0.277530416124066    0.2997977701402315    0.3091538901279204    0.23825493943629344    0.23518211852496865    
  0.2306125710620133    0.2345441771661289    0.2558267361702864    0.29610611073672144    0.34311656672655283    
  0.3758545267335929    0.38599449721995743    0.3758545574617146    0.343116517748398    0.2961060716753295    
  0.25582667383317026    0.23454420084549527    0.23061262918176473    0.23518209128427467    0.23825493943629344    
  0.19669680163993886    0.19841634734988697    0.2069626671599155    0.23061256313447565    0.277530412785869    
  0.3431165078582885    0.3939587373540729    0.4000871144609434    0.39165595697854355    0.40008711590004686    
  0.39395867340229745    0.3431164939522097    0.27753041188109057    0.2306126158319218    0.20696268716301677    
  0.19841634416560522    0.19669680163993886    0.1776973261247186    0.1820723833942483    0.19841635700340063    
  0.2351820868388746    0.29979778019121284    0.3758545820706186    0.40008709572333007    0.3499986602572462    
  0.31487176662902033    0.3499986495442162    0.40008718239816266    0.3758545724428146    0.2997978254154139    
  0.235182099332729    0.1984163240996743    0.18207239348423165    0.1776973261247186    0.17248249727135181    
  0.17769728890650027    0.19669680180123736    0.23825488508217885    0.3091539066723421    0.385994532481995    
  0.391655974485275    0.3148717031911432    0.2700255398581604    0.3148717388578577    0.39165597151529824    
  0.38599445081340106    0.30915388976473007    0.23825488190217017    0.19669681607690404    0.1776973049045755    
  0.17248249727135181    0.1776972897175342    0.18207235235693445    0.19841634888614543    0.23518210613442317    
  0.2997977855168313    0.3758545988565025    0.40008715205030815    0.34999865812291087    0.31487170880736687    
  0.3499986091181957    0.40008715198777894    0.3758545606218172    0.2997977879406696    0.23518209043196728    
  0.19841638040197837    0.18207235413812395    0.1776972897175342    0.19669681891123666    0.19841631968510295    
  0.2069627048400369    0.23061255427940855    0.27753040966548664    0.34311656673964863    0.393958749855376    
  0.40008711744960557    0.39165596605909925    0.40008712310919203    0.3939587055437629    0.3431165240812758    
  0.2775304316735926    0.23061257377766584    0.2069627116084265    0.1984163571981646    0.19669681891123666    
  0.2382549059058217    0.23518215400653922    0.230612597589032    0.23454415846800544    0.2558266835789932    
  0.296106105768242    0.3431165067377192    0.3758545355917771    0.3859945119154723    0.37585451797383035    
  0.3431165618177316    0.2961060681038619    0.25582671676212043    0.2345441840673594    0.23061259740628884    
  0.23518212075597095    0.2382549059058217    0.3091539069902197    0.29979776043739975    0.2775304322903322    
  0.25582665295085605    0.24702777076487087    0.25582671789462275    0.2775304401789534    0.2997977834907398    
  0.30915391276906223    0.2997977856500824    0.2775304430359406    0.25582669093772664    0.24702779512245573    
  0.25582667552225224    0.27753042692801677    0.2997978003108118    0.3091539069902197    0.38599450969112997    
  0.37585454838193055    0.343116473000461    0.29610605994098466    0.25582674515043424    0.23454421522357372    
  0.2306126121673761    0.2351820857620668    0.23825490755994252    0.23518209579862495    0.23061260720618748    
  0.2345441626983477    0.25582670332764795    0.2961060748711607    0.3431166072892818    0.3758545445383577    
  0.38599450969112997    0.3916559691292829    0.4000871277487041    0.39395866411413594    0.34311648671953554    
  0.2775304164019898    0.23061260543781087    0.2069626920274025    0.1984163337299273    0.19669679956075445    
  0.19841634012839593    0.20696272654398037    0.23061254554592325    0.27753043591236887    0.34311656552608616    
  0.3939586553412114    0.4000871128874512    0.3916559691292829    0.3148717775339997    0.34999868698863196    
  0.40008712846521305    0.3758545670593867    0.29979777333830704    0.23518214520364233    0.1984163494263597    
  0.1820723448574851    0.1776973352773791    0.1820723579469545    0.19841636389859033    0.2351821115425333    
  0.2997977935469055    0.37585455323846123    0.4000870975398022    0.3499986475336046    0.3148717775339997    
  0.2700255617394    0.31487173099591825    0.39165597287821236    0.38599445969273327    0.30915389861487946    
  0.23825492032946663    0.19669680990760255    0.177697289422778    0.1724825122065447    0.17769731434543737    
  0.19669679741868032    0.23825488412151616    0.30915388435071856    0.38599448964474786    0.39165597835726706    
  0.3148717374172748    0.2700255617394    0.39219768736404964    0.3963343333166959    0.38599447940497406    
  0.34172357225545763    0.28869861803198144    0.25324143369743296    0.23825494076006892    0.23542133702974757    
  0.2358193703874404    0.2354213927516608    0.2382549427867233    0.2532414362039763    0.28869858152975864    
  0.3417236090493553    0.3859945030551833    0.39633434077187135    0.39219768736404964    0.39633435539813    
  0.39518828960403646    0.3758545709456597    0.3289878740116392    0.2789401667751023    0.2472494028611366    
  0.2351821240280082    0.23430115261462334    0.23542137096658894    0.2343011332496792    0.23518211464116648    
  0.2472493556879892    0.2789401494251771    0.3289878158021718    0.375854557482074    0.3951882486176792    
  0.39633435539813    0.38599450343463265    0.37585456935911954    0.34311651796887505    0.29610605869767354    
  0.2558266774804908    0.23454416564033953    0.23061263111283145    0.23518205792008007    0.238254917147826    
  0.23518211616487564    0.23061263850684477    0.23454417921408213    0.2558267018633867    0.2961061061527438    
  0.34311657083725866    0.37585456162698644    0.38599450343463265    0.3417236024264844    0.3289878775203613    
  0.2961061109711444    0.2590759904458531    0.23400180463815398    0.22686229865483545    0.23454416553374305    
  0.24724935921413105    0.2532414564654824    0.24724934781443295    0.2345441950850163    0.22686230240754737    
  0.23400180288922476    0.2590760118523634    0.29610606150413815    0.3289878279212669    0.3417236024264844    
  0.2886986102616595    0.27894017795493375    0.2558266914056389    0.23400178193803964    0.22548408707981837    
  0.2340017824783334    0.25582672691092473    0.27894014259178546    0.28869856165440166    0.2789401989713498    
  0.2558267241615267    0.23400177474705763    0.2254841039449553    0.23400180497067002    0.2558266840559793    
  0.27894012738880897    0.2886986102616595    0.2532414476413212    0.24724936860164137    0.23454414567219853    
  0.22686229157635815    0.23400182975240993    0.2590760310601943    0.2961060923937281    0.3289878540430302    
  0.3417235877911332    0.32898785159811916    0.29610608762095736    0.2590759714026372    0.234001792009713    
  0.2268622925568498    0.23454421913892565    0.24724931847510428    0.2532414476413212    0.2382549602114974    
  0.23518212878555697    0.23061257983168942    0.2345441704619143    0.25582671294060844    0.2961060618083409    
  0.34311653726801233    0.37585453095828136    0.3859944631330026    0.3758545476812041    0.34311653704036554    
  0.2961060721265441    0.2558267089216011    0.23454420087361744    0.2306125930549765    0.23518210265596115    
  0.2382549602114974    0.23542138610409466    0.23430120721783537    0.23518210206907347    0.2472493437659749    
  0.27894015743847334    0.32898787752716546    0.3758545261079385    0.3951882952407788    0.39633436964449364    
  0.3951882334382593    0.3758545671580886    0.32898784624093524    0.27894018010435756    0.24724934816404626    
  0.23518209214143584    0.2343011611825257    0.23542138610409466    0.23581938363278868    0.2354213795579738    
  0.23825488770088893    0.2532414002108508    0.2886986220535116    0.34172362190689654    0.3859944958485493    
  0.3963343329014827    0.3921976981726417    0.3963343301994462    0.3859945132967669    0.3417235856487298    
  0.2886985860248241    0.2532414332810416    0.23825492253029967    0.2354213604068265    0.23581938363278868    
  0.23542137601476523    0.2343011207860802    0.2351821356619546    0.24724933606086946    0.27894017657158354    
  0.3289878699261514    0.3758545871040931    0.3951882970421059    0.39633433818627367    0.39518821614718574    
  0.3758545860527768    0.3289878420329101    0.2789401573690974    0.24724936108692563    0.2351821460515919    
  0.23430115419337702    0.23542137601476523    0.23825493121815278    0.23518210882141605    0.23061262418630898    
  0.2345441616778483    0.2558266710824312    0.2961061012409602    0.34311655768049104    0.37585451349562654    
  0.3859945105530675    0.37585455833468506    0.3431165781757596    0.2961060508230899    0.2558266859642281    
  0.23454416940376444    0.230612603918289    0.23518210442693507    0.23825493121815278    0.2532414308222651    
  0.24724934851292416    0.2345441865611088    0.22686227067928919    0.23400182652517795    0.2590760073103849    
  0.29610605925031774    0.32898780595181987    0.3417236687809587    0.32898783503882    0.29610610449582336    
  0.2590760107328846    0.23400184125813414    0.2268622890371518    0.23454418625036894    0.24724936062495514    
  0.2532414308222651    0.2886985821708495    0.278940136784167    0.2558267046261402    0.23400177525171645    
  0.22548408776369921    0.23400180594602274    0.25582673937389744    0.2789401669505489    0.2886985848869301    
  0.27894018801665976    0.2558266959169463    0.23400181081343963    0.22548407911711282    0.23400180807359242    
  0.25582667732278    0.2789401671944565    0.2886985821708495    0.34172361552486397    0.32898786598329716    
  0.2961060562434046    0.2590759949119653    0.23400186102079798    0.22686231360763384    0.23454418769215576    
  0.2472493145451806    0.2532414039138768    0.24724935921225338    0.2345441800998033    0.22686227910463008    
  0.23400181571520323    0.25907601723070783    0.29610613281788867    0.3289878216490346    0.34172361552486397    
  0.3859944869437268    0.37585454116240086    0.34311653118275237    0.29610606331612715    0.2558267041899569    
  0.23454415899562678    0.2306126183516284    0.235182089084349    0.23825492642731122    0.23518209646018312    
  0.23061260864442376    0.23454415773628498    0.25582669454389595    0.2961061286621852    0.34311648692626256    
  0.3758545358166557    0.3859944869437268    0.39633437846885    0.3951883614302873    0.37585453125781676    
  0.32898781407002065    0.2789401789860476    0.24724933905653165    0.23518212121202486    0.23430112838925463    
  0.23542140220424612    0.23430114479440006    0.23518209574306673    0.2472493667918536    0.2789401580516661    
  0.328987853681801    0.3758545310770936    0.3951882877585237    0.39633437846885    0.39219768736404964    
  0.3963343333166959    0.38599447940497406    0.34172357225545763    0.28869861803198144    0.25324143369743296    
  0.23825494076006892    0.23542133702974757    0.2358193703874404    0.2354213927516608    0.2382549427867233    
  0.2532414362039763    0.28869858152975864    0.3417236090493553    0.3859945030551833    0.39633434077187135    
  0.39219768736404964    0.33419273282408474    0.32734422565526533    0.30915389420356587    0.28869855245534204    
  0.27961323250758036    0.28869859147373983    0.30915393910312006    0.3273442059840045    0.3341927331723412    
  0.32734424560304154    0.30915392582674917    0.2886985669688998    0.2796132368810455    0.28869860094093    
  0.30915389868206683    0.32734421761793375    0.33419273282408474    0.32734420085258853    0.3195054681233603    
  0.2997977923549748    0.278940174073562    0.2699761725845416    0.27894019871009673    0.29979781055230276    
  0.3195054688455469    0.3273441958964619    0.31950539325121435    0.2997977948273561    0.27894017298149876    
  0.2699761622194537    0.27894012913549926    0.2997978149417284    0.3195054111205234    0.32734420085258853    
  0.30915390050554376    0.29979781531746613    0.2775304245966477    0.25582662949974316    0.2470277266633335    
  0.2558267022327243    0.2775304334639316    0.2997977714654263    0.3091538828674399    0.29979777300792887    
  0.2775304419297064    0.2558266858420407    0.24702776919984973    0.2558267128016963    0.27753046626449884    
  0.29979776599158914    0.30915390050554376    0.2886986305064068    0.2789401852840478    0.2558267427952099    
  0.23400179972015497    0.22548412791267086    0.23400182869027647    0.2558266939098175    0.27894014263244643    
  0.288698609563715    0.2789401646651033    0.2558267127409867    0.23400179696715187    0.22548410961748344    
  0.23400181006090418    0.2558266999939228    0.2789401257473989    0.2886986305064068    0.27961320458406047    
  0.2699761577309827    0.24702776396860682    0.2254840661617404    0.21719361212937538    0.2254840822909843    
  0.24702778517342652    0.2699761372794084    0.2796131842088874    0.2699761604011789    0.247027777404283    
  0.2254840793419397    0.2171936058614663    0.2254841065411731    0.24702777160223996    0.26997614301290396    
  0.27961320458406047    0.2886986376594973    0.27894016825311346    0.2558266895779863    0.23400181620741628    
  0.2254841184077764    0.23400182906215894    0.25582675388245374    0.27894016142224365    0.2886985808535277    
  0.2789401615782715    0.25582667779294915    0.23400181164080203    0.2254840597806076    0.23400182298319971    
  0.2558267434981798    0.27894015724154775    0.2886986376594973    0.3091539062501821    0.29979779903094034    
  0.27753040076111185    0.2558266813438331    0.24702775786942735    0.2558266806311935    0.2775304466311654    
  0.29979778258975764    0.309153914380089    0.29979780127508693    0.2775304189350165    0.2558266693946941    