#     DFTpy    
  CRYSTAL 
    
  PRIMVEC    
  4.133979310344831    0.0    0.0    
  1.2691433741732503    3.9343436598944006    0.0    
  -2.7015604145756407    -1.9671711544442605    2.4334325373594003    
  PRIMCOORD    
  2    1    
  Si    3.385729055172411    3.385729055172411    0.0    
  Si    0.7482502551724102    0.7482502551724102    0.0    
  BEGIN_BLOCK_DATAGRID_3D    
  3d_datagrid_density    
  BEGIN_DATAGRID_3D#0    
  41    41    41    
  0.0    0.0    0.0    
  4.133979325764653    0.0    0.0    
  1.2691433789071793    3.9343436745695777    0.0    
  -2.7015604246525124    -1.9671711617818464    2.4334325464361504    
  0.2649689415496945    0.2956020380181011    0.326890274143934    0.35776848068820694    0.3886522582025877    
  0.4217283850149423    0.46049601994948375    0.508701968901554    0.5688743309703695    0.6406351734677236    
  0.7193471414342858    0.7959923490672556    0.8586181324412043    0.8946910873602039    0.8938513826233913    
  0.8514278615126499    0.7720903827816961    0.6705285420787305    0.5666595999714369    0.4778332709677012    
  0.41361330685152536    0.3756030294762346    0.35998466707221494    0.3596637311356591    0.3654757766117529    
  0.36790854086798275    0.3600263758365801    0.3399456057335395    0.3106886190375828    0.2776143383804011    
  0.24570270312927356    0.21830715392386002    0.19719182278756572    0.18300956628690507    0.17578354778508257    
  0.17531491436030971    0.18143321001048573    0.19399410961550143    0.2126775695887609    0.2367559159214464    
  0.2649689415496945    0.3034727480688685    0.33340502845342745    0.3588063371511575    0.37869511727520794    
  0.3953052498306513    0.41385087796218034    0.44097711937644823    0.48281706398067825    0.5430971713822428    
  0.6211417424810051    0.7102148640149143    0.7977144576577605    0.8682523765972363    0.9083569311430326    
  0.9102332316121372    0.8734484178429976    0.8050495181742444    0.7181237588491673    0.6281988114470054    
  0.5484450980641861    0.4862894153697125    0.4429538662981128    0.41502614807528027    0.39646564160933195    
  0.38049815201878434    0.36157542642332546    0.33704560331153044    0.30758124067907283    0.2760670968673074    
  0.24588336127945692    0.2197281588726562    0.19928063083811495    0.18534899763197976    0.17817164351301792    
  0.17774477022884386    0.18406262290536043    0.19713371462449672    0.21676286225015673    0.2422293278595481    
  0.27198302300945215    0.3034727480688685    0.3366123799381471    0.3581672789817397    0.36785767927105884    
  0.36692152715312343    0.3617304733614205    0.36157446531112664    0.3757054374363324    0.4114625084983817    
  0.47305025776095433    0.5595117661162838    0.6621620823578502    0.7643742830714239    0.8462819917922612    
  0.8924661406364084    0.8971843351415171    0.8642230978455971    0.8034714349423847    0.7273859339183733    
  0.6481656365113366    0.5752922776145311    0.51390846972704    0.46476733055516417    0.425510463390459    
  0.39237008892796266    0.3616876849763373    0.331050990283541    0.2998435113268148    0.26902610008625816    
  0.24036546203294984    0.21564107687743775    0.1961929336934228    0.1828149565919154    0.1758650971093455    
  0.17549274942457843    0.18185511991286848    0.19515080327588735    0.21539773913637655    0.24204059869169484    
  0.2734809243220516    0.30659514027950074    0.3366123799381471    0.3571104824194506    0.3608389630066731    
  0.3460288262203309    0.3193369786628469    0.29247318829315316    0.2772054068320743    0.2825117556631303    
  0.3148241500171469    0.3784090006283398    0.4729291118109443    0.5888610433331966    0.7059026906927771    
  0.7992383468544583    0.8508534169997559    0.8566414764550314    0.8244063951684174    0.7670175069254371    
  0.6970326184803148    0.6244722248084191    0.556148666373572    0.49551078029226353    0.44314205060743084    
  0.39787004814197546    0.3579262116329707    0.32174526831027567    0.2883984363932084    0.25774438029098606    
  0.23031056456198992    0.2069759411275032    0.18862362258278628    0.17591191230283273    0.169227508929486    
  0.16880947434909435    0.1749376417343439    0.1879953103642981    0.20827053746037463    0.23552845325566427    
  0.268430537941518    0.3037856500026023    0.335895560149812    0.3571104824194506    0.359160477260459    
  0.33803385050136114    0.2966208593629924    0.24868695649002132    0.2091018147441367    0.1879385250352009    
  0.19068279270406424    0.22178855800183567    0.286169172011866    0.3854280358349195    0.5104269063497323    
  0.6378606040897844    0.7383014155633907    0.7914921485379286    0.7951210314865453    0.7606851351897845    
  0.7036031471124259    0.6366452307893342    0.5684098696514304    0.503972759656887    0.44571095682387646    
  0.3941400159923566    0.3488206721787516    0.30903309233823206    0.2740911057641784    0.24349484955945225    
  0.21706395270401468    0.1949809445404996    0.17767116231151084    0.16559495818120215    0.15910650861071327    
  0.15847692048350254    0.16404413680491584    0.17631717150005222    0.19584480997742504    0.22280631896166925    
  0.25639174833395456    0.29392182584972504    0.32972552929182164    0.35477016751445595    0.359160477260459    
  0.3424638378194466    0.29608092859272106    0.23471150577034383    0.1771044962264245    0.1365016735281769    
  0.11771728387414603    0.1219618839873445    0.1525089657557676    0.21582794543288822    0.31593092193186345    
  0.44418228105318597    0.5746373782693491    0.6745255660423417    0.7231151966734847    0.7208124255420011    
  0.6823175988412662    0.6245427960415295    0.559917433476786    0.4958111788290815    0.43606678703277707    
  0.38230715714474434    0.3348734836536704    0.2935459527100108    0.25792731180033757    0.22755326883396748    
  0.2019893088431359    0.18099291738526704    0.16459975542504296    0.15304528963689398    0.14661562421069846    
  0.14558414378457898    0.15029430677750133    0.16128903018171034    0.17928499734527298    0.20485643465392336    
  0.23785140239607205    0.2765272208199564    0.31623856881741974    0.3481365638697316    0.3601073231233868    
  0.3424638378194466    0.3136573579030738    0.24850625789535355    0.17833516602249527    0.12212811005868304    
  0.08781755549178209    0.07473732736180884    0.08159669388406951    0.11194410201646714    0.17395180962070117    
  0.2729427974411075    0.3993601404368321    0.5246379000178122    0.6150188620506347    0.6523312395838862    
  0.6409605819032806    0.5979300388718695    0.5401182615920936    0.47870060842969264    0.41966600709368146    
  0.3658000240515498    0.3180885013074133    0.27660711498654256    0.24109141093303382    0.21116274242918368    
  0.1863694065032326    0.16628224611841522    0.1506532126228952    0.13948461551205119    0.13295872446294518    
  0.13133664864197972    0.13495274293668072    0.1443144213483534    0.16016879519951743    0.1833444091000057    
  0.21428991635048858    0.25232298404769693    0.2944311369138271    0.3335375992688146    0.3576113512396664    
  0.3530464472870713    0.3136573579030738    0.28332082910296863    0.20876755818940468    0.13900138600353626    
  0.08951746522717718    0.06276636732472471    0.0549845746139056    0.06463249653836951    0.09632991713888814    
  0.15903052687003577    0.2569216337536051    0.3772179478537153    0.48923404717824254    0.561766393074511    
  0.5825976799118613    0.5607299625775292    0.5140199088866679    0.45767856345951013    0.4008144711272157    
  0.34788462554334987    0.3007071066934482    0.2597184613088416    0.22473962657424784    0.19540691395646193    
  0.17129360051923606    0.1519289893077158    0.13690242087361226    0.12600476756043286    0.11927216949298033    
  0.11692021626549105    0.11927538902912142    0.12679593664833855    0.14015719917031247    0.1602465217451116    
  0.18789881813971457    0.22332423574782845    0.26517023806731893    0.30895616164329187    0.3451612144369165    
  0.3594724091875332    0.33903867269542054    0.28332082910296863    0.2611645978102399    0.1850803210890912    
  0.12000384445796454    0.07728456201413238    0.05623153440167443    0.05262362450189921    0.06599040613755276    
  0.10183040204865192    0.16796702620149195    0.26433717920790534    0.3732927072987293    0.46424738072564087    
  0.5127939695769668    0.514910353283179    0.483348606546134    0.4348398285543109    0.3816615279106978    
  0.33048471127953466    0.2842801446564033    0.24403211677872721    0.2097460741325026    0.18106110431041733    
  0.1575417854197478    0.13872419077274986    0.12413897851290488    0.11342685584659998    0.10645707784208244    
  0.10334371520661452    0.10437957795899111    0.10998583130537251    0.12074212566962603    0.1374488955136615    
  0.16106031612237126    0.19234137629243098    0.23120471652786445    0.27558734318019995    0.3196179711851466    
  0.3519079275953786    0.35732577012710265    0.3254510389896963    0.2611645978102399    0.25318977796599185    
  0.18054355837055205    0.12091727164080937    0.08305837024812873    0.06584699503703481    0.06630452596165572    
  0.08526483105712478    0.12783714608010155    0.19796387294657963    0.288917021136952    0.3791620014730684    
  0.44245866998835215    0.46453993975252    0.44926828830382015    0.4107662888921858    0.3628264107733129    
  0.31426657033564614    0.2694541103119248    0.23010550523282977    0.19655515753362587    0.1685151293679226    
  0.14552788624126392    0.12712849296771916    0.1128476834975842    0.1022556371483901    0.09508012053264205    
  0.09129193869531851    0.09109407446020806    0.09485725575700665    0.103084714659181    0.11644680459111999    
  0.1358196522599397    0.16216647155695116    0.19613797834923385    0.23734405333395459    0.2831091242400654    
  0.3265811737700256    0.3555217668275876    0.35538067183813354    0.31854442358420054    0.25318977796599185    
  0.26146513782037933    0.19561171642821246    0.14165889552175986    0.1076505535006785    0.09391367483314    
  0.09935334356051209    0.12527700238063647    0.17413181455023835    0.24357327118437833    0.3206259311431853    
  0.3841383438330951    0.4166152741552796    0.41429840591646766    0.3859555144745833    0.3442677680778523    
  0.2991425004120922    0.25619903978979003    0.21796256853594653    0.18520644159323482    0.15781563144734684    
  0.13534352379113374    0.11730832657248412    0.10325257025295624    0.09273724246054281    0.08540765728340347    
  0.08109657278962785    0.07987177580303575    0.08200850882848523    0.08793544515686148    0.09821408588067032    
  0.11357250708365912    0.1349182831943495    0.1631780468571975    0.19886583384086362    0.24133656093704195    
  0.28754028014855676    0.33029726306256985    0.3576529433108709    0.35656229852220434    0.32154870446627126    
  0.26146513782037933    0.2844687388539767    0.22882575866186305    0.18226755793050198    0.1531421668345408    
  0.14380410105004213    0.15455545977652663    0.18549354399576226    0.2344424161688827    0.2930344640462207    
  0.34618452618073225    0.3783884331277139    0.3823604200378877    0.3616948389203229    0.3260447947164713    
  0.2848085375232357    0.24418270545941048    0.2073385002027676    0.17550223359210074    0.1488079344290799    
  0.126881580596802    0.10922963212495335    0.095393726354008    0.08494965570595452    0.0775172088008214    
  0.07283566611412054    0.07083733422485146    0.07166474380591381    0.07564207384011931    0.08323622022239228    
  0.09504409717074595    0.11181743246436435    0.13445048966810527    0.16379342155955287    0.20021966620811257    
  0.24292126728060506    0.2887908371556852    0.33101776618522455    0.3588794280109311    0.3612828591890265    
  0.33395839127313376    0.2844687388539767    0.3166258135188474    0.2747739552318034    0.2386137478342474    
  0.2164958840252456    0.2119843291757911    0.22544153924699045    0.25449589003599676    0.29284801926135695    
  0.3298552605079742    0.35365889727746314    0.3568340361685852    0.3397241825361027    0.3085913062901113    
  0.2710821168683997    0.23305002082222515    0.1978958009738147    0.16717151301315183    0.1412718975407352    
  0.1199556202858715    0.10275023893608416    0.08918852267207814    0.07885709726153804    0.07138099939699585    
  0.06645656296354943    0.06391815381132734    0.06377843565820669    0.06623032734135809    0.07162798736182849    
  0.08045861763565644    0.09332767595655128    0.11097039222028451    0.13422185943859957    0.16382438432916505    
  0.20002369160074787    0.24195611130922276    0.2867478406713887    0.32849296898019115    0.3582971918127203    
  0.367181085061348    0.3514982257873028    0.3166258135188474    0.3481949651679637    0.32207938637694006    
  0.2982540189774456    0.28387447098372354    0.2821880140486716    0.29260120198122186    0.3109068810238379    
  0.3298170364211687    0.34096640902972347    0.33834515474243837    0.32091346760991    0.29224273519814326    
  0.25781019000080957    0.22242738929227993    0.1892374445188605    0.15987893559137153    0.13493627090533983    
  0.11432890521739941    0.09765486630733677    0.08445444569971491    0.07431799585479504    0.06688260789525585    
  0.061834358776687505    0.05895362912975918    0.05815814007242792    0.059517171735421065    0.06325259937982958    
  0.06973086795250258    0.07943696168761244    0.09295151513513304    0.11095125908493265    0.13417245489468108    
  0.16322979139850335    0.19826097677485893    0.238430469983513    0.28127619955603367    0.32205342389595676    
  0.35389494646043934    0.36991776907675034    0.3669552657624211    0.3481949651679637    0.3678016621380545    
  0.3558151396155367    0.3429397220411239    0.3341168803823706    0.3313321667227673    0.3332878595752795    
  0.33600738172511113    0.33434889698556525    0.3242062828737065    0.30434079296249933    0.2766101072896642    
  0.2445805602124566    0.21179390513671079    0.18081611323057836    0.15313586696165482    0.1294004103373292    
  0.10966618682358718    0.0936409497544365    0.0809120593046914    0.07108440884179766    0.063808142714108    
  0.05877367774381326    0.05573732957808046    0.05455958798320788    0.055220366843873776    0.05782068409112365    
  0.06259083160856907    0.06988859257804392    0.0801693360280844    0.0939552391428378    0.11182923264534986    
  0.13439962495766639    0.16214160238204312    0.1950994876594403    0.23250687185648716    0.27235743386769107    
  0.31104762141781944    0.3435812099877496    0.3649632089974447    0.372552335179508    0.3678016621380545    
  0.36752900824749163    0.3647890502250581    0.3585516624735079    0.3515261263236101    0.3446266682941638    
  0.3368286321839469    0.3259131024873487    0.3097741959600311    0.2876471563311135    0.26054112086867837    
  0.2306833983224461    0.20052121118406926    0.1719961024844404    0.14633276880535512    0.12413085028386185    
  0.10552098986397757    0.09032348373941812    0.07821122192515836    0.06883390373842597    0.061866301853863374    
  0.05701257422637452    0.0540221913251738    0.052722833775493534    0.053037855516500705    0.05498219442276484    
  0.05866438958060634    0.0643021304063739    0.07222069068242241    0.08281845799526096    0.09653183494746999    
  0.1138250839385594    0.13515929726737175    0.16086324014953868    0.19089674198302237    0.22457087741751486    
  0.2602865083401767    0.2953834861912274    0.3263543286830798    0.3497111510041177    0.3633419084098716    
  0.36752900824749163    0.3467673069018246    0.3476092365718957    0.3433982411392278    0.335397154072068    
  0.3241389921119919    0.30943102253905186    0.2908386472418437    0.2683339348583818    0.24268844478110832    
  0.215370165944889    0.1880778503182031    0.1622712149098272    0.13894121901620007    0.11860914876115923    
  0.10142716811347294    0.08729847645269055    0.07599246543552232    0.06723352092452872    0.060744433806898666    
  0.05625814708182193    0.05353229253505761    0.05237772932834244    0.052679863704911345    0.05439685118856707    
  0.05755083169549992    0.06223589772900176    0.06863533706613488    0.07701696653884678    0.08769818856615628    
  0.10101073912267965    0.11728669202659225    0.13683280076192578    0.15983467158656794    0.18618007237711096    
  0.21525615878287213    0.24579344700975186    0.2758329343389032    0.3029284151644197    0.32467061916357154    
  0.3394074169956004    0.3467673069018246    0.3113983407879332    0.31178005373578566    0.306791115914135    
  0.2970828011175357    0.283234974813832    0.26573610527058883    0.2451405508025566    0.22225576003505548    
  0.1981878505866323    0.17418877361870236    0.151404985368547    0.13068123811657312    0.11249866604114074    
  0.09702644073373724    0.08422451885048315    0.073943675648388    0.06599162066878893    0.06015983847906716    
  0.056230414512467124    0.05398813742564045    0.05324474037347901    0.053860922235903455    0.05575163186904628    
  0.05887848714159692    0.06324653794739073    0.06891454174867884    0.07600729649625916    0.084709806469123    
  0.09523921399978855    0.10781369961238767    0.12263498723397187    0.13986787731088712    0.15957626868690716    
  0.18159899838719876    0.20540356249641342    0.2299903158863073    0.2539140672372256    0.2754598452568235    
  0.2929576403760145    0.3051416668330316    0.3113983407879332    0.26954648142218396    0.2676942314516868    
  0.26110880391005753    0.2502825446466833    0.23588498306546943    0.21867713435759265    0.19949230332946824    
  0.1792481373225735    0.1589178134799039    0.13942780614604552    0.12152480010384152    0.10568789434091255    
  0.0921293088740348    0.08086748235741845    0.07181975696799814    0.06486626575861525    0.05987086198370342    
  0.05667958867464394    0.055124427463009155    0.05504003547716961    0.05628144394460446    0.05873171042620734    
  0.06230146850256136    0.0669278947849218    0.07257660516978315    0.07924648540786225    0.08697564252158944    
  0.09584190574353466    0.1059502501828273    0.11741030110482051    0.13031619883039403    0.14472797727197692    
  0.16062999812322545    0.17784699359540654    0.19594184682849247    0.21415826751301478    0.23146067064360676    
  0.246670199831786    0.2586480864627527    0.26646889559663467    0.26954648142218396    0.22784601120621925    
  0.2235531613939931    0.2156462138995364    0.20458031696159762    0.1910077104981889    0.17566779062440768    
  0.15932188590071966    0.14273037797325955    0.126624037494961    0.11163975212583588    0.098245620335511    
  0.08670637498403089    0.07711250473382295    0.06944891960856678    0.06365719726940118    0.059663288473452813    
  0.05737741275231288    0.05669061341861383    0.05748102175094109    0.05962299916486345    0.0629897917652398    
  0.0674532191061496    0.07288864040113027    0.07918233149176726    0.08623207589043859    0.09394371593934496    
  0.10223719107362327    0.1110635567203312    0.12041520984773561    0.1303156656182958    0.14079660410779857    
  0.15187347435416826    0.16351151394239025    0.1755687351600156    0.18773133543879622    0.19948560361366158    
  0.21015600841718088    0.21899304114454865    0.22526946637321069    0.22836451522225407    0.22784601120621925    
  0.1902240604048404    0.18395796376253065    0.175306999316608    0.16467213958172702    0.15259733151695126    
  0.13967184256093598    0.1264715372392982    0.113540548087679    0.10137543490970273    0.09038845407595408    
  0.08086839408470664    0.07297248410820849    0.0667574158803438    0.062225373615907104    0.05935572162018771    
  0.05811370832848313    0.058448223770765806    0.06029139712758054    0.06355919274864538    0.0681455218955463    
  0.07391226858957135    0.08068818962707429    0.0882813025539807    0.09649075891145063    0.10510472496299253    
  0.11389526531929729    0.12263514919518213    0.13113946296673296    0.13930266844266984    0.14710215187788703    
  0.1545698509936926    0.16175255789642312    0.16867171329397262    0.17528177335617026    0.18143458584958805    
  0.1868687268011353    0.19123251082180462    0.19412647795152563    0.1951467168632225    0.1939310052064779    
  0.1902240604048404    0.158383430394581    0.15075292498700518    0.1418772641215846    0.1320623509897509    
  0.12169982479558857    0.11119518833271753    0.10092819737129714    0.09124722199199484    0.08246696864550747    
  0.0748503026518362    0.06858729349076897    0.06379395258859367    0.06053257889838501    0.058835732036936976    
  0.058718762692151545    0.060181897958718235    0.06321019559567129    0.06777208427093105    0.07380853503001132    
  0.08121032648988587    0.08979678924076559    0.09931461055870563    0.10945739629935711    0.11988475382785573    
  0.1302254630691581    0.14008092116460477    0.14906018733126017    0.1568493203951897    0.16327557405515936    
  0.1683229108198212    0.17209378354355492    0.17474788402522898    0.17644853551887438    0.17732564213609303    
  0.1774509703394021    0.17682421889527444    0.17537269344614728    0.17296457276787736    0.16943272266908516    
  0.16461034965929014    0.158383430394581    0.13262082061725441    0.12416393020828961    0.11543150300817996    
  0.10660590715739553    0.09791699829358066    0.08959850861909706    0.08186786303998807    0.07493004415225496    
  0.06898092213996383    0.06419631528847532    0.06071862413681342    0.058656486213458606    0.05809479335097651    
  0.05910180101018368    0.06172918712146616    0.06601208613903062    0.0719714734006791    0.07960750706977361    
  0.08887081677458669    0.09961753402203537    0.11157571049813773    0.12434899611543898    0.1374533309498274    
  0.15035457242808992    0.16248552146239842    0.17326182944838073    0.18213546943957054    0.1886896949756085    
  0.1927264091765035    0.1942892166895316    0.19361407974467162    0.1910494931096629    0.1869893647177488    
  0.18182630005902684    0.17590952495017953    0.16950287158582605    0.1627596413584048    0.1557298552318863    
  0.14839369623828996    0.14070280089577503    0.13262082061725441    0.11246564101712675    0.10359594387926674    
  0.095235946744386    0.08743467877700829    0.0802740131011363    0.07385068698313883    0.0682686861616644    
  0.06364253685655295    0.06009764438599514    0.05776307396231154    0.056765750395638304    0.05723058112869797    
  0.059278872425536505    0.06301996987627409    0.06854426792393709    0.07592581287360049    0.08522401779920813    
  0.09646023604259688    0.10955919957294437    0.12427955682168536    0.14017890128804408    0.15664133367685792    
  0.1729492935573404    0.18834979536985402    0.20208569088888387    0.21341690574327626    0.22168062807766312    
  0.2263987858764883    0.22737986671565047    0.2247525865804076    0.21892130932659834    0.21048410336864046    
  0.20015076919590835    0.188661170877085    0.17669192406238077    0.16476749767581586    0.15321625778363993    
  0.14219215552750886    0.13173685490634973    0.12183812343296414    0.11246564101712675    0.09715261948719306    
  0.08817069229436722    0.08031894271703502    0.07351966298045741    0.06773387094573886    0.06296144095856453    
  0.05923539373998009    0.05661708782932706    0.05519399594242684    0.055080245151933514    0.05641735613816854    
  0.05936799212815152    0.06409935412973218    0.07076573821898957    0.07950331552095423    0.09043245546010152    
  0.10364120616320006    0.11912682906459127    0.13670493082430524    0.15593174907645246    0.17609369533447894    
  0.19628552782130892    0.2155399965228336    0.23293444890972909    0.2476268068823947    0.25884655437863097    
  0.2659111461799025    0.2683074068081161    0.26580871649830085    0.2585647138126698    0.24712156690682988    
  0.2323674164806867    0.21541398088105607    0.19743034201889162    0.17946151625967116    0.16228677403991615    
  0.1463693661581447    0.131905140057873    0.11892226104683368    0.10736782078842157    0.09715261948719306    
  0.08592319084198688    0.07704772086485072    0.06978942623597807    0.06396161301502427    0.05943521162577356    
  0.056146918887372395    0.05408801023105232    0.05329313448741379    0.053842142256715964    0.05586795381599414    
  0.05955335493477205    0.06511059794839327    0.07275654339586743    0.08269902527076281    0.09513082664687285    
  0.11020721789438416    0.12798541862712365    0.14832778834211102    0.17079738708818748    0.194597705809502    
  0.21861899529473658    0.24161846395239686    0.26246744614720835    0.2803184172124237    0.2945830545449044    
  0.3047606681117043    0.3102781857796804    0.3104924293266789    0.3048877245467192    0.29337013245396165    
  0.27648881267582043    0.2554446143762035    0.23186583118989731    0.2074601431680787    0.18369523646789349    
  0.1616091388000428    0.14177383915602454    0.12438095451231082    0.10938505092444906    0.09663105036205404    
  0.08592319084198688    0.07812946748899131    0.06952916434648991    0.0629301710580585    0.05806019349978109    
  0.05472843498451687    0.05283361699651446    0.05234756015602445    0.053305208772798596    0.055812436291948674    
  0.06005003722737883    0.06625493662744462    0.07469114168598354    0.08563324719491082    0.09935610957096731    
  0.1160973599414562    0.13597469290131234    0.1588735393776646    0.1843272945433353    0.21141269533599585    
  0.2387330323401808    0.2646140805319468    0.28754537491441146    0.3066548376274112    0.3218632346788756    
  0.3335503734919661    0.3419319514069463    0.3465541023680995    0.3462357028329092    0.3395386827946024    
  0.32554804448475416    0.30451833349446755    0.27798323317386986    0.24828516795240163    0.21786846306253288    
  0.18873450488660054    0.16221135846263998    0.13896712076115297    0.11915535649824112    0.10261447382740292    
  0.08904831479314028    0.07812946748899131    0.0732284442827852    0.06505386225789171    0.059187976186527796    
  0.05529796830221798    0.05315586383136802    0.05264344925686877    0.053736610034956486    0.05650141168891655    
  0.061099246240224295    0.06777264943230482    0.0768126494035414    0.08853981833628541    0.10330072038941734    
  0.1214280292002629    0.1431258268144601    0.16831013305560302    0.1964510433136442    0.22641798154278633    
  0.2563732541914167    0.2839306398563725    0.3068105450551163    0.3238198049327672    0.33548548339196776    
  0.3437483887680616    0.3508158178249587    0.3578483003376994    0.3641457776509001    0.3671929818310871    
  0.3636353517057742    0.3508625147861828    0.32837723238233923    0.29807882355279064    0.26334693967387507    
  0.22769815045078887    0.19386710354048547    0.16354028842288573    0.13748109942411332    0.11578221595206023    
  0.09814321816488765    0.08411279153892563    0.0732284442827852    0.07078367532547745    0.06319809876425381    
  0.05817370241414906    0.05534226161567178    0.054460762480593665    0.05541562868304874    0.05821398368675805    
  0.06298187602348189    0.06995217608892773    0.0794280625401716    0.09175390437768444    0.10731821559498468    
  0.12653456086438764    0.14971856589088484    0.17686805064118252    0.20742324681063848    0.2400225265472091    
  0.272260063785574    0.30072043066701154    0.3218019601688727    0.3333720271707706    0.3362503118078934    
  0.3342042634563617    0.33228201909952076    0.33461174259082044    0.3427934094488558    0.35519772501297325    
  0.3671916915356776    0.3725544241353578    0.36602919226242053    0.34579853850265285    0.31414592573723993    
  0.27589777769959484    0.2360811888758197    0.19842511548149552    0.16506409927012688    0.13686217878237147    
  0.11383830793995948    0.09554840843753604    0.08139184850821919    0.07078367532547745    0.07049774189428969    
  0.06370286366196479    0.0596869423831705    0.05807067094916366    0.0586170790872908    0.0612408831973371    
  0.06600782182548622    0.073123144463848    0.082891988137009    0.09567188291244111    0.11186528115299642    
  0.13192755896236807    0.1562772446937346    0.18504918968296352    0.21775902691080218    0.25292631561212525    
  0.28763199546734364    0.31728694885184094    0.33644382740212453    0.3411857601602173    0.3319095689297673    
  0.3140484675711794    0.295775814642893    0.2845679140777655    0.2849905903609243    0.2980263274307736    
  0.3208408431520211    0.34668189988468984    0.3661081461407299    0.37047116840029665    0.3560263023504356    
  0.3253854499500744    0.2851865454101402    0.24236598891930303    0.20186680160394121    0.16633227098258171    
  0.13672169999014258    0.11297035597509261    0.09449570233436883    0.08056590222358523    0.07049774189428969    
  0.07224091548422092    0.06649830020129378    0.0637372639380551    0.06358892593646256    0.06584261788000459    
  0.07046591792069931    0.07760559167226944    0.08755231041178968    0.10067487904180651    0.11738112934795406    
  0.13813142649716023    0.16340519840082043    0.19348860022698697    0.2280865795653723    0.2658210118855218    
  0.30356668811903326    0.33580531011354525    0.3550544800687779    0.3547140272358786    0.3335638099750428    
  0.29811415714513856    0.25987759560626417    0.22979450552421377    0.21468650237179152    0.21731819911373224    
  0.23760292057457094    0.2723446635512211    0.3137072587145097    0.3493724173729718    0.366902456062352    
  0.36013625878690264    0.3319263365696438    0.29092668512717507    0.24616088935037359    0.20382434396932989    