
     Program PWSCF v.6.5 starts on 21Apr2023 at 12:49:26 

     This program is part of the open-source Quantum ESPRESSO suite
     for quantum simulation of materials; please cite
         "P. Giannozzi et al., J. Phys.:Condens. Matter 21 395502 (2009);
         "P. Giannozzi et al., J. Phys.:Condens. Matter 29 465901 (2017);
          URL http://www.quantum-espresso.org", 
     in publications or presentations arising from this work. More details at
     http://www.quantum-espresso.org/quote

     Serial version
     Reading input from /home/valeria/Documents/DFTPY/cWT-KEDF/Phases/DATA/Si_bct5/DATA2/Si13.in
Warning: card &IONS ignored
Warning: card / ignored
Warning: card &CELL ignored
Warning: card / ignored
Warning: card &FCP ignored
Warning: card / ignored
Warning: card &RISM ignored
Warning: card / ignored

     Current dimensions of program PWSCF are:
     Max number of different atomic species (ntypx) = 10
     Max number of k-points (npk) =  40000
     Max angular momentum in pseudopotentials (lmaxx) =  3

     WARNING: check_stop already initialized
     Message from routine setup:
     using ibrav=0 with symmetry is DISCOURAGED, use correct ibrav instead

     G-vector sticks info
     --------------------
     sticks:   dense  smooth     PW     G-vecs:    dense   smooth      PW
     Sum        1191    1191    407                18861    18861    3771



     bravais-lattice index     =            0
     lattice parameter (alat)  =       8.1267  a.u.
     unit-cell volume          =     300.6719 (a.u.)^3
     number of atoms/cell      =            2
     number of atomic types    =            1
     number of electrons       =         8.00
     number of Kohn-Sham states=            8
     kinetic-energy cutoff     =      60.0000  Ry
     charge density cutoff     =     240.0000  Ry
     convergence threshold     =      1.0E-06
     mixing beta               =       0.7000
     number of iterations used =            8  plain     mixing
     Exchange-correlation= LDA
                           (   1   1   0   0   0   0   0)

     celldm(1)=   8.126669  celldm(2)=   0.000000  celldm(3)=   0.000000
     celldm(4)=   0.000000  celldm(5)=   0.000000  celldm(6)=   0.000000

     crystal axes: (cart. coord. in units of alat)
               a(1) = (   1.000000   0.000000   0.000000 )  
               a(2) = (   0.307003   0.951709   0.000000 )  
               a(3) = (  -0.653501  -0.475854   0.588642 )  

     reciprocal axes: (cart. coord. in units 2 pi/alat)
               b(1) = (  1.000000 -0.322581  0.849413 )  
               b(2) = ( -0.000000  1.050742  0.849413 )  
               b(3) = (  0.000000  0.000000  1.698826 )  


     PseudoPot. # 1 for Si read from file:
     /home/valeria/Desktop/programs/dftpy/examples/ofpp/EAC/upf/blps/si.lda.upf
     MD5 check sum: 946fc5a8d23174f015515f8139e499ed
     Pseudo is Norm-conserving, Zval =  4.0
     DFTpy
     Using radial grid of 1601 points,  1 beta functions with: 
                l(1) =   0

     atomic species   valence    mass     pseudopotential
        Si             4.00    28.08000     Si( 1.00)

      2 Sym. Ops. (no inversion) found



   Cartesian axes

     site n.     atom                  positions (alat units)
         1           Si  tau(   1) = (   0.8190000   0.8190000   0.0000000  )
         2           Si  tau(   2) = (   0.1810000   0.1810000   0.0000000  )

     number of k points=  2100  Gaussian smearing, width (Ry)=  0.0050

     Number of k-points >= 100: set verbosity='high' to print them.

     Dense  grid:    18861 G-vectors     FFT dimensions: (  45,  45,  45)

     Estimated max dynamical RAM per process >     621.84 MB

     Initial potential from superposition of free atoms

     starting charge    7.99872, renormalised to    8.00000
     Starting wfcs are random

     total cpu time spent up to now is       57.3 secs

     Self-consistent Calculation

     iteration #  1     ecut=    60.00 Ry     beta= 0.70
     Davidson diagonalization with overlap
     ethr =  1.00E-02,  avg # of iterations =  7.0

     Threshold (ethr) on eigenvalues was too large:
     Diagonalizing with lowered threshold

     Davidson diagonalization with overlap
     ethr =  6.33E-04,  avg # of iterations =  1.0

     total cpu time spent up to now is      586.6 secs

     total energy              =     -15.91817063 Ry
     Harris-Foulkes estimate   =     -15.94559105 Ry
     estimated scf accuracy    <       0.05156060 Ry

     iteration #  2     ecut=    60.00 Ry     beta= 0.70
     Davidson diagonalization with overlap
     ethr =  6.45E-04,  avg # of iterations =  2.0

     total cpu time spent up to now is      743.0 secs

     total energy              =     -15.92739592 Ry
     Harris-Foulkes estimate   =     -15.92927298 Ry
     estimated scf accuracy    <       0.00360142 Ry

     iteration #  3     ecut=    60.00 Ry     beta= 0.70
     Davidson diagonalization with overlap
     ethr =  4.50E-05,  avg # of iterations =  2.4

     total cpu time spent up to now is      902.3 secs

     total energy              =     -15.92805280 Ry
     Harris-Foulkes estimate   =     -15.92807324 Ry
     estimated scf accuracy    <       0.00011913 Ry

     iteration #  4     ecut=    60.00 Ry     beta= 0.70
     Davidson diagonalization with overlap
     ethr =  1.49E-06,  avg # of iterations =  3.7

     total cpu time spent up to now is     1079.9 secs

     total energy              =     -15.92806529 Ry
     Harris-Foulkes estimate   =     -15.92806597 Ry
     estimated scf accuracy    <       0.00000222 Ry

     iteration #  5     ecut=    60.00 Ry     beta= 0.70
     Davidson diagonalization with overlap
     ethr =  2.78E-08,  avg # of iterations =  2.0

     total cpu time spent up to now is     1240.9 secs

     End of self-consistent calculation

     Number of k-points >= 100: set verbosity='high' to print the bands.

     the Fermi energy is     4.7506 ev

!    total energy              =     -15.92806583 Ry
     Harris-Foulkes estimate   =     -15.92806586 Ry
     estimated scf accuracy    <       0.00000006 Ry

     The total energy is the sum of the following terms:

     one-electron contribution =       3.51841090 Ry
     hartree contribution      =       1.17528846 Ry
     xc contribution           =      -4.64386895 Ry
     ewald contribution        =     -15.97770724 Ry
     smearing contrib. (-TS)   =      -0.00018899 Ry

     convergence has been achieved in   5 iterations

 Energies determined by pw2casino tool
 -------------------------------------
 Kinetic energy      2.8782947121205638       au  =     5.7565894242411275       Ry
 Local energy       -1.1190892568564450       au  =    -2.2381785137128900       Ry
 Non-Local energy    0.0000000000000000       au  =     0.0000000000000000       Ry
 Ewald energy       -7.9888536180451588       au  =    -15.977707236090318       Ry
 xc contribution    -2.3219344735333749       au  =    -4.6438689470667498       Ry
 hartree energy     0.58764422760157486       au  =     1.1752884552031497       Ry
 Smearing (-TS)     -9.4496770364172001E-005  au  =    -1.8899354072834400E-004  Ry
 Total energy       -7.9640329130584870       au  =    -15.928065826116974       Ry
 -------------------------------------
 Total energy0      -7.9640329054832044       au  =    -15.928065810966409       Ry
 External energy0    0.0000000000000000       au  =     0.0000000000000000       Ry
 -------------------------------------


     Writing output data file ./si.save/
