#     DFTpy    
  CRYSTAL 
    
  PRIMVEC    
  4.541903980957754    1.9001643168043448e-05    -4.764062068965517e-13    
  -2.2709355345722235    3.93341384362457    -9.321120689655172e-12    
  -7.83391724137931e-13    -1.8149608965517238e-11    7.467595857409383    
  PRIMCOORD    
  4    1    
  Si    1.1306545162281276e-05    2.622282043850925    4.199580484444724    
  Si    2.270957139835046    1.3111508013846387    0.46578250059756315    
  Si    1.1306546868645769e-05    2.6222820438498426    7.001813301665693    
  Si    2.2709571398424164    1.3111508014137698    3.268015428091191    
  BEGIN_BLOCK_DATAGRID_3D    
  3d_datagrid_density    
  BEGIN_DATAGRID_3D#0    
  21    21    33    
  0.0    0.0    0.0    
  4.541903980957754    1.9001643168043448e-05    -4.764062068965517e-13    
  -2.2709355345722235    3.93341384362457    -9.321120689655172e-12    
  -7.83391724137931e-13    -1.8149608965517238e-11    7.467595857409383    
  0.020122005627454795    0.02095197971002438    0.02380592235311762    0.029784776395247552    0.040999747135693536    
  0.060845222456143544    0.09303239162870593    0.13878264282436897    0.1922013323667752    0.23741421312278985    
  0.25537363495961957    0.23741421126397144    0.19220135003439567    0.13878265178828003    0.09303238534244418    
  0.06084522325127482    0.04099974979454677    0.029784779628341293    0.02380591608209542    0.02095197874168823    
  0.020122005627454795    0.02095198474300798    0.020951213842837532    0.02279862038776515    0.027263544995811198    
  0.03608404720074151    0.05232492184132677    0.0801311809247061    0.12282989405626694    0.17857173507269755    
  0.2352609060592108    0.2721417727666486    0.27214532376927514    0.23527736311954264    0.1785640058101145    
  0.12282304469728013    0.08014068264549495    0.05232463376566726    0.036083495831789256    0.027264526542849773    
  0.022797970661613414    0.02095198474300798    0.023805912114781495    0.022798619388446857    0.023805918588476187    
  0.02726426171209291    0.03471595448893687    0.04924233302369751    0.07564619152885298    0.1193740338526548    
  0.18217378295103118    0.25487638899651804    0.3151419008875856    0.3386468260497899    0.3151232958979623    
  0.2548765523950602    0.1821966593548178    0.11937311771212256    0.07564058836024135    0.04924521529178666    
  0.0347163732086699    0.027264512737288776    0.023805912114781495    0.029784783781188425    0.027263537811977087    
  0.027264260812826867    0.02978374223285847    0.03608436273845827    0.049244985171206325    0.07464674499299336    
  0.11993061426136237    0.1908806252495884    0.2804551053428168    0.3620933026825835    0.4074247503067173    
  0.4074534001760352    0.36209280573463376    0.2804463473735375    0.19088248874107314    0.11993542189446658    
  0.07465330870653618    0.04924521077972992    0.03608349238422981    0.029784783781188425    0.04099974967058391    
  0.03608403980563008    0.03471595871260925    0.036084374636541766    0.04099862982374589    0.05232330238985931    
  0.07564570908829817    0.1199322717164409    0.19487373241396366    0.2964019645780062    0.3886294405474742    
  0.4323286714397624    0.43941984386393224    0.4323438551219464    0.38865805950652405    0.2963970226377569    
  0.1948805495861958    0.1199354369277376    0.07564059431814298    0.052324646428844754    0.04099974967058391    
  0.06084520881212624    0.052324903787304436    0.04924232651717104    0.0492449689235811    0.052323286111976605    
  0.06084912167003858    0.0801305806793772    0.11937705391684789    0.19088462943685192    0.2963910791444332    
  0.3944646097571016    0.419539872545639    0.3930666073612333    0.39305400429618925    0.41949759220966987    
  0.3944861391807296    0.2963970525092073    0.19088247854714724    0.11937309597695137    0.08014066434765264    
  0.06084520881212624    0.0930323873119225    0.08013118666926758    0.07564619044049359    0.07464673847115424    
  0.07564570986397393    0.08013060398851947    0.09304330466073432    0.12281930617962508    0.18219216755495488    
  0.28044231179492524    0.38866077172891633    0.41952905718506084    0.3594871552008144    0.3198500772107194    
  0.3595238931115891    0.419497583878749    0.3886580990761645    0.2804463506214562    0.1821966722643488    
  0.12282302638239218    0.0930323873119225    0.13878263578353559    0.122829884221611    0.11937402223576524    
  0.11993058041098446    0.11993224072825415    0.1193770621258182    0.12281929685986741    0.1387911369155564    
  0.17857269417420032    0.254883811625319    0.362093069388148    0.43233706891954277    0.39306024545366947    
  0.3198641151367136    0.31985001162621024    0.39305399569327565    0.4323438102419468    0.3620928029838147    
  0.2548765649779312    0.17856398526379244    0.13878263578353559    0.19220136179783745    0.1785717176997151    
  0.18217379874220144    0.19088059898239454    0.19487369574121408    0.19088461242140467    0.1821921777906539    
  0.17857270967607497    0.19219686389399304    0.23528695595500557    0.3151328172977948    0.4074657400760457    
  0.43942019277331595    0.3930602480713797    0.35948715063614717    0.3930666503391393    0.4394198804015476    
  0.4074533903616265    0.3151233095744778    0.235277325418069    0.19220136179783745    0.23741429165684738    
  0.23526091929345003    0.2548764068028029    0.2804551067563151    0.296401934793374    0.2963911209261411    
  0.28044229775877993    0.2548838171016834    0.23528698161054615    0.23740981059311234    0.2721610423947651    
  0.338634297828351    0.40746571849172425    0.4323371451564958    0.41952904532440055    0.41953987352270306    
  0.4323286318964118    0.40742477383751124    0.3386468269240992    0.272145306275939    0.23741429165684738    
  0.2553736306957134    0.27214178991943033    0.31514192237734645    0.3620932394016208    0.388629445468392    
  0.3944646061521863    0.3886607247046388    0.3620930550274398    0.3151327992002521    0.272160976263606    
  0.25538353440059475    0.2721609804437656    0.315132821291816    0.3620930979095197    0.3886607381534635    
  0.3944646303848067    0.38862950566885157    0.36209327470187175    0.3151418757764221    0.2721417890054426    
  0.2553736306957134    0.2374142746585062    0.27214530296597894    0.3386468534579379    0.4074247447310963    
  0.4323286107735722    0.4195399448241993    0.4195290580439072    0.43233714112513044    0.4074657220397786    
  0.33863428239462545    0.2721609853135919    0.23740978241758462    0.2352869845131494    0.25488380217520307    
  0.2804423206406699    0.29639110374554384    0.2964019661852362    0.28045511434706644    0.25487639609872337    
  0.2352609172907708    0.2374142746585062    0.19220135094407237    0.23527732084935882    0.3151233386167355    
  0.40745335875243827    0.4394198035001705    0.3930666381751882    0.35948717957813364    0.3930602264334168    
  0.4394202125072664    0.40746571290010863    0.3151327912258403    0.2352869406462587    0.19219687551009235    
  0.17857270372276057    0.18219216757241716    0.1908846249369128    0.19487369888843484    0.19088061282768948    
  0.1821737886548818    0.17857171907996117    0.19220135094407237    0.13878264474261665    0.1785639788875806    
  0.25487654883104505    0.36209278457604527    0.4323438163864695    0.3930540635195106    0.3198500334716026    
  0.31986416389298916    0.3930602094670611    0.4323370944928497    0.3620931016243305    0.25488377704350745    
  0.17857270289156424    0.13879113636533924    0.12281929016437254    0.11937705390740265    0.11993226194110167    
  0.11993059807587791    0.11937402856275386    0.12282986854106065    0.13878264474261665    0.09303239384183615    
  0.12282302810350805    0.18219664173886643    0.280446336458641    0.3886580447683432    0.41949759786557134    
  0.3595239323972098    0.31985008700740675    0.3594871785027295    0.4195290153370962    0.3886606906045132    
  0.28044231814491916    0.1821921774470185    0.12281930559579629    0.09304329842669865    0.08013059887516083    
  0.0756456975144088    0.07464674492964259    0.07564617864556077    0.08013118415766159    0.09303239384183615    
  0.060845214684780026    0.08014066165482459    0.11937310207610048    0.19088245209972077    0.29639698941109605    
  0.3944860728188986    0.4194975721743214    0.3930540558928494    0.39306661728810477    0.4195398837198543    
  0.3944645742185779    0.2963910619552703    0.19088463029909547    0.11937704826288105    0.08013059202146113    
  0.06084912127022018    0.05232329295557091    0.04924497857387791    0.04924233279681897    0.05232491050322763    
  0.060845214684780026    0.0409997409613672    0.052324635135196265    0.07564060460788126    0.119935420011047    
  0.19488051207035817    0.296397022528571    0.38865799958506286    0.4323438137693758    0.4394198157485037    
  0.4323286501393925    0.38862948259415614    0.29640195088106946    0.19487372860971938    0.1199322453351798    
  0.07564571544563677    0.052323304924678    0.04099863733698472    0.03608437219935658    0.03471596176605956    
  0.03608403859051377    0.0409997409613672    0.02978477446355486    0.036083489364462644    0.04924521515733602    
  0.07465330460440041    0.11993540631442647    0.19088247519374096    0.28044625886550356    0.3620927799753695    
  0.40745336901089707    0.4074247513493712    0.3620932610614594    0.2804550787463717    0.19088061880583743    
  0.11993060477585596    0.07464673704479137    0.04924498809717977    0.0360843662725205    0.029783748064989214    
  0.027264259015014513    0.027263541883553417    0.02978477446355486    0.02380591570242886    0.02726450907511578    
  0.03471637885733393    0.049245201985966415    0.07564059323170673    0.11937308883768104    0.18219662929713468    
  0.2548765793393695    0.31512328199822087    0.33864681094983434    0.31514190861386265    0.2548763852888073    
  0.18217380190964588    0.11937404962928705    0.07564619009158732    0.049242325021408635    0.034715956693202675    
  0.027264257869735593    0.023805917676297177    0.02279861643754181    0.02380591570242886    0.020951984142851803    
  0.022797967589044166    0.027264519394146133    0.036083498807233626    0.052324625147709546    0.08014067680954425    
  0.12282301788484459    0.1785639851441865    0.23527731828700796    0.2721452616840321    0.2721417892883199    
  0.23526089637936612    0.17857170273238934    0.12282989768246858    0.08013117866954718    0.05232492273812448    
  0.03608405242551989    0.02726355194184335    0.022798621392736088    0.020951220582401918    0.020951984142851803    
  0.020122005627454795    0.02095197971002438    0.02380592235311762    0.029784776395247552    0.040999747135693536    
  0.060845222456143544    0.09303239162870593    0.13878264282436897    0.1922013323667752    0.23741421312278985    
  0.25537363495961957    0.23741421126397144    0.19220135003439567    0.13878265178828003    0.09303238534244418    
  0.06084522325127482    0.04099974979454677    0.029784779628341293    0.02380591608209542    0.02095197874168823    
  0.020122005627454795    0.019984432993568425    0.020787563850955752    0.023545543006310697    0.02930426258231824    
  0.04007958132623945    0.05906853756513875    0.08971513559513895    0.13307296066065144    0.18343300913076013    
  0.22588165240766275    0.24271872957527507    0.22588630835038367    0.18341237385673306    0.13307479197851332    
  0.0897322288026739    0.05906653365790801    0.0400769073426239    0.02930491632421682    0.02354532888009258    
  0.020787545945871146    0.019984432993568425    0.020787550845693906    0.020787601794582115    0.022739859989908    
  0.027443817924963154    0.03677409047203017    0.05404233599397871    0.08371874432062824    0.12939125020640507    
  0.1889742187627291    0.2492899040627109    0.28822390230567413    0.28822923684392066    0.24931908576115705    
  0.18897777009750055    0.12937142077868016    0.08372437593593594    0.05404655804826279    0.03677449054207238    
  0.027444049534756498    0.02274037846312584    0.020787550845693906    0.02354532202144122    0.022407576414795925    
  0.02354539253434176    0.02744366265010415    0.03588507866924857    0.05247865438574077    0.08293570095303056    
  0.13387093088516858    0.20705114052982168    0.2902419241445076    0.3567814003144667    0.38187321232431687    
  0.35674028383832945    0.2902401172378174    0.20708460563021483    0.13387102061729547    0.08293206587837575    
  0.0524811545547059    0.03588532178228506    0.027444044487578083    0.02354532202144122    0.029304920912846925    
  0.026327767149230782    0.026328150816522698    0.029304155395085744    0.036774526353253296    0.05247953175922353    
  0.0831340052283893    0.13845657749883783    0.22500000112541063    0.3291472164935383    0.4120366461315539    
  0.44861580743389057    0.4486709372570789    0.41204625902347985    0.32911712881794364    0.22500892014802504    
  0.1384699240593968    0.08313446685227095    0.052481150852537614    0.036774487892263695    0.029304920912846925    
  0.04007690779358899    0.03399552412034312    0.0322921380761027    0.03399567556543124    0.04007591003743847    
  0.054046468746146645    0.08293006443984648    0.13846646111582794    0.232096196859903    0.34941612540193673    
  0.4253881049870535    0.42197608394524894    0.40398720391288173    0.4219925852536872    0.4254329643575103    
  0.3494219790068902    0.2320865292888837    0.13846994056986592    0.08293207096933637    0.05404656504243171    
  0.04007690779358899    0.05906652424390909    0.04792953555359843    0.043747962776904264    0.04375226144639506    
  0.04792553636082213    0.05907126845507759    0.08371702523368614    0.1338770537549252    0.22499766540591065    
  0.3494103884347902    0.4211078489239585    0.35942232264677326    0.26997283657633664    0.2699507163935046    
  0.35936244616523655    0.4211327856587722    0.34942197049393914    0.22500891385779193    0.13387102077701668    
  0.083724355436201    0.05906652424390909    0.08973223561083553    0.07149076113343662    0.06420669124423567    
  0.06229960102195395    0.06420686397912294    0.0714906699892866    0.08973588807978557    0.12936915761739864    
  0.20708738970019402    0.3291062838080833    0.4254445364122595    0.35939577826810487    0.2102116039433461    
  0.15096261725335125    0.21025632059716176    0.35936244753076235    0.425432984929065    0.3291171079707096    
  0.20708462779906442    0.12937138599080936    0.08973223561083553    0.1330748039926785    0.10724604056278539    
  0.09739546233839814    0.09466473818415608    0.09466458065337854    0.09739754239472061    0.10724393398178624    
  0.13307963879003307    0.1889777488486181    0.29025308517320547    0.4120409455733407    0.42197708189462846    
  0.26997240809138046    0.1509724478842293    0.15096262019216503    0.2699507198703244    0.42199255134402136    
  0.412046219178169    0.2902400951974027    0.18897777473604505    0.1330748039926785    0.18341237533267551    
  0.15342032382342224    0.14441274053614273    0.14466838343182872    0.14570015397884833    0.14467146379517384    
  0.1444172436607153    0.1534242431890594    0.18341509731584937    0.2493260608967065    0.3567495603323029    
  0.4486908090331718    0.40396863968204155    0.26997243236409885    0.21021159374486448    0.26997287171416595    
  0.4039872002672141    0.4486709159633891    0.35674029223364184    0.24931908079092635    0.18341237533267551    
  0.22588634502538313    0.20006291981298943    0.19892078489250872    0.2091083877135095    0.21786395057404923    
  0.21785562978646958    0.2091154861885943    0.19891981508511994    0.2000796277890425    0.22588136400979875    
  0.28824942637807477    0.3818440511920841    0.44869083422940853    0.4219771614409547    0.35939579619719164    
  0.3594223365272749    0.4219760573433324    0.44861584052962783    0.3818732232821387    0.2882292685453461    
  0.22588634502538313    0.2427187418505211    0.23039774179902486    0.24480623785891337    0.27245608543753264    
  0.29618581533442334    0.30472407132279683    0.2961913239019067    0.2724603514845613    0.24480885227662538    
  0.23041062739154003    0.24272770872199367    0.28824941212873634    0.35674955938554737    0.4120409511361095    
  0.4254445244482657    0.42110785680665    0.4253881485668997    0.41203662855268974    0.35678142447003025    
  0.2882238586212069    0.2427187418505211    0.22588171197113777    0.23040495253609009    0.26301465423982073    
  0.3117970398155834    0.3536110811463246    0.3726519500000037    0.37265629193937794    0.35361930167764954    
  0.3118086139828904    0.26301782846728783    0.23041064446496068    0.22588134405936758    0.24932608432703793    
  0.29025306958116415    0.32910627443453255    0.34941043112760295    0.34941612231978625    0.329147221208026    
  0.2902419107101844    0.2492898879989416    0.22588171197113777    0.18343299524108012    0.20006746305951273    
  0.2448007968246617    0.31180082027172906    0.37340540662589145    0.40174982395060227    0.4058403274865926    
  0.40174825470964565    0.3734121510027162    0.3118085878464846    0.2448088808686356    0.20007962179161767    
  0.18341510378971598    0.18897776502155356    0.2070873812077428    0.2249976797600401    0.23209613793425454    
  0.22500001464306965    0.20705111328589515    0.18897419111432048    0.18343299524108012    0.13307293529712833    
  0.15340202218217477    0.1989199488287201    0.2724584724225555    0.35361990353846273    0.40174700082188797    
  0.4099639658551101    0.4099594939710228    0.4017482804743183    0.35361928790833236    0.2724603752033004    
  0.19891979871089968    0.15342424105746094    0.13307964859028704    0.12936913730710292    0.133877059099771    
  0.1384664396620002    0.13845657640613382    0.13387092062319378    0.1293912339620842    0.13307293529712833    
  0.08971512919798241    0.1072463042990095    0.14443282857602097    0.2091114845600288    0.29619166269064334    
  0.37264411216630045    0.4058449993834116    0.4099640377396836    0.4058402766702253    0.37265625479432324    
  0.296191344304359    0.20911550797957176    0.14441724507368925    0.10724394458829789    0.08973587804403442    
  0.08371703052086443    0.08293005160367464    0.08313400792960708    0.08293569748613443    0.08371873748967373    
  0.08971512919798241    0.05906853464179362    0.07150599307403091    0.09739603682836491    0.1446559925372053    
  0.217862102338809    0.30472909114976077    0.3726440767765816    0.4017469330947367    0.40174981488205735    
  0.3726518872135657    0.30472407383508104    0.2178555916111153    0.1446714565550332    0.09739753459213542    
  0.07149065402681934    0.05907127342436848    0.05404645910345875    0.052479524238564494    0.05247864932482697    
  0.054042319667346905    0.05906853464179362    0.04007958254110615    0.04792740049468638    0.06419356003908397    
  0.09466598644995496    0.1457174922999769    0.21786212854638048    0.29619167170410193    0.35361990857198733    
  0.3734054002585177    0.3536111012995088    0.29618583329782666    0.21786396838671515    0.1457001678087987    
  0.0946645983526363    0.06420687244044909    0.04792554593797495    0.04007591485371879    0.03677452829627485    
  0.035885083502370914    0.0367740881831096    0.04007958254110615    0.029304260880995425    0.03399314195232807    
  0.04375024708295735    0.062314861628329624    0.09466596739179134    0.14465602543925057    0.20911147561766108    
  0.27245852369016793    0.3118008281559704    0.3117970212465605    0.27245611626349064    0.2091083514156238    
  0.14466837416922043    0.09466474950116119    0.06229960248824823    0.04375228518094723    0.033995676372123126    
  0.029304156963352403    0.027443660395272317    0.027443816527304172    0.029304260880995425    0.02354554090184513    
  0.026327899850633926    0.03229521533897269    0.043750238269545175    0.06419354850232589    0.0973960327479068    
  0.14443282919352174    0.19891995131225296    0.24480076408996734    0.2630146314230214    0.24480623883835193    
  0.1989207889088797    0.1444127234973581    0.0973954849653061    0.0642066894138274    0.04374795678816786    
  0.032292136111313596    0.026328148666395653    0.023545393742501353    0.02273985448929827    0.02354554090184513    
  0.02078756862293846    0.022407471497405386    0.026327909266461932    0.03399315196909995    0.047927398214254686    
  0.07150601250821224    0.1072463062541792    0.1534020208296442    0.20006744357877423    0.23040491350156878    
  0.23039777354518284    0.20006291332824483    0.1534203324768285    0.10724605328109403    0.07149075738864241    
  0.04792955141031251    0.03399553709140387    0.026327781522354106    0.022407576050593937    0.02078760696823222    
  0.02078756862293846    0.019984432993568425    0.020787563850955752    0.023545543006310697    0.02930426258231824    
  0.04007958132623945    0.05906853756513875    0.08971513559513895    0.13307296066065144    0.18343300913076013    
  0.22588165240766275    0.24271872957527507    0.22588630835038367    0.18341237385673306    0.13307479197851332    
  0.0897322288026739    0.05906653365790801    0.0400769073426239    0.02930491632421682    0.02354532888009258    
  0.020787545945871146    0.019984432993568425    0.019601988459965292    0.02032699515951272    0.02280740439760578    
  0.027969571623967755    0.03754720446525055    0.05419528700769251    0.08064941562708847    0.11752467409369934    
  0.1597767977723076    0.1950595465718965    0.20900197419110997    0.1950658483809927    0.15975440660547302    
  0.11752529469342919    0.0806693463521671    0.054194347152402636    0.03754369322257503    0.027970928161348    
  0.02280719908587556    0.02032718621460707    0.019601988459965292    0.020327192067747555    0.020326595256171993    
  0.02223262880808723    0.026800553791784493    0.03583314929748979    0.0524582680966919    0.08082704485033783    
  0.12413651775530166    0.18008106767368595    0.236043182378969    0.2717852316495348    0.2717870551266849    
  0.2360762880464401    0.18008805443920678    0.1241169602380663    0.08082899700050274    0.052465636775870295    
  0.03583170751305426    0.02680186112261443    0.022232273365493212    0.020327192067747555    0.022807196586866457    
  0.021640069009850535    0.02280715220195138    0.026801321945429817    0.03543009639055417    0.052364869334339544    
  0.08339298971204719    0.13517576186563424    0.20906325897685812    0.291607535818291    0.3557475486876976    
  0.3793062195336819    0.3557030544661852    0.2915996107169821    0.20909856503077923    0.1351802194107092    
  0.08338798603405563    0.05236876331692416    0.03543051742399972    0.026801853689404246    0.022807196586866457    
  0.02797092986640264    0.024829498383049306    0.024831392247334886    0.027968498932953216    0.03583363620866934    
  0.05236460995158995    0.08469768697778196    0.14311240559240826    0.23388177339525631    0.3397570073548245    
  0.41692383655392823    0.44511013915322245    0.44516975021433003    0.41694241893469447    0.33973109519649813    
  0.23388088768927148    0.14313328663865554    0.08469307735589489    0.05236875778418845    0.035831705509387836    
  0.02797092986640264    0.037543697615743485    0.03102082495067943    0.029178240135193902    0.0310211284076178    
  0.03754267588328086    0.05246518181105453    0.08338509164044851    0.1431257343749691    0.24335148641011087    
  0.3635197838376329    0.4248922712558049    0.39614429497170006    0.36709514079963457    0.396160379422986    
  0.4249244090743402    0.36354017495465185    0.24333495901561433    0.14313330270402352    0.08338799704752532    
  0.0524656442917014    0.037543697615743485    0.054194332302994995    0.04206489118590466    0.037424419028413355    
  0.037426820906351396    0.0420617753228609    0.054197854029716636    0.08082377588625897    0.13518494249970514    
  0.23387365588098802    0.3635155337262847    0.4163728167370875    0.31634786733385806    0.21010753471855093    
  0.21008195614868858    0.31630521625106817    0.41638457476838825    0.36354015439052595    0.23388087906115382    
  0.1351802163898471    0.08082897318322808    0.054194332302994995    0.08066935378935469    0.060344638474736666    
  0.05183726718857076    0.049505677801188634    0.05183779686470491    0.06034467493908444    0.08066992563534103    
  0.12411579884230044    0.20909884847342652    0.3397187327767986    0.4249422481787134    0.3163301873591671    
  0.14929108358870513    0.0939240018185187    0.14932105294585432    0.31630520646091365    0.4249244449571173    
  0.33973108262810625    0.2090985729790551    0.1241169557623959    0.08066935378935469    0.11752527819292123    
  0.08750229619457743    0.07461751831140194    0.07012884764375213    0.07013083264166074    0.07461645415045283    
  0.08750431962157895    0.11752662711384147    0.18008837556637025    0.29161156586141074    0.416935753089894    
  0.39613981922922703    0.21010921958862327    0.09392265318793558    0.0939239677537748    0.21008196520869457    
  0.3961603755894547    0.41694243227875644    0.29159961824448405    0.18008802343490388    0.11752527819292123    
  0.15975442099675563    0.12188608922160402    0.10610559141500316    0.1012052092373756    0.10027427045452189    
  0.10120647824963393    0.1061071139801662    0.12188921459660335    0.1597564654463594    0.23608369907083734    
  0.3557085793664819    0.4451918289253524    0.36707158478716634    0.21010923835242531    0.1492910623104822    
  0.21010754040966892    0.3670951456969007    0.4451697033726224    0.3557030674642973    0.23607628273335232    
  0.15975442099675563    0.19506586298369605    0.15607379186409404    0.14199418072666928    0.14078462888430388    
  0.14288872167749267    0.1428800339570112    0.14079651691073883    0.14198784059112765    0.15608976154031112    
  0.19505807976891149    0.2718060921938279    0.3792749608258448    0.4451917861568864    0.39613990309934477    
  0.31633017418373893    0.31634790204374796    0.3961443067733869    0.4451101619730933    0.37930619716158986    
  0.2717870326225302    0.19506586298369605    0.20900198176984616    0.17815180902981745    0.17197308272899686    
  0.18018228734249608    0.1914352049859102    0.19623868840487027    0.19143622275198227    0.18018445021746213    
  0.17197819962460228    0.17815708809851782    0.2090148401343556    0.2718060106134067    0.3557085609854093    
  0.4169357571646817    0.42494219782152404    0.41637287391072236    0.42489229737948564    0.41692380513355026    
  0.35574754796533054    0.27178519869693013    0.20900198176984616    0.19505961017917992    0.17815507341557846    
  0.18386850961885232    0.205337572692893    0.2310563175437543    0.24757879487874157    0.2475829217013862    
  0.23106063316821207    0.205342012636438    0.1838732606532067    0.17815708319120907    0.1950580819469625    
  0.23608371107214193    0.29161155483526385    0.3397187336483149    0.3635155727827404    0.36351977389567663    
  0.3397569997884737    0.29160754622212093    0.23604318874721109    0.19505961017917992    0.1597768076277247    
  0.15607928459091144    0.17197033478779344    0.20533740832994488    0.24628867072100813    0.278648693467718    
  0.2904277907426877    0.2786493725863934    0.24629295321829367    0.20534201948788322    0.1719782132198363    
  0.156089729840982    0.15975647903792417    0.18008837579294582    0.20909884569965412    0.23387367771954504    
  0.2433514293151832    0.23388178916460042    0.20906323645166286    0.18008106061823057    0.1597768076277247    
  0.11752468205857414    0.12186471451781337    0.14199020111084595    0.18018501506552168    0.23105977368345978    
  0.27864920202383375    0.3059450270172565    0.3059412415111114    0.2786494000574778    0.23106066352281482    
  0.1801844733050413    0.1419878318851054    0.12188919702534573    0.11752663309410254    0.12411577871812236    
  0.13518493948138885    0.14312571761553292    0.14311238419950256    0.13517575745932964    0.12413649589038381    
  0.11752468205857414    0.08064940867811932    0.08750348978793575    0.10612441775425414    0.14079096240364097    
  0.19143376812716384    0.2475793526802887    0.2904254359882514    0.3059450601597787    0.2904277949061119    
  0.24758293978181384    0.19143621149995943    0.1407965220392953    0.10610711455074016    0.08750432193612949    
  0.08066992223990814    0.08082377595107236    0.08338508766763422    0.08469769771874187    0.08339297795673432    
  0.08082703705826873    0.08064940867811932    0.054195283128058935    0.06035902624726775    0.07461688745246817    
  0.10118859209015907    0.1428856323672026    0.19624174762644336    0.24757936330462985    0.27864918201012806    
  0.2786486530178947    0.2475787653341566    0.19623867796055688    0.14287998707318825    0.10120647271607389    
  0.0746164484704823    0.06034465583328337    0.054197854120312014    0.05246516743105208    0.052364605069239796    
  0.05236485733561891    0.0524582589354171    0.054195283128058935    0.037547210590900125    0.04206345430272313    
  0.05182408273488827    0.07013068159488126    0.10029222489258363    0.14288563593862058    0.19143374473593114    
  0.23105977076598955    0.24628864649344262    0.231056333528089    0.1914351898997053    0.14288873395868365    
  0.10027428355399565    0.07013084562002828    0.051837811547582886    0.04206178790465643    0.037542681251304964    
  0.03583363556228259    0.03543010295503278    0.035833140207671386    0.037547210590900125    0.027969567706203506    