#     DFTpy    
  CRYSTAL 
    
  PRIMVEC    
  5.2412413793103445    0.0    0.0    
  0.0    5.2412413793103445    0.0    
  0.0    0.0    2.887586206896551    
  PRIMCOORD    
  4    1    
  Si    0.0    0.0    0.0    
  Si    2.6206206896551723    2.6206206896551723    1.4437931034482756    
  Si    0.0    2.6206206896551723    0.7218965517241378    
  Si    2.6206206896551723    0.0    2.1656896551724136    
  BEGIN_BLOCK_DATAGRID_3D    
  3d_datagrid_density    
  BEGIN_DATAGRID_3D#0    
  23    23    13    
  0.0    0.0    0.0    
  5.2412413793103445    0.0    0.0    
  0.0    5.2412413793103445    0.0    
  0.0    0.0    2.887586206896551    
  0.05937205008752561    0.10789871601811737    0.2730932608019599    0.4020061527788476    0.3574590719388039    
  0.27738228858309727    0.24365111916139934    0.25981316269147825    0.3112731867654529    0.36428263749782636    
  0.38525639898947206    0.38592479103534943    0.38525644466065473    0.3642825671446932    0.3112732190476147    
  0.25981312967693654    0.2436511578465506    0.27738226284508394    0.3574591102530726    0.4020060357970813    
  0.27309323278502473    0.10789873487691318    0.05937205008752561    0.10789878370483368    0.163346605437984    
  0.31482182630812694    0.3983316225031521    0.33708972996254455    0.25943811808731054    0.22786498512314113    
  0.24280381598431522    0.29185425435818707    0.3466923767929943    0.3751092317286859    0.3802597785967144    
  0.37510916502960817    0.3466924509402987    0.29185428852152084    0.24280376354506383    0.22786497651559479    
  0.2594381277839233    0.33708972164505596    0.3983316579572998    0.3148217945342435    0.1633466129735669    
  0.10789878370483368    0.2730932737216234    0.3148218143129538    0.3822595679606562    0.36514582828523307    
  0.2819110410600273    0.21462360942687825    0.18904183062069063    0.2009242493602284    0.24190940564495017    
  0.2941709266204479    0.33188230621133147    0.3441839329495833    0.33188232817452656    0.29417086159913586    
  0.24190944609277984    0.20092421907733893    0.18904186926782376    0.2146236086716539    0.2819110475886533    
  0.3651457829953811    0.3822595552618713    0.31482173547388664    0.2730932737216234    0.4020061781210378    
  0.3983315905536134    0.36514585994528925    0.291138104125107    0.2133280653771337    0.162904685507192    
  0.14433250524601846    0.15260728559654102    0.18219734892979633    0.22272539919652598    0.257128353779483    
  0.270515744152629    0.2571283068829952    0.2227254369916975    0.18219732201478103    0.1526072947276292    
  0.14433247914708028    0.1629046894905371    0.2133280763806273    0.2911381425525376    0.36514579769325545    
  0.39833165077647853    0.4020061781210378    0.357459135562765    0.33708965134555896    0.2819110473811451    
  0.21332804333665342    0.15603366701730165    0.12093106711037739    0.10772500582927551    0.11294061941504192    
  0.13254392215307245    0.15987354499851295    0.18422995932671277    0.19412320833378569    0.18422991409367706    
  0.15987355683271387    0.13254394242582992    0.11294057904646795    0.10772503572072338    0.12093105439776457    
  0.15603370146484669    0.21332804026586735    0.28191104898748504    0.33708969082190127    0.357459135562765    
  0.2773822799791701    0.25943809247297345    0.21462363090358544    0.162904691721597    0.12093106372799328    
  0.09512530571115908    0.0850888750010759    0.08824722268251836    0.10137013103843022    0.11983886963728377    
  0.13637134706686307    0.14302625028504487    0.13637135046483229    0.11983890334095579    0.10137011876965156    
  0.088247226958049    0.08508886367077952    0.09512534189726415    0.12093106382145419    0.16290469324272477    
  0.2146235971967728    0.2594381564296363    0.2773822799791701    0.2436511966948889    0.2278649080408643    
  0.18904188815875458    0.14433249898251144    0.10772501284754817    0.08508885698665909    0.07597399433483329    
  0.07789740656731346    0.08804853116488957    0.10266158384980431    0.1157754007896443    0.1210070125398025    
  0.11577539711135387    0.1026615915189884    0.0880485707958272    0.07789736064746651    0.07597401088342026    
  0.08508885845849039    0.10772504513426819    0.1443324694243454    0.18904186834892245    0.2278649559103469    
  0.2436511966948889    0.2598130877182207    0.24280378625513466    0.20092423897962125    0.15260727578992409    
  0.1129405863638709    0.08824722510450278    0.07789737905166987    0.07923560574087417    0.08931666875782263    
  0.10403421561130072    0.11732227618397653    0.12269397006701901    0.1173222394663331    0.10403421526807878    
  0.08931665066157515    0.07923561554706389    0.07789737592152876    0.08824724748161526    0.11294058560180102    
  0.1526073051895798    0.20092419558137956    0.24280379339665992    0.2598130877182207    0.311273288772935    
  0.2918542163994548    0.24190945297786304    0.18219730789414884    0.13254391461447376    0.10137012645079578    
  0.08804855246679345    0.08931667418104201    0.10157040520932202    0.11963387215732446    0.1360058153987172    
  0.14270179414128337    0.13600584409791205    0.1196338714135184    0.10157044741953548    0.08931665693890967    
  0.08804855926827738    0.1013700861447821    0.1325439941873385    0.1821973157080295    0.2419094085984315    
  0.2918542526522245    0.311273288772935    0.36428255942199633    0.3466924699718259    0.29417088173961903    
  0.22272546164189125    0.15987350806168313    0.11983889862755984    0.10266157166024051    0.10403421275195002    
  0.11963389328126933    0.14310034186993836    0.16445295237707985    0.17319092799564742    0.16445292388509497    
  0.14310037921226684    0.11963386365357855    0.10403422421508324    0.10266154544701242    0.11983891252905651    
  0.15987351172852998    0.2227254391503218    0.29417084006011573    0.3466924323819569    0.36428255942199633    
  0.38525649292129754    0.3751091069227726    0.33188233395650985    0.25712828480750793    0.18422990825582136    
  0.13637135243064236    0.11577540227249523    0.11732228275271747    0.13600579842854266    0.16445295536381907    
  0.19054484099861294    0.20129078786385188    0.19054483870836883    0.16445295024696166    0.13600582450914434    
  0.11732226749740497    0.11577542262969669    0.13637131324397794    0.18422992617120248    0.25712829567112006    
  0.33188237246182634    0.37510911594179086    0.38525649292129754    0.3859248085032498    0.38025981219366284    
  0.3441839052301946    0.2705158282253527    0.19412320183014872    0.14302623842815704    0.12100703961624361    
  0.12269399551924404    0.14270180563005905    0.173190956465163    0.20129082342241744    0.21296334028134387    
  0.20129079216521875    0.1731909287970298    0.14270179972077737    0.12269397717043906    0.12100702983554018    
  0.14302626886789216    0.19412319488155458    0.2705158138103605    0.3441839096281166    0.3802598374889841    
  0.3859248085032498    0.38525650080582297    0.37510910477066994    0.33188236814066885    0.25712829976114276    
  0.18422994395180792    0.1363713512767035    0.11577540327236704    0.11732228842755427    0.13600576863010824    
  0.16445295223364964    0.19054484342692818    0.20129077713687765    0.19054483952168458    0.16445292092277902    
  0.13600581229413083    0.11732224567239571    0.11577541879501342    0.13637132955074985    0.18422992200223384    
  0.25712831051208634    0.3318823113747328    0.37510907205253596    0.38525650080582297    0.3642825181048032    
  0.3466924895447568    0.29417081242412396    0.22272544561806162    0.1598735064353978    0.11983886784702596    
  0.10266157387739742    0.10403420453451077    0.11963389267191028    0.14310034590735465    0.16445297797382613    
  0.1731909224872075    0.1644529619544399    0.14310033995343424    0.11963390488593348    0.10403421659580081    
  0.1026615745449619    0.11983892143229455    0.15987351382508908    0.22272547649940963    0.29417085525957065    
  0.3466924470335701    0.3642825181048032    0.31127325367716846    0.29185422615436546    0.24190946810092814    
  0.18219729259651055    0.13254393429461134    0.10137011421884592    0.08804855360124969    0.08931668078041387    
  0.10157040494403877    0.11963389944271818    0.13600582051363416    0.1427017922020908    0.13600582943530448    
  0.1196338865194475    0.10157041910979615    0.08931666304369067    0.0880485519209234    0.10137009673461485    
  0.132543963974784    0.18219730051639585    0.24190943173726878    0.2918542596453277    0.31127325367716846    
  0.25981312934521017    0.24280377246670984    0.20092426017895146    0.1526072714379136    0.11294060288389132    
  0.08824722079066052    0.07789738909305886    0.07923560743694397    0.08931666843364587    0.10403418362903691    
  0.11732230673926738    0.12269393742901447    0.11732229627887648    0.10403420804206982    0.08931667706245819    
  0.07923560487105254    0.07789738555959075    0.08824722430580259    0.1129405982790283    0.15260731630551863    
  0.20092419635387007    0.2428038322998244    0.25981312934521017    0.24365116515107066    0.22786492213230952    
  0.18904188325239885    0.144332486428621    0.10772501037261648    0.0850888570405463    0.07597399315407348    
  0.07789739322810879    0.0880485257118482    0.10266159913219967    0.1157753797168078    0.1210070122533934    
  0.11577539434523383    0.10266161110717839    0.08804853922668374    0.0778973833977906    0.07597400253874788    
  0.08508886282088539    0.10772504052366395    0.1443324845121448    0.18904186868618716    0.22786492570406655    
  0.24365116515107066    0.2773822911923696    0.2594381422785153    0.21462361520660242    0.16290468868748775    
  0.12093106920772853    0.09512529501392071    0.08508888658706387    0.08824722782528434    0.10137012846750623    
  0.11983887870096634    0.13637137193729842    0.1430262134728012    0.13637136795713062    0.11983891394977512    
  0.10137013056159314    0.08824721241259549    0.08508887111068796    0.09512531751488731    0.12093107005915678    
  0.16290469811484332    0.2146235951115633    0.2594381159812165    0.2773822911923696    0.35745911201237157    
  0.3370897255038518    0.281911044414441    0.21332806511126023    0.15603365715134965    0.12093107685074514    
  0.10772501220532107    0.11294061804322592    0.13254392263365491    0.1598735459663781    0.18422990084461138    
  0.19412318286540825    0.18422988904405385    0.1598735522789869    0.1325439336929757    0.11294061458272896    
  0.1077250230531496    0.12093106080082937    0.15603367251872008    0.21332804574571704    0.28191103929629646    
  0.33708970693312107    0.35745911201237157    0.4020061286342281    0.3983315853663599    0.36514585503699165    
  0.2911380999429191    0.21332809210007547    0.16290466890860447    0.14433251181826656    0.15260730199454126    
  0.18219732270075953    0.22272540848080796    0.2571283474008824    0.270515772806125    0.25712834107839516    
  0.2227254150504504    0.18219732821002121    0.15260729003850537    0.14433248344648084    0.16290467108013418    
  0.2133280852946327    0.29113814199945554    0.36514575924039055    0.3983315771080091    0.4020061286342281    
  0.2730932841450124    0.31482180319157343    0.38225953348274977    0.3651458276369061    0.28191101494309506    
  0.21462361831756274    0.1890418011861315    0.20092426078367717    0.2419093760762648    0.2941708756357729    
  0.3318823029590665    0.34418392085401706    0.33188227189760683    0.2941709217343884    0.24190942075927585    
  0.20092423662932762    0.18904185205609683    0.21462361510138234    0.28191105647099235    0.3651457571849757    
  0.38225956022458885    0.31482171238611295    0.2730932841450124    0.10789877123430454    0.16334661328963482    
  0.3148218216807371    0.3983316278300378    0.33708976363370724    0.2594381185110697    0.2278649785774125    
  0.2428038396739042    0.29185426132711784    0.3466924456080437    0.3751092023606676    0.38025978734609783    
  0.37510919927576714    0.3466924504078302    0.2918542825020036    0.2428037930234778    0.22786494078220798    
  0.2594381140797489    0.3370897696364382    0.3983316434767661    0.31482180643248553    0.1633466382326828    
  0.10789877123430454    0.05937205008752561    0.10789871601811737    0.2730932608019599    0.4020061527788476    
  0.3574590719388039    0.27738228858309727    0.24365111916139934    0.25981316269147825    0.3112731867654529    
  0.36428263749782636    0.38525639898947206    0.38592479103534943    0.38525644466065473    0.3642825671446932    
  0.3112732190476147    0.25981312967693654    0.2436511578465506    0.27738226284508394    0.3574591102530726    
  0.4020060357970813    0.27309323278502473    0.10789873487691318    0.05937205008752561    0.10823797970771533    
  0.16280282838222077    0.3096232352283404    0.3852192545066583    0.31730670233363095    0.233488675619266    
  0.19299280253536236    0.19354291348059693    0.22486626950223138    0.2717965475771776    0.3118875293233239    
  0.3273896401191496    0.3118875166599868    0.2717964881899971    0.22486630323167675    0.1935429160290795    
  0.19299278181268192    0.23348869016125232    0.31730675107553435    0.3852192324799457    0.30962325529587537    
  0.16280285758338928    0.10823797970771533    0.1645107141529974    0.2191722155544829    0.3418346794086466    
  0.37816368892467134    0.2997168763641524    0.21943616378047942    0.18167864588937982    0.18212332349823845    
  0.21123590792448857    0.25534507119092126    0.29345483271322403    0.30829146054882317    0.2934548042847123    
  0.2553450829923097    0.21123596528001054    0.1821232445047841    0.18167867607079627    0.21943612973321178    
  0.2997168628157385    0.378163687546544    0.341834626551443    0.2191722030135055    0.1645107141529974    
  0.3202953645785725    0.3503726769043396    0.38550626754026684    0.34269341106016854    0.2532137231459133    
  0.18446743672538435    0.15365254675074663    0.1538963196476799    0.17731820814195443    0.2133419704084454    
  0.24535977942154114    0.25814733797834993    0.24535974668553215    0.21334197832295465    0.17731821416489132    
  0.15389630258189513    0.15365251521467127    0.18446746793416316    0.2532136924369939    0.34269344636732824    
  0.3855062447493753    0.35037266995043664    0.3202953645785725    0.41283910720387235    0.4021890302270609    
  0.3561902207286005    0.27555258812569167    0.19638177791143235    0.14431620837005144    0.12138807223455048    
  0.12136215369053667    0.13818574061495428    0.1640789168486756    0.1876625177484242    0.19734254398065326    
  0.1876625378932768    0.16407893443863492    0.1381857716008676    0.12136213165055984    0.12138809889145084    
  0.14431618473306773    0.19638180091408117    0.27555258174370456    0.356190213433542    0.4021890599223687    
  0.41283910720387235    0.3627728488638378    0.34025427725253    0.2810172305636812    0.20926320816729005    
  0.1496823724063424    0.11214823859569915    0.09537246162162868    0.09500318450223753    0.10651484064093097    
  0.12426874975504197    0.14057733887422777    0.14729007213330214    0.14057729183719117    0.1242687696443464    
  0.10651482772589656    0.09500318284366902    0.09537245725332545    0.11214825679539273    0.14968239377788864    
  0.20926322890445812    0.28101720581691164    0.34025428220938475    0.3627728488638378    0.2977355960557822    
  0.27762173420212094    0.2275693993217195    0.1699676172750392    0.12318493365527611    0.0937755587751928    
  0.08044735273271841    0.07975499252605898    0.08803787212089077    0.1011238036504604    0.11323490198291282    
  0.11815728723421555    0.11323494689259508    0.10112379425431155    0.08803788005597325    0.07975496660592094    
  0.08044736601262607    0.0937755569893024    0.12318495475292893    0.16996759447786383    0.22756939527126407    
  0.2776217757958289    0.2977355960557822    0.284441500725216    0.26513341165311133    0.21750468417554333    
  0.16279073808810327    0.1181670472819652    0.09005653372822993    0.07718301847098244    0.07615934384058946    
  0.08348341382957751    0.09530480082062284    0.10629936289404911    0.11076402136506025    0.10629936976269674    
  0.09530481194526061    0.08348341347273026    0.07615932792517147    0.07718299857568013    0.09005655942193926    
  0.11816704179497413    0.16279074397419818    0.21750463239695245    0.26513343197609507    0.284441500725216    
  0.3256320058316328    0.30396540601792166    0.2495057230790233    0.18577623578352565    0.13327715003828805    
  0.10003589010379399    0.08468770258430663    0.08328004651235675    0.09176912781512456    0.10540160051770206    
  0.1180441494319474    0.1232480821190301    0.11804410852360549    0.10540160827365319    0.0917691377224732    
  0.08328003991640293    0.08468772054532778    0.10003586851217713    0.13327719233693672    0.18577620823817148    
  0.24950575815706294    0.3039653658939123    0.3256320058316328    0.3878012175562639    0.36822822947021216    
  0.3110642562519821    0.23389998749108742    0.16564779414283332    0.12155305648468291    0.10123959174944529    
  0.09936518207050246    0.1107083172226238    0.12901163269016908    0.14597643579773045    0.1530131951040687    
  0.14597641705985132    0.12901164401153475    0.11070833063278662    0.09936518727410718    0.10123957350910252    
  0.1215530707224381    0.165647791730619    0.23389998096985273    0.3110642187144262    0.3682282853217922    
  0.3878012175562639    0.3890527197131238    0.39004585652154516    0.3642675176771154    0.29060901007747975    
  0.20709742950137947    0.14947330398323724    0.12280600941032277    0.12029744993915481    0.13540598945502944    
  0.16028674491142264    0.18336612801815177    0.19288407508759556    0.18336609089684933    0.16028672556693394    
  0.13540599960872587    0.12029742713888741    0.12280604104001731    0.14947329550947724    0.20709745257833667    
  0.2906089234090084    0.3642675266871364    0.390045754033522    0.3890527197131238    0.31409247454698386    
  0.3428269317984548    0.37505672759814956    0.33113887276848153    0.24256849304038    0.17402301027567504    
  0.1416788939663231    0.1386301504400349    0.15716288297733808    0.18798618815265986    0.21670053430974512    
  0.2285744775200085    0.21670055418860346    0.18798619598649272    0.15716292066472298    0.13863015633200923    
  0.14167887593806627    0.1740229858145086    0.242568463137781    0.33113888997509594    0.3750567346208031    
  0.34282696125891327    0.31409247454698386    0.2709402493035496    0.30986830814933014    0.36926710935698065    
  0.34447326940413286    0.25659278312270856    0.1838988920448016    0.14920591196751284    0.14598463509359771    
  0.16596625936139237    0.1991933759434129    0.23027849271485673    0.243195137283002    0.23027850062685962    
  0.19919333609539652    0.16596624596637463    0.14598462394094802    0.14920593818846511    0.1838988791211995    
  0.2565928223038463    0.3444732321323871    0.36926711467356593    0.3098683434717126    0.2709402493035496    
  0.3140924517980786    0.3428269368692724    0.3750567304889353    0.33113892540784723    0.24256851159186724    
  0.17402300188188954    0.1416788871758634    0.13863016025137356    0.1571628869551957    0.1879861505314576    
  0.21670055274810252    0.22857448825509535    0.21670049467953492    0.18798617763264627    0.15716293262714162    
  0.1386301391511064    0.14167886334791688    0.17402300143343252    0.24256849640601824    0.3311389434248801    
  0.37505665991062087    0.3428269031578787    0.3140924517980786    0.3890527037905423    0.3900459040633787    
  0.3642674882779963    0.2906090221113595    0.20709741588848543    0.14947329859154768    0.1228059988946953    
  0.1202974689995572    0.13540598805430473    0.160286728823823    0.18336612352337328    0.1928840692305603    
  0.18336614333206497    0.16028672362245047    0.1354060488468792    0.12029743533083638    0.12280599964007785    
  0.14947328257491216    0.20709743837613062    0.2906090128790803    0.3642675340967625    0.3900458257051788    
  0.3890527037905423    0.38780124900608504    0.3682282234145842    0.31106429200674535    0.2338999607696848    
  0.16564777386307347    0.12155303386085627    0.10123962480220464    0.09936518716393325    0.11070832570147264    
  0.1290116190633724    0.14597645564756845    0.15301316024696934    0.1459764326130435    0.1290116299036494    
  0.11070832895994899    0.09936518502554388    0.10123957935799371    0.12155306014542294    0.1656477688194289    
  0.23389997133200044    0.3110642186733883    0.368228268469056    0.38780124900608504    0.32563199582238567    
  0.3039653492496849    0.2495057445638501    0.18577623593954892    0.13327717664199482    0.10003588798792704    
  0.08468768835078766    0.08328005925189184    0.09176909881767129    0.1054016126991281    0.118044128480015    
  0.12324806700430359    0.11804411471128634    0.10540161058218461    0.09176912544302523    0.08328003571669573    
  0.08468771265554308    0.10003586297572521    0.13327716974586523    0.18577622405530392    0.24950572869026574    
  0.303965423259193    0.32563199582238567    0.284441507635207    0.26513336202428583    0.21750467264195267    
  0.1627907396317445    0.11816706141844055    0.09005653141824606    0.07718302125746804    0.07615933427667818    
  0.08348343439717018    0.0953047922955272    0.1062993894421499    0.11076401647217271    0.10629938900240903    
  0.09530481755794151    0.08348342785148767    0.07615932780916163    0.07718300452251066    0.09005655208381964    
  0.11816705313630703    0.16279073104397687    0.2175046570239938    0.265133394126576    0.284441507635207    
  0.2977355905162321    0.2776217591579234    0.22756939147710517    0.16996764907580036    0.12318493377338274    
  0.09377555365565216    0.08044735605654596    0.07975500611107963    0.08803785900808625    0.10112380887820607    
  0.11323492377220307    0.11815728168192062    0.11323492637084012    0.10112380464460882    0.08803787097955801    
  0.07975496373168263    0.08044737205701111    0.09377555988044355    0.12318495365298332    0.1699675996443381    
  0.22756938697608475    0.2776217803703905    0.2977355905162321    0.362772923157458    0.34025426515942025    
  0.2810172383794046    0.20926319547653202    0.1496823940632861    0.11214822404702275    0.09537248491863634    
  0.09500316571051445    0.10651485679680124    0.12426874341034636    0.14057732079666915    0.14729006505784964    
  0.14057728880970685    0.12426876176724518    0.10651483941260359    0.09500317432554779    0.0953724661536746    
  0.11214824788958394    0.14968239641073308    0.2092632312473532    0.2810172089764693    0.3402542768376102    
  0.362772923157458    0.41283908999520247    0.4021890528841533    0.3561901780462565    0.27555259928901055    
  0.19638177496438877    0.1443162322239708    0.12138805875275639    0.12136216346703449    0.13818573564628725    
  0.16407894525207692    0.18766252993252738    0.19734256041568765    0.18766253989380072    0.1640789238126372    
  0.1381857517471062    0.12136214688740295    0.12138809246208986    0.1443162021632967    0.1963818044419035    
  0.2755526248814169    0.3561901360478673    0.4021890466195922    0.41283908999520247    0.3202953639057764    
  0.3503726743662351    0.38550626920109915    0.34269340683117566    0.2532137490611721    0.18446740955071855    
  0.15365251964920454    0.153896310288375    0.17731819773207683    0.2133419472117307    0.2453597570456699    
  0.25814731962104415    0.24535974557451923    0.21334198334998286    0.17731821561249225    0.15389630371902738    
  0.1536525379065176    0.18446748093863416    0.25321369140270333    0.3426933961237806    0.38550624002131934    
  0.35037263911498917    0.3202953639057764    0.16451072864861394    0.219172239389477    0.3418346387983152    
  0.3781637160035832    0.299716890842801    0.21943617070698168    0.1816786567835654    0.182123333316576    
  0.21123591946982845    0.25534510791766357    0.2934548239406415    0.30829148805432893    0.29345482549601815    
  0.25534512559350675    0.21123597911510067    0.18212330109080566    0.1816786647533193    0.21943613200789816    
  0.2997169070900027    0.3781636529069428    0.3418346443945286    0.21917222210261122    0.16451072864861394    
  0.10823797970771533    0.16280282838222077    0.3096232352283404    0.3852192545066583    0.31730670233363095    
  0.233488675619266    0.19299280253536236    0.19354291348059693    0.22486626950223138    0.2717965475771776    
  0.3118875293233239    0.3273896401191496    0.3118875166599868    0.2717964881899971    0.22486630323167675    
  0.1935429160290795    0.19299278181268192    0.23348869016125232    0.31730675107553435    0.3852192324799457    
  0.30962325529587537    0.16280285758338928    0.10823797970771533    0.2709402043834451    0.30986835817214003    
  0.36926706219319055    0.34447333204997577    0.25659274020852774    0.18389891338228606    0.14920588065830692    
  0.1459846882237922    0.1659661901657125    0.19919343185879113    0.230278475646748    0.24319515511230355    
  0.23027847718972505    0.19919338238153886    0.1659662302560813    0.14598466498471965    0.14920592718895204    
  0.18389889305154583    0.2565928247513346    0.34447324377570315    0.36926706094577805    0.30986835056643036    
  0.2709402043834451    0.3140925100537046    0.3428268885434851    0.375056764307831    0.3311388636549606    
  0.2425685213714992    0.1740229924622261    0.1416789104935253    0.13863012487164947    0.1571629059773786    
  0.18798610139477187    0.21670055783049474    0.22857444804480612    0.216700554808687    0.18798614730200924    
  0.1571629476410195    0.1386300853532903    0.1416789025776692    0.17402297447257845    0.2425684940884401    
  0.33113889927847    0.3750567208045042    0.34282688981179144    0.3140925100537046    0.38905266841858976    
  0.3900459069020985    0.36426748450814805    0.290609044600973    0.20709738193832344    0.14947331233940078    
  0.12280599486811018    0.12029747425486528    0.135405973858778    0.16028676729174754    0.18336611107777973    
  0.19288413073408905    0.18336609187958464    0.16028675571578047    0.13540599861346547    0.12029743837379692    
  0.12280600214605433    0.14947329219231417    0.20709741994616207    0.2906090215760195    0.3642674810658883    
  0.39004585089803506    0.38905266841858976    0.38780125220315254    0.3682282178313937    0.31106425247686315    
  0.2338999477707662    0.16564778812560693    0.12155304605240362    0.10123961760464353    0.09936517425519738    
  0.11070834111799552    0.1290115903818277    0.14597644449446812    0.15301316461935321    0.14597643810879057    
  0.1290116245094252    0.11070832890629394    0.09936517856681926    0.10123959187063106    0.12155305105343789    
  0.1656478130469449    0.2338999772772324    0.31106425937419524    0.36822828013744147    0.38780125220315254    
  0.32563199427111794    0.30396537741827634    0.24950571506863206    0.18577623651937356    0.13327716778470428    
  0.10003589235275309    0.08468769361840293    0.08328006552891691    0.09176910386991795    0.10540161039949715    
  0.11804414183292297    0.12324809646267923    0.1180441314027921    0.10540160290647362    0.09176912208072963    
  0.08328002788445489    0.08468771295451151    0.10003588015169075    0.13327718211132963    0.1857762377462221    
  0.24950573993051472    0.30396538882195057    0.32563199427111794    0.28444151286139185    0.26513337669283504    
  0.21750468269609344    0.162790734530086    0.11816705682753444    0.09005652268491601    0.07718301709315786    
  0.07615933541781257    0.08348342565110509    0.09530479229255576    0.10629937644566305    0.11076403949420136    
  0.10629940326957846    0.0953048171950414    0.08348342937605631    0.07615934196741073    0.07718299467331687    
  0.09005655465746519    0.11816705238544138    0.1627907406214466    0.2175046339148206    0.2651334158476424    
  0.28444151286139185    0.29773557126665784    0.27762176876911715    0.2275693796154702    0.1699676242230258    
  0.12318493636020936    0.09377555648161669    0.0804473610336849    0.07975499431917935    0.08803785297001479    
  0.10112380352773402    0.11323492003130894    0.11815728616769144    0.11323493839093383    0.10112377689039169    
  0.08803789373959862    0.07975495835770732    0.0804473668801208    0.09377556112323536    0.12318495825990237    
  0.16996761911659772    0.22756939707265852    0.27762176739885375    0.29773557126665784    0.36277286966903344    
  0.34025429159713544    0.28101722349221325    0.20926324420880957    0.14968236559464654    0.11214826070481904    
  0.09537245646150483    0.095003193763454    0.10651485047399015    0.12426875676480217    0.14057728335994524    
  0.1472901105276405    0.14057728707577655    0.12426878478659957    0.1065148376132537    0.09500319255664712    
  0.09537245236565958    0.11214826517025682    0.14968236057056672    0.20926325373506083    0.2810172031479017    
  0.34025429208041924    0.36277286966903344    0.4128391193898404    0.4021889904249676    0.3561902235679354    
  0.27555254878454793    0.1963817642989358    0.14431620908481832    0.12138808295321137    0.1213621397381199    
  0.13818577145550087    0.16407889831687017    0.1876625583256231    0.1973425233493334    0.1876625663646527    
  0.16407892541105734    0.13818578730008968    0.12136209835932173    0.12138810145174649    0.1443161605885276    