#     DFTpy    
  CRYSTAL 
    
  PRIMVEC    
  5.250756047350005    2.1967217535310347e-05    -5.507586206896552e-13    
  -2.625358999505461    4.547299241184475    -1.0775862068965518e-11    
  -9.056551724137932e-13    -2.0982206896551725e-11    8.633058794692928    
  PRIMCOORD    
  4    1    
  Si    1.3071150476987994e-05    3.031539935087775    4.855006340398527    
  Si    2.6253839766879143    1.5157812732770393    0.5384768793035413    
  Si    1.3071152449663706e-05    3.0315399350865238    8.09458185163664    
  Si    2.625383976696435    1.5157812733107168    3.778052518024499    
  BEGIN_BLOCK_DATAGRID_3D    
  3d_datagrid_density    
  BEGIN_DATAGRID_3D#0    
  23    23    37    
  0.0    0.0    0.0    
  5.250756047350005    2.1967217535310347e-05    -5.507586206896552e-13    
  -2.625358999505461    4.547299241184475    -1.0775862068965518e-11    
  -9.056551724137932e-13    -2.0982206896551725e-11    8.633058794692928    
  0.010192531245402129    0.010445066650237868    0.011299908392065527    0.013074048263802587    0.01633395446278483    
  0.02198127839443608    0.03121877121077177    0.045220320947982964    0.06408997984225573    0.08511682408144466    
  0.10235046769430341    0.10910406447416257    0.10235047138720531    0.08511684703422905    0.06408996182679112    
  0.04522032214654889    0.031218774901104182    0.0219812833281286    0.016333956359599416    0.013074044682131193    
  0.011299901012046115    0.010445066875483801    0.010192531245402129    0.010445064046631586    0.010444643613165501    
  0.01100057513744668    0.012338334136405223    0.014948955291116095    0.019661613225519927    0.027770506375080117    
  0.04085787742737091    0.05998126159613606    0.08391490314766947    0.10746106558803098    0.12251346684053192    
  0.12251825800059338    0.10745847491900477    0.08390528514393944    0.05999121252469944    0.040862161115988574    
  0.02776657530721818    0.01966229269742855    0.014948952302699364    0.012338573141473103    0.011000171330725424    
  0.010445064046631586    0.011299899152085872    0.01100056933955415    0.011299902096137402    0.012338458364382809    
  0.014581620054729953    0.018925841648422242    0.02691339016617719    0.040948899206111736    0.063644174676413    
  0.09563373235387086    0.13242420953429787    0.16317036343823105    0.17531703709528876    0.16317434498677463    
  0.13244376030925534    0.09563352662977224    0.06363316700027043    0.040951790589291145    0.02691700610076176    
  0.01892563271058406    0.014581626215322732    0.012338576470587774    0.011299899152085872    0.01307405004225963    
  0.012338334016537644    0.012338462559632337    0.013073960928984784    0.014949010863740588    0.018925007633408552    
  0.026852540750049326    0.04197917734209616    0.06902110338976195    0.11206034696128622    0.16903095099887516    
  0.2260417441049839    0.2617655010660562    0.26175656796648866    0.22601916680962147    0.16904273631143857    
  0.11207110388935503    0.06902639827575481    0.04198007972923718    0.0268498798050682    0.018925633497596676    
  0.014948958192856004    0.01307405004225963    0.016333952373581713    0.014948953911966203    0.014581627526366096    
  0.014949010999380166    0.01633421262523541    0.01966253487278361    0.026913925949710864    0.041979078840955565    
  0.07151144628071694    0.12387408982340124    0.20212645175467553    0.29063527973434694    0.3563686022029991    
  0.37888435638110574    0.35641248875098297    0.290632010355399    0.20211560958082078    0.12388540256118448    
  0.07150790683878691    0.041980077564700256    0.02691699889912572    0.019662299221587718    0.016333952373581713    
  0.021981273334128616    0.019661610479664117    0.01892584412748639    0.018925012293506578    0.019662526436125177    
  0.021979892730302132    0.027771279111152097    0.04094926871321271    0.06902322739233605    0.12388080280560154    
  0.21553990633258807    0.3298902697479913    0.41620009968286237    0.4463902050796528    0.4463751187900082    
  0.41621610857174696    0.32993158042401033    0.2155308204913799    0.12388537144345015    0.06902639511815677    
  0.04095176754714082    0.027766584555636017    0.021981273334128616    0.031218757562770472    0.027770506432349372    
  0.02691338846554426    0.026852544490193933    0.026913913512315216    0.027771271070138267    0.031215702096556382    
  0.04086329905434924    0.06363798227208087    0.1120689960805184    0.20210855091193597    0.3299220266290153    
  0.43231740978919464    0.4495882793827679    0.4368624876076305    0.4495736547321475    0.4323261747962651    
  0.3299315814780262    0.20211560102237236    0.11207110457778693    0.063633162007441    0.040862164009530834    
  0.031218757562770472    0.04522030910373308    0.040857862039485215    0.040948896008716415    0.04197917533512763    
  0.0419790611257854    0.04094925142183506    0.04086329506824511    0.04522080798366953    0.059985256674731036    
  0.09563891489449211    0.1690360373460021    0.29064268556812056    0.4162155004950905    0.4495681279117945    
  0.4108913224189823    0.41092090500090406    0.44957364013281326    0.4162160547757144    0.2906320282694646    
  0.16904277169161686    0.09563352061181565    0.05999122826882121    0.04522030910373308    0.06408996094646033    
  0.05998124074376185    0.06364414931797402    0.06902107680740487    0.07151144207821207    0.0690232191340244    
  0.06363796639143583    0.05998525307964659    0.06409820212923685    0.0839062776072115    0.13244448090939398    
  0.22602421086817565    0.3564054451658554    0.44633167978579663    0.43691374982528003    0.4108913426892047    
  0.43686252872821646    0.4463751441958304    0.3564124859291529    0.22601924780228294    0.13244376496214566    
  0.08390530831174033    0.06408996094646033    0.08511685618702385    0.08391490635738841    0.09563375265165101    
  0.11206036726315304    0.12387408357518838    0.12388080938297558    0.11206899044844619    0.09563894155406845    
  0.0839062863978855    0.08512598960979996    0.10745911252185075    0.16318421517316625    0.26175977932446987    
  0.37891965488881485    0.44633172443913194    0.44956820036366596    0.4495882413322246    0.44639031428334547    
  0.3788843153635358    0.26175652542313804    0.1631743077733851    0.1074584973364958    0.08511685618702385    
  0.10235044671353413    0.10746104899894086    0.132424208620288    0.16903088092455354    0.20212642327588523    
  0.215539831787697    0.20210849080724339    0.16903600137566488    0.13244446685328332    0.10745908340015299    
  0.10235729172432803    0.12251956187880608    0.1753239601083009    0.2617597651326676    0.3564054104429613    
  0.41621548425050886    0.4323173187262176    0.4162000239872541    0.3563685772279045    0.261765528453318    
  0.175317033586777    0.12251826541089987    0.10235044671353413    0.10910404639240426    0.12251344593867301    
  0.16317034053324916    0.22604166031537956    0.29063519540934896    0.3298901937458497    0.3299219914368038    
  0.2906426618673615    0.22602419565645573    0.16318414364302927    0.12251953932480433    0.1091104366057591    
  0.12251954733591504    0.16318418761068865    0.22602421764834663    0.29064263579849514    0.32992201088469525    
  0.32989021919266137    0.29063523417276105    0.22604166494344508    0.1631703521336854    0.12251346885675476    
  0.10910404639240426    0.10235045478388126    0.12251821372261083    0.17531708488686476    0.2617654749995467    
  0.3563685270241151    0.4162000593308456    0.4323172869952107    0.4162154630944659    0.3564054015950679    
  0.26175972779863804    0.17532395481848723    0.12251954073744963    0.10235727349997369    0.10745908962114051    
  0.13244442565364406    0.1690359825695766    0.20210846132744384    0.21553987724317433    0.20212644911649005    
  0.1690308952475443    0.13242417723139674    0.10746105713933797    0.10235045478388126    0.08511685059018813    
  0.10745847955836482    0.16317430357151877    0.2617565398577197    0.37888429767464743    0.4463902385013495    
  0.44958819682257456    0.44956826557527185    0.4463317088725768    0.37891958239998674    0.2617598331874392    
  0.1631842094922681    0.10745909498099425    0.08512602453238148    0.08390628406466806    0.09563893197213211    
  0.11206899183130882    0.12388081114917857    0.1238740911298388    0.11206038115008896    0.09563375262821056    
  0.08391492870883512    0.08511685059018813    0.06408996404427342    0.08390529779766603    0.13244377853704778    
  0.226019153917254    0.3564124922595479    0.446375152966634    0.4368625411921048    0.4108913815420555    
  0.43691391342309616    0.4463315918973216    0.3564054674193365    0.2260242354070411    0.13244444070040645    
  0.08390630984977883    0.06409820555616537    0.05998525308879004    0.06363798683199913    0.06902324136625863    
  0.07151144303877272    0.06902110354507293    0.06364413554006823    0.05998126672703577    0.06408996404427342    
  0.04522031501938215    0.05999120559698912    0.0956335504817914    0.16904270740703214    0.2906320119270231    
  0.41621608455353126    0.4495736894425163    0.410920887595052    0.410891413326325    0.449568202343668    
  0.4162154953407856    0.2906426815408862    0.16903600097637153    0.09563890703287678    0.059985233651821956    
  0.04522079490535928    0.040863290663693805    0.04094926103041422    0.041979061442646536    0.041979174270369374    
  0.040948897292868304    0.04085786990393653    0.04522031501938215    0.03121876738476617    0.04086214837470478    
  0.06363316728142035    0.11207108709492784    0.20211559586655628    0.32993154287285814    0.43232620925926424    
  0.44957374856837806    0.436862613287052    0.4495882774046713    0.4323173756601452    0.3299219982965775    
  0.2021084967528501    0.11206898307411435    0.06363798946575573    0.04086329184557691    0.031215701151706524    
  0.027771274794431464    0.02691391710160279    0.026852547939476896    0.026913381337018028    0.027770518558701655    
  0.03121876738476617    0.021981272334014455    0.027766571720314128    0.04095179077462925    0.06902638479305966    
  0.12388535526298346    0.21553081693935494    0.32993154907845024    0.416216058425439    0.44637517328586523    
  0.44639023192487476    0.41620007294297434    0.3298902112757518    0.21553989411043994    0.12388080807715282    
  0.06902323455675194    0.04094925470835354    0.027771281368828407    0.021979895382092496    0.019662535816667687    
  0.01892501206341705    0.018925838780314053    0.019661617311131346    0.021981272334014455    0.016333956775013564    
  0.019662287944232432    0.026917002441721804    0.04198007334453072    0.0715079097068595    0.12388536001198687    
  0.20211561338831277    0.2906320098603812    0.35641247271217985    0.37888424062694515    0.35636862875973385    
  0.29063525007644797    0.20212645181084582    0.12387408168022436    0.07151143824394406    0.04197906481286396    
  0.026913921582222503    0.019662534942507068    0.016334209773928087    0.01494901161844048    0.014581623522323233    
  0.014948960318551896    0.016333956775013564    0.013074052468203291    0.014948949565357705    0.01892564346321471    
  0.02684987019736549    0.0419800671962914    0.06902638287012494    0.11207106974478878    0.16904275117268955    
  0.2260192050215312    0.26175647133504276    0.26176548870754607    0.226041689477112    0.1690308923402787    
  0.11206037633734953    0.06902107932329146    0.04197917678271641    0.02685254133642324    0.018925009646535075    
  0.014949010169347939    0.013073969560864927    0.012338457431419989    0.012338338483136107    0.013074052468203291    
  0.011299899868674558    0.012338568367176306    0.014581637073838765    0.018925636766164697    0.02691699069247119    
  0.04095177947585491    0.06363316635177962    0.09563353983577723    0.13244379041318052    0.16317427896763945    
  0.17531706323169127    0.1631703781060254    0.13242421601411636    0.09563378212420946    0.06364413485324487    
  0.0409488943326716    0.026913388808276546    0.018925845215675825    0.01458162509588212    0.012338456016012026    
  0.011299895874956134    0.01100057592962339    0.011299899868674558    0.010445064150137314    0.01100016324386228    
  0.012338577647220992    0.014948954791246093    0.01966229240818795    0.027766576018510816    0.04086214944657684    
  0.05999122518660416    0.08390530639385566    0.10745847888145929    0.12251824133944228    0.12251346810375255    
  0.10746106065243015    0.08391492953648655    0.05998124145218697    0.04085786515934733    0.02777051730603499    
  0.019661623215036627    0.014948954074057257    0.012338328909780847    0.011000572537569414    0.010444650166427474    
  0.010445064150137314    0.010192531245402129    0.010445066650237868    0.011299908392065527    0.013074048263802587    
  0.01633395446278483    0.02198127839443608    0.03121877121077177    0.045220320947982964    0.06408997984225573    
  0.08511682408144466    0.10235046769430341    0.10910406447416257    0.10235047138720531    0.08511684703422905    
  0.06408996182679112    0.04522032214654889    0.031218774901104182    0.0219812833281286    0.016333956359599416    
  0.013074044682131193    0.011299901012046115    0.010445066875483801    0.010192531245402129    0.010042363095968072    
  0.010294340980907037    0.011142819617070445    0.012889410994537382    0.016079836176648512    0.021587624027734238    
  0.030574700466081916    0.044139685512583814    0.062330900713177775    0.08253615162106634    0.09904773466514476    
  0.1055059306121502    0.09903877548965419    0.08253577587824207    0.06235683978421184    0.04413419333476947    
  0.030563332814269116    0.021590784683501722    0.016080189440610102    0.012889835121854723    0.011142628460863795    
  0.010294423645780305    0.010042363095968072    0.010294417009235205    0.010293960162960332    0.010896454716096004    
  0.012336583409142114    0.015143830359428654    0.020239892233989143    0.029103666767322813    0.043609466589440087    
  0.06504678953988013    0.09207385191309732    0.1188035297909617    0.1359108724472186    0.13592583067618957    
  0.11880466968020147    0.09204078176873742    0.0650560972149645    0.04362685239660313    0.029099310750026523    
  0.0202400473702282    0.015143487950268968    0.012336933155169181    0.010896076019082181    0.010294417009235205    
  0.011142628570165628    0.010796621468945373    0.011142744446982966    0.012336699743425453    0.014906188577917702    
  0.019924535251687754    0.029322876037935857    0.04617622486373345    0.0739648159588276    0.11379560526070394    
  0.16001586638587495    0.19863621424427474    0.21381578719471833    0.198638487955963    0.1600719022512848    
  0.11378710477733919    0.07394435971654782    0.046183117747183075    0.02932456179548129    0.01992511162764944    
  0.01490619495531122    0.012336939596269624    0.011142628570165628    0.012889840484474406    0.011998622674183522    
  0.01199900084573091    0.012889326492136297    0.015144002548950746    0.019924192558779558    0.029610011973522886    
  0.048539389968316624    0.08319332638576485    0.13934155501831463    0.21375174722027504    0.2861707619474267    
  0.3294075702031096    0.3293848884246261    0.2860919964161475    0.21377903661788827    0.13938132574659753    
  0.08318577401407813    0.04854120774455095    0.02960917448538907    0.019925108922065716    0.015143492512074922    
  0.012889840484474406    0.01608018524033816    0.014315658621774623    0.013839719595663474    0.014315662007191993    
  0.016080494596395215    0.02023959412120903    0.029324516877027543    0.04853874057045138    0.08712981767917928    
  0.1568651771388164    0.25982596915324935    0.36593675439886664    0.4280327445096807    0.44309540758401134    
  0.428158856797302    0.36592253021329646    0.2597714465950211    0.15689007079901027    0.08713204733832523    
  0.04854120244325359    0.029324547865312297    0.020240052197540468    0.01608018524033816    0.0215907722867897    
  0.01843773915354774    0.01734544433592745    0.01734211582763443    0.018441407313309146    0.02158653090257314    
  0.029104893598698618    0.04617525191171447    0.08319591602868395    0.15687049433381367    0.2777938940548598    
  0.40647785315272433    0.452371529129085    0.4251754968454626    0.4251168222221917    0.45238153045382873    
  0.40660515983867423    0.27774683148819734    0.15689006968222075    0.0831857819033862    0.04618310220696947    
  0.029099313963137634    0.0215907722867897    0.030563318598802677    0.02540559017829617    0.02360132954986444    
  0.02324063368903321    0.02360116829156865    0.025406559117917792    0.030562573148095823    0.0436284006461153    
  0.07394196060463241    0.13938363918548013    0.2597552939198694    0.40658056687891436    0.44413962967610054    
  0.3440998558671484    0.28384357714445463    0.3440838154127941    0.4441214943398391    0.40660511001932553    
  0.2597714787663921    0.1393813396603256    0.07394436760178058    0.043626855287862844    0.030563318598802677    
  0.04413419260748623    0.03637230152320656    0.034249100550863984    0.034073440203061515    0.03407285166522885    
  0.03425064129663479    0.036372139933560664    0.04413673726253015    0.06505346657415219    0.11379312381049757    
  0.2137630128197994    0.3659467148469948    0.45240194814324763    0.34405169621241405    0.2147658291016985    
  0.21482496404820597    0.3440838408460545    0.4523815041787282    0.3659225410600839    0.2137790642326446    
  0.11378708302793378    0.06505612401578026    0.04413419260748623    0.06235684947376118    0.05205996904150892    
  0.050925873940824484    0.052728589552910723    0.05388116460266993    0.05273023851147687    0.05092454917852158    
  0.052063558449086014    0.062356668878397074    0.09204747358489047    0.16006904341202    0.28610771888262804    
  0.4281324681166875    0.4250255415829428    0.28396449071724644    0.214765838567472    0.28384354820177404    
  0.42511687253351627    0.42815884902811263    0.2860920454547807    0.16007188758501165    0.09204080996843744    
  0.06235684947376118    0.08253577360726815    0.07141234376764435    0.07376074253970472    0.08149391113761055    
  0.08775512189766688    0.08776677946410627    0.08148609570305212    0.07377301171866543    0.07140447344990403    
  0.08254893392490516    0.11879482643857614    0.19866020716564137    0.3293864402701233    0.4431866239508242    
  0.4250254578912769    0.34405174499943253    0.3440998165103061    0.425175462700023    0.443095389472947    
  0.3293848644345973    0.1986384192867442    0.11880468234843122    0.08253577360726815    0.09903873357606911    
  0.0902103831000133    0.09951617380260655    0.1188089116726247    0.13766296565190364    0.1455953303392292    
  0.1376636337212162    0.11880920438450174    0.09952411834701727    0.09020985934899667    0.09904877096190849    
  0.13592560049800745    0.21381842657648129    0.3293863786067414    0.4281324251244675    0.4524019508079497    
  0.4441396509470512    0.45237147878998357    0.42803272024134026    0.3294075854866688    0.21381581081320444    
  0.13592584435004548    0.09903873357606911    0.10550592295780407    0.1021447995728498    0.1208228993219671    
  0.1562208124174506    0.19614389314780795    0.22278925696632682    0.22279443001161064    0.19614868316986978    
  0.1562216421168903    0.1208285891787944    0.10214898064649276    0.10550983229428511    0.13592560268961212    
  0.1986601958755506    0.2861076645062695    0.3659466395179953    0.40658053588229026    0.40647778828605685    
  0.365936729025396    0.28617067095710685    0.1986361791598746    0.13591085417922014    0.10550592295780407    
  0.09904774189924052    0.10214563491751802    0.12921601293879076    0.18011620835920417    0.24421226761596507    
  0.2972176239172123    0.3172125310514464    0.2972221966560255    0.24421871628195704    0.18011872106775895    
  0.12922113698462176    0.10214897498183842    0.09904877458164002    0.11879480857899702    0.16006896850119673    
  0.21376294567185497    0.2597552622014622    0.27779387426343494    0.2598259346542763    0.21375170359656367    
  0.16001586127351863    0.1188035371676147    0.09904774189924052    0.08253616710605333    0.09020284220851732    
  0.12082457758076931    0.18011527436255995    0.2626589819013942    0.3407544338617536    0.38332996949334874    
  0.38332355283323477    0.3407490486210099    0.2626667537765105    0.1801187660573772    0.12082865417539312    
  0.0902098417178046    0.08254894652479655    0.09204747119705806    0.11379313298306992    0.1393836450092776    
  0.15687050406726633    0.15686521390213792    0.13934157489058585    0.1137956192504444    0.09207390832855855    
  0.08253616710605333    0.062330875617275634    0.07141073992530655    0.09952515974551616    0.1562201328587215    
  0.2442205897085384    0.3407573907225852    0.40446074104276053    0.4229070743370605    0.40446667693557775    
  0.3407489745423801    0.24421875253164374    0.15622166741588014    0.09952411711830043    0.07140448508070187    
  0.06235666047263716    0.06505346227861702    0.07394196338550368    0.08319592946528392    0.08712979600187468    
  0.08319330417915838    0.07396476259549334    0.06504678922738519    0.062330875617275634    0.04413967970562769    
  0.052081646724388406    0.07376474791592091    0.11880721933554995    0.19614550841809103    0.29722514042060005    
  0.3833253865811412    0.4229118678315452    0.42290716545856327    0.3833235099425004    0.29722215729980395    
  0.19614872430903468    0.11880917768760886    0.07377299572636149    0.05206354538419786    0.04413671831361308    
  0.04362838779149148    0.04617524882526998    0.048538719273296005    0.048539388971709146    0.046176219913521055    
  0.043609461886526944    0.04413967970562769    0.030574704504658566    0.03636952951862864    0.05090607091487047    
  0.08149316205851398    0.13766901092006825    0.22279876179958857    0.3172199641733273    0.38332547149367396    
  0.4044608604070367    0.38333002901634977    0.3172125755115673    0.22279442341820535    0.1376636611456451    
  0.08148610362498593    0.05092455765306163    0.036372135049887504    0.030562581678774174    0.02910488892536022    
  0.029324506214784735    0.02961001188641368    0.02932286068540322    0.029103674210399583    0.030574704504658566    
  0.021587621668923345    0.02539495508992266    0.03425216168152491    0.05274839967460076    0.08776281472596362    
  0.14559360448157932    0.22279872500247405    0.2972251520646962    0.34075740654481657    0.3407544301522814    
  0.29721767176651004    0.22278928890208238    0.1455953920675452    0.08776680020210974    0.052730237507457346    
  0.03425064285090009    0.025406559287780028    0.02158653231536492    0.020239592087784666    0.019924194491528234    
  0.019924526758235563    0.020239891953248608    0.021587621668923345    0.016079837889468235    0.01844019667490564    
  0.023611463962366745    0.03407309885991201    0.05386405391280837    0.08776281640538162    0.13766901132293213    
  0.196145585600031    0.2442206042527347    0.26265892393811363    0.24421232486034997    0.19614393081826073    
  0.1376629963110273    0.08775512738378133    0.05388114975866664    0.03407286689554568    0.02360118171626726    
  0.01844141761678714    0.01608049165415373    0.015144001003171755    0.01490619408308794    0.015143833752697466    
  0.016079837889468235    0.012889415304045455    0.014315946741937735    0.01734359912315247    0.02323108747031659    
  0.03407310663836917    0.052748404058973415    0.08149317956411843    0.11880727220302384    0.15622018289799908    
  0.18011524431127438    0.1801162672319501    0.15622079565126237    0.11880891139612154    0.08149393924306038    
  0.05272858827401598    0.034073444343534515    0.02324063136987437    0.017342112705721134    0.014315659591900171    
  0.012889333223483629    0.012336701019438177    0.012336587202082241    0.012889415304045455    0.011142811438557476    
  0.011998897422620695    0.013839492026128782    0.01734358983924415    0.02361145008159611    0.034252155306044134    
  0.05090607262710478    0.07376475310083402    0.09952516504681032    0.12082453723923353    0.1292159820087351    
  0.12082288892265022    0.09951618197456068    0.07376075088640119    0.050925859636345425    0.034249093787569504    
  0.023601328147433546    0.017345446577319353    0.013839718863458455    0.011998994135895426    0.011142738494495317    
  0.010896454062062492    0.011142811438557476    0.010294337966244226    0.010796186704204189    0.01199890881223047    
  0.014315950406105886    0.01844019638609173    0.025394964504748287    0.03636952259128375    0.05208166647256273    
  0.07141075081722927    0.09020280877355491    0.10214562838433831    0.10214481651744416    0.09021040337409991    
  0.07141234910561774    0.05205997111506665    0.03637229420324963    0.025405595584473906    0.01843774877884385    
  0.014315659421502498    0.011998616408804352    0.01079662087578335    0.0102939663018435    0.010294337966244226    
  0.010042363095968072    0.010294340980907037    0.011142819617070445    0.012889410994537382    0.016079836176648512    
  0.021587624027734238    0.030574700466081916    0.044139685512583814    0.062330900713177775    0.08253615162106634    
  0.09904773466514476    0.1055059306121502    0.09903877548965419    0.08253577587824207    0.06235683978421184    
  0.04413419333476947    0.030563332814269116    0.021590784683501722    0.016080189440610102    0.012889835121854723    
  0.011142628460863795    0.010294423645780305    0.010042363095968072    0.009627498136384288    0.00987290222918294    
  0.010694840596623047    0.012361692237441838    0.015358256924543592    0.020461923529936667    0.028698011888666306    
  0.04098861479346752    0.05726839377286882    0.0751544674483452    0.08966332248159377    0.095313794529773    
  0.08964851357659638    0.07515157563880244    0.057305231541546715    0.04098293932249395    0.028680056470594597    
  0.020466911930002205    0.01535895948301076    0.012362308220997376    0.010694608170850736    0.009873014224597063    
  0.009627498136384288    0.009873009810809583    0.00987269606663238    0.010493541926720916    0.011966427624331246    
  0.01481989206765352    0.019975231536063797    0.02892861965840212    0.043605078329251735    0.06530943219511036    
  0.09266321672050071    0.11966899970132087    0.13689886976418905    0.1369211087616686    0.11967727943259898    
  0.09261544027061888    0.06531952939374329    0.04363089174881454    0.02892256354251281    0.01997505231208274    
  0.014819534711265639    0.011966752646645144    0.01049330951606458    0.009873009810809583    0.010694605659338717    
  0.010324156525263417    0.010694679961675689    0.011966567273747316    0.014692802278626458    0.02001878370436347    
  0.030036979890078173    0.04811642351343522    0.0781136013457771    0.12131516355064874    0.1714921379400688    
  0.21320443767224506    0.22948715450914106    0.21319757627960528    0.17157024649292735    0.12130630426130373    
  0.07808044495520561    0.04812746855938858    0.03003896997888938    0.020019529183456636    0.014692842228834964    
  0.011966758959464132    0.010694605659338717    0.012362312292612018    0.0113861048067325    0.011386670650543343    
  0.012361626775095655    0.01482010746449991    0.02001853838377534    0.030598466479181394    0.05146109897843307    
  0.09000961543832475    0.15282199542399869    0.23556488948120233    0.31397748769301886    0.3588382195265758    
  0.3588187747642574    0.31386517980272544    0.2355947664117194    0.15288409005377926    0.08999745324209807    
  0.051461780239420135    0.030597876549271846    0.020019522446430536    0.014819545115703684    0.012362312292612018    
  0.015358957043825646    0.013377775877987661    0.012838017261591278    0.013377621668973199    0.015359523875960257    
  0.019973960043886477    0.030039771393945196    0.051457873460555435    0.09489921028817727    0.17384644325379803    
  0.28859093397340463    0.3977091867278112    0.44745820033280714    0.45346446616485797    0.4476195227184946    
  0.3976994522702875    0.2885004769461776    0.17388147290493067    0.09490169801222438    0.051461771418658195    
  0.030038969142320703    0.019975060996536103    0.015358957043825646    0.020466905009173444    0.016835410858835755    
  0.01552459471513796    0.015519643299983631    0.01684075188358666    0.02046075493540861    0.028930497142586956    
  0.048115342367036226    0.09001354963072933    0.1738531394634966    0.3086222752092427    0.43340870822693006    
  0.4366325481306094    0.36956338282058754    0.3694937068361423    0.4366315098278293    0.43359555217114765    
  0.3085467986134141    0.17388146514020458    0.08999746419578054    0.04812745863082896    0.028922565858809986    
  0.020466905009173444    0.028680040121090506    0.022539062577636326    0.020148924150716445    0.019591899253117547    
  0.020148692678289247    0.022539769163309825    0.02867946901223452    0.043632387951200904    0.0780784369827797    
  0.1528843459704141    0.28848280143542904    0.4335521210739828    0.4099518108591961    0.2497848673170709    
  0.17876117905671768    0.24977980523612212    0.4099040403419876    0.43359551347086356    0.28850045169577443    
  0.15288410557401866    0.07808045799920703    0.04363089989209157    0.028680040121090506    0.04098294428355287    
  0.031224380811371067    0.027706013920761597    0.02672917163937542    0.026728287674682    0.027707835889902756    