#     DFTpy    
  CRYSTAL 
    
  PRIMVEC    
  1.3735258891948183    -2.3790166255966456    0.0    
  1.3735258891948183    2.3790166255966456    0.0    
  0.0    0.0    2.585419774344827    
  PRIMCOORD    
  1    1    
  Si    0.0    0.0    0.0    
  BEGIN_BLOCK_DATAGRID_3D    
  3d_datagrid_density    
  BEGIN_DATAGRID_3D#0    
  13    13    11    
  0.0    0.0    0.0    
  1.3735258891948183    -2.3790166255966456    0.0    
  1.3735258891948183    2.3790166255966456    0.0    
  0.0    0.0    2.585419774344827    
  0.05583875592996188    0.09781221477673872    0.24450941748831    0.3817354249399477    0.3641934393684356    
  0.2960174678656572    0.2678150299839864    0.29601744753884907    0.3641934738992623    0.3817354392214292    
  0.24450941174554444    0.09781221718363861    0.05583875592996188    0.09781221614593616    0.09780810863821625    
  0.19664811431760973    0.3489152188847012    0.3846168413285523    0.3192576246298795    0.26779730431107773    
  0.26779096235735284    0.31926678386461466    0.3846203308806927    0.34885731949446824    0.19668937034333012    
  0.09781221614593616    0.24450943662402289    0.19664806547850233    0.24455859838582794    0.34887608749252286    
  0.3877342648656987    0.331120957418358    0.2673346851490158    0.24367725528015327    0.2673356748938527    
  0.3311021133502601    0.3878033317216594    0.34885732623940924    0.24450943662402289    0.3817354593659128    
  0.348915270512013    0.3488761135061315    0.38171892334510404    0.3845888991431224    0.33117347842498857    
  0.2668584897980785    0.23027848721252467    0.23026110609601225    0.26688948165761706    0.3311021469350719    
  0.38462040283809407    0.3817354593659128    0.3641934324899868    0.38461679438472657    0.3877342458621068    
  0.3845888792299417    0.36424055810043915    0.31927375229625937    0.2672909233926716    0.2302711818695909    
  0.21754126600714319    0.23026110320342863    0.2673356414224337    0.3192667561511694    0.3641934324899868    
  0.29601747013814095    0.3192575534597098    0.33112095802021024    0.3311734727027377    0.3192737773974585    
  0.29596529589594783    0.26779192094138454    0.24371758385202072    0.23027125991965397    0.2302784613353866    
  0.2436772736373935    0.2677909879889523    0.29601747013814095    0.2678150103009112    0.26779731862227474    
  0.26733468494507406    0.26685848379120686    0.2672908905019434    0.26779191276197095    0.2678639847421356    
  0.267791925253616    0.267290922762721    0.2668584690714425    0.26733471372840795    0.26779728523680135    
  0.2678150103009112    0.2960174359202759    0.26779097460317935    0.24367728598493102    0.23027848083212762    
  0.23027122646685974    0.24371759740135057    0.26779191379738454    0.29596527286404384    0.319273769226539    
  0.3311734798307103    0.3311209433365426    0.3192575993491617    0.2960174359202759    0.3641934510481844    
  0.31926675413250705    0.26733567967916744    0.23026111113193504    0.21754122504878906    0.23027123859923465    
  0.26729089477828655    0.3192737284743333    0.36424061112208606    0.384588912720986    0.38773416217926576    
  0.38461684639246363    0.3641934510481844    0.38173544923728897    0.3846203642146499    0.3311021118979853    
  0.26688952559065604    0.23026108489565672    0.23027851115088802    0.2668584545962493    0.3311734692438415    
  0.38458892510524717    0.38171886551348794    0.34887611827496456    0.3489152930129407    0.38173544923728897    
  0.2445094161181317    0.3488572846342166    0.38780340504294236    0.33110211117543253    0.2673356851964697    
  0.24367728934883248    0.2673346925236871    0.3311208896775178    0.38773423732849194    0.34887612806243257    
  0.24455855572127813    0.19664806767835688    0.2445094161181317    0.09781222299193325    0.196689350706732    
  0.3488573550818066    0.384620364132557    0.31926677032138767    0.2677909742134296    0.26779729652509904    
  0.3192575421201666    0.3846168934850332    0.3489152424568728    0.19664807870858161    0.09780812158758373    
  0.09781222299193325    0.05583875592996188    0.09781221477673872    0.24450941748831    0.3817354249399477    
  0.3641934393684356    0.2960174678656572    0.2678150299839864    0.29601744753884907    0.3641934738992623    
  0.3817354392214292    0.24450941174554444    0.09781221718363861    0.05583875592996188    0.11328026255995101    
  0.1628808906972194    0.2979696855388164    0.38509218881902796    0.3424247061396235    0.27418664346334315    
  0.24776482005631795    0.27418663213131167    0.3424247118052154    0.3850922171663217    0.2979696964594597    
  0.16288089584796905    0.11328026255995101    0.16288091748748995    0.16284663288918858    0.258375520895158    
  0.3701121694511844    0.3679758979969183    0.2965338014522496    0.24772646830662073    0.24771574864593093    
  0.2965467231838291    0.3679702642100767    0.3700795241455497    0.25839391697563746    0.16288091748748995    
  0.29796969578463034    0.2583754801849894    0.29803844294473125    0.37007866951533663    0.3742478661037932    
  0.30846639560231154    0.24735623363679518    0.2254254910397427    0.24735647526711332    0.3084559397711406    
  0.3742904371704162    0.3700795576978999    0.29796969578463034    0.38509219448355547    0.3701121931744693    
  0.3700787301055926    0.38505929572033526    0.3679546136761905    0.30850426847257667    0.247018897232622    
  0.21314606635314426    0.2131338647703676    0.24703968169529247    0.3084559919680306    0.3679703059081948    
  0.38509219448355547    0.34242471665939866    0.3679758719697898    0.3742478839968714    0.3679546232048572    
  0.34247836585687774    0.29654579576439666    0.24732641865878754    0.21314012033412538    0.20145739390019604    
  0.2131338387593681    0.24735641260147187    0.2965467014143806    0.34242471665939866    0.27418665600814557    
  0.29653377984370927    0.3084664122013563    0.3085042551527074    0.29654579116321067    0.27413429302747205    
  0.24771900590449233    0.22545443656769334    0.213140160751187    0.21314607827905768    0.225425487234687    
  0.24771577827711339    0.27418665600814557    0.2477648152734857    0.24772651207390448    0.24735623917712038    
  0.2470188951552297    0.2473263884765986    0.24771901179724853    0.24781609591105666    0.24771902032968315    
  0.24732637904714652    0.24701888337668057    0.2473562423932001    0.24772647634436776    0.2477648152734857    
  0.27418662984067277    0.24771574866161547    0.22542552354137796    0.2131460987295867    0.21314013071627208    
  0.2254544514702379    0.24771901431973709    0.2741342826530807    0.2965458129119588    0.30850425470036563    
  0.3084663832289752    0.2965337947203445    0.27418662984067277    0.34242470346363585    0.29654668149890695    
  0.2473564575699553    0.21313381835850248    0.2014573580827334    0.21314015166947753    0.24732638811233396    
  0.29654578545968846    0.34247837484275934    0.3679546265222876    0.3742478100852023    0.36797590888003    
  0.34242470346363585    0.38509218866551453    0.3679702891443287    0.30845596784144047    0.2470397255178961    
  0.21313383867455257    0.21314610100789352    0.2470188703734979    0.30850421857995214    0.3679546169966597    
  0.38505923971225675    0.3700787282880465    0.3701122372268652    0.38509218866551453    0.29796970593380345    
  0.3700795247935966    0.37429049173909323    0.3084559550091953    0.247356414771033    0.22542548800842993    
  0.2473562387363838    0.30846640556058236    0.3742478439762557    0.3700787294889215    0.2980383914479387    
  0.258375498846096    0.29796970593380345    0.1628809177142294    0.25839388804961805    0.37007957423859533    
  0.36797030188223945    0.29654670990153564    0.24771575229024617    0.24772648276074602    0.29653374681966466    
  0.3679759439810225    0.37011219010707413    0.25837550945540166    0.16284665927171468    0.1628809177142294    
  0.11328026255995101    0.1628808906972194    0.2979696855388164    0.38509218881902796    0.3424247061396235    
  0.27418664346334315    0.24776482005631795    0.27418663213131167    0.3424247118052154    0.3850922171663217    
  0.2979696964594597    0.16288089584796905    0.11328026255995101    0.3116356612428731    0.3426014708926944    
  0.38701627564236846    0.3621541339493075    0.28441857238911855    0.22161164264707373    0.1998710896338594    
  0.22161163349923854    0.28441861216393566    0.3621541816007461    0.387016275407883    0.3426014360982527    
  0.3116356612428731    0.3426014731435311    0.34256837776177396    0.37933593566036516    0.38007244699591464    
  0.31542521714535227    0.24117863484927662    0.20000389783860573    0.20000174362745693    0.24118114667110518    
  0.3154225249513767    0.3800671170242208    0.3793350928861303    0.3426014731435311    0.3870162804958408    
  0.37933587298546234    0.3870533429470842    0.3800613476542721    0.32603415912217343    0.252605567924421    
  0.20016408797788598    0.1823624114115684    0.2001636490120279    0.25260607952170827    0.32604067081308596    
  0.3800671226111156    0.3870162804958408    0.36215415920226934    0.38007245512748916    0.38006141625435536    
  0.36213496501883236    0.3154203132844739    0.25261679590471064    0.2001893890582993    0.17270215116832152    
  0.1726997385879331    0.2001924654369021    0.2526061059108916    0.31542256238597427    0.36215415920226934    
  0.2844185558134149    0.3154252129589683    0.3260341639763578    0.31542030046479624    0.28444114483204624    
  0.24117927123413962    0.2001566847789074    0.1727000171573247    0.16334346042751355    0.17269974584288628    
  0.200163603739827    0.24118116459548813    0.2844185558134149    0.2216116309819331    0.24117858739994572    
  0.252605554298093    0.2526167883912889    0.24117927047665452    0.22159337335796947    0.20000180408833565    
  0.1823709576473438    0.17270007368009033    0.1727021315163947    0.18236240993491318    0.20000177268668026    
  0.2216116309819331    0.19987106765735344    0.20000389717699482    0.200164106794658    0.20018940331105023    
  0.20015668053524185    0.2000018002246374    0.19989011262268996    0.20000181367288322    0.20015668523176733    
  0.20018938892737892    0.20016408157918844    0.20000387102199074    0.19987106765735344    0.22161164471542977    
  0.2000017596543708    0.1823624163677578    0.1727021648677109    0.17270002666867254    0.18237101139750525    
  0.20000180786297586    0.22159335720054382    0.24117925592293774    0.25261682153492027    0.25260554713353284    
  0.2411786245499359    0.22161164471542977    0.28441857023284706    0.241181125983525    0.20016363202412635    
  0.17269974141402097    0.16334342916029262    0.17270005912560127    0.2001566978899309    0.24117926004775891    
  0.2844411519367145    0.31542032103141565    0.32603411111118963    0.31542526578917773    0.28441857023284706    
  0.36215413819902176    0.31542255546995895    0.2526061152073099    0.20019248247010257    0.17269971349025262    
  0.172702167263917    0.20018938624370886    0.25261677107355995    0.31542034029829413    0.36213489686529843    
  0.3800613947901816    0.38007248938221094    0.36215413819902176    0.387016274009651    0.3800671157322802    
  0.3260407092318426    0.2526060906366033    0.20016360729400712    0.1823624190654799    0.20016408057075608    
  0.25260553753515386    0.32603415461492047    0.38006137402676987    0.38705324833735993    0.37933588603739576    
  0.387016274009651    0.34260147185868317    0.3793350307040759    0.38006718039421    0.31542252334697424    
  0.2411811461765416    0.20000175604455242    0.20000389015665215    0.24117860878261083    0.31542530445167066    
  0.38007244808957524    0.37933587404146907    0.34256843331597187    0.34260147185868317    0.3116356612428731    
  0.3426014708926944    0.38701627564236846    0.3621541339493075    0.28441857238911855    0.22161164264707373    
  0.1998710896338594    0.22161163349923854    0.28441861216393566    0.3621541816007461    0.387016275407883    
  0.3426014360982527    0.3116356612428731    0.44759045335111464    0.43179464175620974    0.3781746710682396    
  0.29510026602010253    0.21630438797989235    0.16656847625418517    0.15040749404792408    0.1665684584275415    
  0.21630442416570345    0.2951003118607957    0.37817461453174117    0.43179464118159777    0.44759045335111464    
  0.4317946488854145    0.4317968064396502    0.39633414967819053    0.3256307244051525    0.24407094657906658    
  0.1817359513600353    0.15065002805338618    0.15065069277014637    0.18173556603499258    0.24407050675806188    
  0.32563150438164373    0.3963352114239018    0.4317946488854145    0.37817463201029894    0.3963340908683586    
  0.3781734027412459    0.3256347755751564    0.2546289757432103    0.19109557425545315    0.15108249351473038    
  0.1379212140745525    0.15108255040238774    0.19109556603310582    0.2546297807584469    0.32563150503168575    
  0.37817463201029894    0.2951002716180164    0.3256307342832305    0.3256348199591287    0.2950959945718337    
  0.24407152185900893    0.19109430414249656    0.15127128316904148    0.13090468507202593    0.13090507738131923    
  0.15127028677370474    0.19109558772994867    0.2440705330462308    0.2951002716180164    0.21630437788592288    
  0.2440709506953781    0.2546289891752568    0.244071502608655    0.2163057188683029    0.18173576950296377    
  0.1510832110100727    0.1309042896968535    0.12398348974662722    0.130905082664891    0.15108252100584554    
  0.18173556285188291    0.21630437788592288    0.1665684660219851    0.18173594003672008    0.19109558866521834    
  0.19109431283682227    0.18173577058705834    0.16656775753691577    0.15064936471165707    0.13792192060764022    
  0.1309043433572681    0.13090466421018646    0.13792122030591128    0.15065073222606357    0.1665684660219851    
  0.15040748726170844    0.1506500284849087    0.15108250273124682    0.1512712929907536    0.15108321810125055    
  0.1506493784014185    0.15040987167878878    0.1506493716745257    0.15108321526588359    0.15127127395934695    
  0.15108246876995174    0.15065001884825424    0.15040748726170844    0.16656847341714717    0.15065071564556698    
  0.13792123221476493    0.13090469382945474    0.13090430369236886    0.13792195842296137    0.15064936667020906    
  0.1665677746915483    0.18173575763443234    0.1910943125019692    0.19109555406110607    0.181735947435082    
  0.16656847341714717    0.21630439601201595    0.1817355238858674    0.15108255649465105    0.13090509495100353    
  0.1239834681590845    0.13090431468555816    0.1510832446166554    0.18173575976523196    0.21630571910146565    
  0.24407153280042046    0.25462893187533425    0.2440709803540167    0.21630439601201595    0.2951002775387357    
  0.24407052302102747    0.19109560547464052    0.15127028717664529    0.13090506830646367    0.13090469719537998    
  0.1512712910238577    0.19109428887226065    0.24407154003343723    0.2950959469185903    0.3256348142561356    
  0.32563074119004765    0.2951002775387357    0.37817466101412667    0.32563149202301245    0.25462981529647405    
  0.19109557737084618    0.1510825251010297    0.13792121999984336    0.15108246563601577    0.1910955503852382    
  0.25462896737567337    0.32563482930515125    0.37817332965085293    0.3963341359358651    0.37817466101412667    
  0.431794650271907    0.39633518520295324    0.32563155362178964    0.24407050952395024    0.18173554848514886    
  0.1506507047673857    0.15065002444926598    0.18173593399554996    0.24407100400651982    0.3256307129022409    
  0.3963340988139976    0.43179683223192583    0.431794650271907    0.44759045335111464    0.43179464175620974    
  0.3781746710682396    0.29510026602010253    0.21630438797989235    0.16656847625418517    0.15040749404792408    
  0.1665684584275415    0.21630442416570345    0.2951003118607957    0.37817461453174117    0.43179464118159777    
  0.44759045335111464    0.4108332313546092    0.382808948339584    0.3128973253422402    0.23253142147005837    
  0.16791895439734708    0.12954142976586155    0.11725244593602091    0.12954143440346744    0.16791896833895453    
  0.23253143136890003    0.3128973261873631    0.3828089791319442    0.4108332313546092    0.3828089882953997    
  0.3828091224966488    0.3339835016958063    0.2599943107770411    0.19000800548836813    0.14117333781948768    
  0.11746913435350706    0.11746944796148441    0.141173331104974    0.1900076219349658    0.25999617153234705    
  0.33398149819348416    0.3828089882953997    0.31289735692543336    0.33398343467188363    0.31289556575354815    
  0.2599960200950588    0.19863108768342422    0.14847904522498534    0.11795211119439802    0.10798008159107032    
  0.11795168959836563    0.14847952362281155    0.19862950046046726    0.25999619710329885    0.31289735692543336    
  0.23253141090844368    0.259994330410634    0.25999604167848217    0.23253128718310823    0.19000847608207733    
  0.14847796070848984    0.11822173494460039    0.10288838318255883    0.10288885668918502    0.11822136253978946    
  0.1484795574625826    0.19000762847326708    0.23253141090844368    0.16791897164264674    0.1900079961055284    
  0.19863110882159005    0.1900084991642627    0.16791835431306446    0.14117275645453634    0.11795318176635267    
  0.10288868688766521    0.09775552295259583    0.10288884537322181    0.11795166756313888    0.14117330599440994    
  0.16791897164264674    0.12954143674354054    0.14117330203664913    0.14847906140410438    0.14847795452261325    
  0.14117276244298152    0.12954253197612495    0.11746948713309815    0.10797872744273058    0.10288871796771526    
  0.1028883910077628    0.1079800842850003    0.117469466585051    0.12954143674354054    0.11725243498392603    
  0.11746914538729229    0.11795209852769342    0.11822172151387281    0.11795317419831144    0.11746948044333902    
  0.11725126876189887    0.11746949128685268    0.11795317600407916    0.11822171791129035    0.11795208786253705    
  0.11746913938742039    0.11725243498392603    0.12954144500782203    0.11746944056960877    0.1079801077144268    
  0.10288839969923694    0.1028886878983441    0.10797874124046412    0.11746948844119871    0.12954253594755732    
  0.14117278312933115    0.14847795889311372    0.14847905601329178    0.14117332437206348    0.12954144500782203    
  0.16791896437119802    0.14117330084217003    0.11795169543740998    0.10288884101992389    0.09775550410657607    
  0.10288870793720183    0.117953169766836    0.14117275395131595    0.16791835230149788    0.19000849919879978    
  0.19863103604625945    0.19000802295481578    0.16791896437119802    0.23253140734866767    0.1900076167698689    
  0.14847953476303116    0.11822139060859077    0.10288883529466583    0.10288839819401831    0.11822171791467369    
  0.14847793240302065    0.19000851676877084    0.23253124911255563    0.2599960275463482    0.25999433950092954    
  0.23253140734866767    0.3128973215894602    0.25999615674770293    0.19862954387627094    0.1484795184455527    
  0.11795166770826    0.1079800932094828    0.11795210248342222    0.14847905266253456    0.1986310866909915    
  0.2599960383413139    0.3128955093564263    0.3339834345723037    0.3128973215894602    0.3828090032131632    
  0.3339814635506512    0.25999620346375263    0.1900076367471686    0.14117332390733106    0.11746945801877089    
  0.11746913670044414    0.14117329074188728    0.19000804072909758    0.2599943225533712    0.3339834706448255    
  0.38280918748049475    0.3828090032131632    0.4108332313546092    0.382808948339584    0.3128973253422402    
  0.23253142147005837    0.16791895439734708    0.12954142976586155    0.11725244593602091    0.12954143440346744    
  0.16791896833895453    0.23253143136890003    0.3128973261873631    0.3828089791319442    0.4108332313546092    
  0.3766253159273467    0.349585316937584    0.28350897107609774    0.20965537891229352    0.15139425908726425    
  0.1169362073315642    0.10588082235058337    0.11693620282705418    0.1513942879172516    0.20965538480685497    
  0.283508966573842    0.34958533534903913    0.3766253159273467    0.3495853281325043    0.3495837498102216    
  0.30324907422258157    0.23469454159420025    0.171267941901714    0.12741342666683442    0.1061084895552737    
  0.10610746429034781    0.12741371878743338    0.17126734640035451    0.23469555779961143    0.3032472512354631    
  0.3495853281325043    0.2835089936642802    0.3032490028024899    0.28350870986642496    0.23469526657739143    
  0.17906503791183348    0.13405877911702352    0.10669122696037302    0.0977301163134975    0.10669225183761583    
  0.13405835740568148    0.17906532346569365    0.2346955490655526    0.2835089936642802    0.20965539255254687    
  0.23469457514354153    0.23469529216934176    0.20965481370531644    0.17126871236930563    0.13405823694216992    
  0.10705445894844265    0.09339036872135469    0.09338939891287647    0.10705433928489537    0.1340583678369375    
  0.17126738878082848    0.20965539255254687    0.15139426500728695    0.17126791646013917    0.1790650200666778    
  0.17126869926141336    0.15139350972302562    0.12741255392052672    0.1066924657284055    0.093389036399061    
  0.08890522732193065    0.09338940045191044    0.10669224004713035    0.12741369691707444    0.15139426500728695    
  0.11693623306450698    0.12741337642370174    0.13405877477509984    0.1340582378816124    0.12741256928493483    
  0.11693844842306064    0.1061074070557995    0.09773092143620196    0.0933890831698223    0.09339035425021452    
  0.09773013866446485    0.10610747503469141    0.11693623306450698    0.10588081710566395    0.10610849128855908    
  0.10669122846781756    0.10705445876514602    0.10669243972596205    0.10610739126188046    0.10587991973587617    
  0.10610740650595711    0.10669246147399478    0.10705444903530904    0.106691241047566    0.10610847517958534    
  0.10588081710566395    0.11693620042410009    0.10610746731714268    0.09773015175703424    0.09339037038663162    
  0.09338906320316448    0.09773092615908203    0.10610740610733459    0.11693843837526767    0.12741256192842823    
  0.13405823555767463    0.13405876118522786    0.1274134059725094    0.11693620042410009    0.1513942719454028    
  0.12741370113848727    0.10669226667573267    0.09338940445603414    0.08890519516588126    0.09338906719426969    
  0.10669244338281555    0.1274125378873405    0.1513935363236438    0.17126872597416185    0.17906497215022593    
  0.17126794562856504    0.1513942719454028    0.20965537728308004    0.1712673529562949    0.1340583499421165    
  0.10705437094942073    0.09338938554289637    0.09339037611014878    0.10705444989729296    0.13405823239676742    
  0.1712687321524542    0.20965476709931113    0.23469528475588533    0.23469458685884065    0.20965537728308004    
  0.28350895979083385    0.23469552532287125    0.17906538035148722    0.13405835115887335    0.10669225806318908    
  0.09773014252966072    0.10669123327617888    0.13405873808077234    0.17906502409513542    0.23469530000700134    
  0.283508663501251    0.30324900498712776    0.28350895979083385    0.3495853505158005    0.3032472227900887    
  0.23469558707491742    0.1712673693526647    0.12741371281110409    0.10610746596106922    0.10610848989687649    
  0.12741337362114355    0.17126797104096161    0.23469455025629213    0.30324902191039677    0.34958380254869165    
  0.3495853505158005    0.3766253159273467    0.349585316937584    0.28350897107609774    0.20965537891229352    
  0.15139425908726425    0.1169362073315642    0.10588082235058337    0.11693620282705418    0.1513942879172516    
  0.20965538480685497    0.283508966573842    0.34958533534903913    0.3766253159273467    0.4108331939981573    
  0.382808961021855    0.312897325218915    0.23253141882038006    0.16791896093314856    0.12954143811047403    
  0.11725244386273989    0.1295414299691575    0.1679189634335317    0.2325314384092734    0.312897333771113    
  0.38280897107069084    0.4108331939981573    0.38280899559280407    0.3828091253777562    0.3339834996130168    
  0.2599943083863745    0.19000801215555457    0.14117332774554586    0.11746912098910274    0.1174694551617755    
  0.14117331983517117    0.1900076198749327    0.2599961639522645    0.3339815051650572    0.38280899559280407    
  0.31289733655557916    0.3339834443760122    0.3128955497086034    0.259995998089446    0.19863109186336536    
  0.14847904425560898    0.1179521056513563    0.10798007563914748    0.1179516989988635    0.14847952531841424    
  0.1986295078088397    0.2599961938974524    0.31289733655557916    0.23253141008422493    0.2599943239952252    
  0.2599960470148209    0.23253129040965786    0.1900084955784273    0.14847795831340993    0.11822172542955048    
  0.10288838510649694    0.10288885889974297    0.11822135924554343    0.1484795528096277    0.19000764364884773    
  0.23253141008422493    0.16791896719374758    0.19000798503717498    0.19863109925464092    0.1900084920826912    
  0.1679183487745458    0.14117276782360388    0.11795319516366042    0.10288868963104067    0.09775552270583741    
  0.10288884302284793    0.11795166286179026    0.1411732998279996    0.16791896719374758    0.1295414550484975    
  0.14117330988908186    0.14847905778069204    0.1484779582659987    0.14117276044788046    0.12954253181241568    
  0.1174694907494901    0.10797873071393894    0.10288872598626639    0.1028883858190685    0.10798007894541142    
  0.11746946663711093    0.1295414550484975    0.11725243781169507    0.11746914782967736    0.11795210697474437    
  0.11822172435861329    0.1179531721949486    0.11746947737436157    0.11725128566764917    0.11746948189060949    
  0.11795316514985961    0.1182217145209845    0.11795210306343114    0.11746912053900338    0.11725243781169507    
  0.12954143718688638    0.11746945457542274    0.10798009847144333    0.10288840713681906    0.10288869387372408    
  0.1079787396676982    0.11746948849734859    0.1295425331203812    0.14117277347150203    0.14847795367351924    
  0.14847903982672028    0.1411733250147493    0.12954143718688638    0.1679189600277432    0.14117329287342528    
  0.11795169326246363    0.1028888335383384    0.09775549830255577    0.10288870842986103    0.1179531716950017    
  0.14117275660151973    0.16791836498840162    0.19000850928956511    0.1986310550431405    0.19000801557978647    
  0.1679189600277432    0.23253141867461555    0.19000763524225492    0.1484795432319467    0.11822138950864201    
  0.1028888406013343    0.10288840181262286    0.1182217061871071    0.14847792777957672    0.1900084959788442    
  0.23253125425113488    0.2599960468956328    0.2599943565101294    0.23253141867461555    0.31289734597626667    
  0.25999617925436036    0.19862953573224862    0.14847953981508    0.11795166097593142    0.10798008357672297    
  0.1179521078486557    0.14847905330047811    0.19863108869966473    0.2599960518405628    0.31289549874054945    
  0.3339834698921586    0.31289734597626667    0.38280900653227523    0.33398145416969016    0.2599962079702404    
  0.1900076510056494    0.14117331508230913    0.11746945845837206    0.11746913139867014    0.14117329189046865    
  0.19000803987871184    0.2599943214621838    0.3339834901503412    0.38280918926366775    0.38280900653227523    
  0.4108331939981573    0.382808961021855    0.312897325218915    0.23253141882038006    0.16791896093314856    
  0.12954143811047403    0.11725244386273989    0.1295414299691575    0.1679189634335317    0.2325314384092734    
  0.312897333771113    0.38280897107069084    0.4108331939981573    0.4475904703960081    0.43179464547437896    
  0.3781746444532097    0.2951002552934829    0.21630439461497514    0.16656847289894394    0.15040749599132816    
  0.16656845839463194    0.2163044244533647    0.2951003028318045    0.3781746458038035    0.431794638941332    
  0.4475904703960081    0.4317946667438859    0.4317967783785494    0.39633414622844426    0.32563071948450506    
  0.2440709444788318    0.18173596684693266    0.15065003271872174    0.1506506981804233    0.18173554983780163    
  0.24407050414120354    0.32563148777362994    0.3963352166286116    0.4317946667438859    0.37817465570888414    
  0.3963340937696863    0.3781734015927382    0.325634768447281    0.2546289699578205    0.19109557940807367    
  0.1510824855645298    0.13792120883968137    0.15108255854090616    0.19109556058958174    0.25462979743809666    
  0.3256315021136513    0.37817465570888414    0.2951002732067223    0.32563072148471944    0.325634836825867    
  0.2950960112379293    0.24407151063453933    0.19109430195203972    0.15127128758777209    0.13090468332463223    
  0.13090507743402421    0.1512702835183648    0.19109557933516336    0.24407053237759035    0.2951002732067223    
  0.21630438432841623    0.24407092974387398    0.254628979815384    0.24407149530546737    0.21630570876091154    
  0.18173576242188494    0.1510832343890705    0.13090429395992975    0.12398349424197516    0.1309050823481964    
  0.15108252065668404    0.18173557693571776    0.21630438432841623    0.1665684593566463    0.18173592564479446    
  0.1910955708837473    0.19109429854916746    0.1817357675025828    0.16656777669878484    0.15064936734784248    
  0.13792191882879892    0.13090433798114817    0.13090467304058354    0.13792121182090902    0.15065071833701307    
  0.1665684593566463    0.15040747691453976    0.15065003525414533    0.15108250020730424    0.15127129818066742    
  0.15108322563491042    0.15064936121258116    0.1504098778962768    0.15064937746423115    0.1510832335196465    