#     DFTpy    
  CRYSTAL 
    
  PRIMVEC    
  4.179292516148725    -2.2961847999999995e-10    4.3522526068965505e-10    
  -2.2961847999999995e-10    4.179292515905878    2.0971257517241376e-10    
  7.953192896551723e-10    3.832869793103448e-10    7.656544886913403    
  PRIMCOORD    
  4    1    
  Si    2.089646257994738    2.0896462591029374    2.3528122150271487    
  Si    7.748947484957833e-10    -7.171547613726461e-10    1.4754602258557934    
  Si    1.1885064085754739e-10    5.416231050781342e-10    6.1810846567147575    
  Si    2.089646258621261    2.0896462575154273    5.303732676874042    
  BEGIN_BLOCK_DATAGRID_3D    
  3d_datagrid_density    
  BEGIN_DATAGRID_3D#0    
  19    19    33    
  0.0    0.0    0.0    
  4.179292516148725    -2.2961847999999995e-10    4.3522526068965505e-10    
  -2.2961847999999995e-10    4.179292515905878    2.0971257517241376e-10    
  7.953192896551723e-10    3.832869793103448e-10    7.656544886913403    
  0.1773442878751151    0.16622845124178748    0.1382104818612257    0.1045053384711887    0.07465086258063716    
  0.05290132353963461    0.03897928916621845    0.030856628901770135    0.026704799256182393    0.025436880031120452    
  0.02670479887208587    0.030856626300775958    0.03897928959849516    0.052901310828292254    0.07465089377871433    
  0.10450535005294181    0.13821047948312226    0.16622841522957404    0.1773442878751151    0.16622840864480218    
  0.1560819168936974    0.130341096701612    0.09915194745765978    0.07137713986852554    0.05105631652316791    
  0.0379766591529086    0.0302950365569001    0.026354294858427434    0.025150788128874335    0.02635429103168732    
  0.030295029032436076    0.03797665684341975    0.05105629052187282    0.07137715117579772    0.099151948719289    
  0.13034106729313008    0.15608194539528064    0.16622840864480218    0.13821047062764855    0.13034104938230887    
  0.11013564353661834    0.08528278679916997    0.06284942114785567    0.04620623174706345    0.03531721372518512    
  0.02882697703127833    0.02548707474946012    0.02447333116824689    0.025487088769518433    0.028826972199620784    
  0.03531721546289163    0.0462062188013251    0.06284942371951795    0.0852827910366924    0.11013560130456627    
  0.13034111023966552    0.13821047062764855    0.10450536361112622    0.0991519677495476    0.08528280566096982    
  0.06800269587263216    0.05209566419784307    0.03999380514780963    0.031891353637924114    0.026988442204938994    
  0.02446732185811782    0.023711210683549516    0.024467328693280926    0.026988443899198578    0.03189137408071416    
  0.03999379540551203    0.05209569695188715    0.06800272302553327    0.08528278933469584    0.0991519469623386    
  0.10450536361112622    0.07465088072145618    0.07137711876717198    0.06284944735333561    0.05209567998601457    
  0.04195398628258754    0.03401002449172422    0.02859692898266116    0.025304442420669898    0.02361988381194339    
  0.023122391095597217    0.02361986949242925    0.025304435499976373    0.028596928606887326    0.03401001022420765    
  0.04195399049925577    0.052095678042356    0.06284941535580621    0.07137716115566863    0.07465088072145618    
  0.05290130089285061    0.051056278547966065    0.04620623004483534    0.039993786995210674    0.03401000855980344    
  0.029236073888632575    0.025997280598754877    0.02409238809206765    0.023162874275440257    0.02290093637070712    
  0.023162877823293578    0.024092390688715035    0.025997273705907497    0.02923607019108888    0.03401003148064871    
  0.03999378733687758    0.046206228042230436    0.05105629416291458    0.05290130089285061    0.038979289810142266    
  0.037976659538994414    0.0353172210308088    0.031891360642850114    0.02859693244142116    0.02599727881540876    
  0.02432210663714581    0.023468419256495347    0.02314223238354317    0.023071859425628928    0.02314222913890197    
  0.023468413632375403    0.024322092686414193    0.025997266335412814    0.02859694987211561    0.03189137468486955    
  0.035317217394038224    0.03797666808856437    0.038979289810142266    0.0308566163519833    0.030295032897146114    
  0.028826970228278268    0.026988439366317014    0.02530444098913644    0.024092404140477308    0.02346842113697715    
  0.023329099447400595    0.02341295788188532    0.023473860746937646    0.023412969062771242    0.023329115732539703    
  0.02346841140355495    0.02409238832854117    0.025304444712933475    0.026988435240039164    0.028826971260081997    
  0.030295047198847947    0.0308566163519833    0.026704803602485717    0.026354296511652078    0.02548709830961112    
  0.024467330671155377    0.02361987275806596    0.02316286674823127    0.023142238410610853    0.02341296551080735    
  0.02373887259036182    0.023885839211308667    0.02373889202465474    0.023412966466909425    0.023142203816855472    
  0.02316287716864035    0.023619884440617286    0.02446732536746619    0.02548708230932295    0.026354300297626962    
  0.026704803602485717    0.02543687851085183    0.025150791791576844    0.024473342514177744    0.023711204087182115    
  0.02312238839360805    0.02290093309418515    0.023071865372056504    0.023473853532464253    0.02388583118046396    
  0.024067890411303135    0.023885837497246463    0.02347386487487432    0.02307185720953199    0.02290092778930574    
  0.023122409784966668    0.023711208831803745    0.024473335655559057    0.025150788714571104    0.02543687851085183    
  0.02670479162720135    0.026354290403556812    0.02548708733715083    0.024467326549496453    0.023619883758594598    
  0.023162870260049956    0.023142238911300697    0.023412962319251912    0.02373887856500985    0.02388584253370611    
  0.02373887880451655    0.0234129726295428    0.023142233389230958    0.023162870648042923    0.02361987432535797    
  0.02446732681848636    0.025487086810141387    0.02635429004491337    0.02670479162720135    0.030856627918770346    
  0.030295037493256034    0.028826973415693086    0.0269884396707109    0.025304443917792685    0.024092400107137306    
  0.02346842496194794    0.023329118286688336    0.023412959165420993    0.023473856368486253    0.023412971233891737    
  0.02332911532262421    0.023468406359359806    0.024092380271701096    0.025304450118779503    0.02698842455929935    
  0.02882697504261769    0.030295045851229097    0.030856627918770346    0.03897929756505164    0.0379766650328897    
  0.03531722015936525    0.031891359641820965    0.028596929438475947    0.02599728422850067    0.024322093731347402    
  0.023468418440929586    0.023142224430119086    0.02307186941147882    0.023142243911284378    0.023468415289035708    
  0.024322099969061907    0.025997267747124627    0.02859694660131711    0.0318913662392373    0.035317215479111944    
  0.03797666112374229    0.03897929756505164    0.05290130050278072    0.051056290832314256    0.04620622914977805    
  0.039993805357554084    0.03401001286161713    0.029236088006205172    0.02599725937701296    0.024092378816291997    
  0.023162879549458462    0.022900926466212352    0.023162876419430295    0.024092383581213083    0.025997266568384948    
  0.029236071391309706    0.034010010771560205    0.03999380200720821    0.04620620745212262    0.05105629407565404    
  0.05290130050278072    0.07465086440936812    0.0713771277770623    0.06284942572561054    0.05209567292894597    
  0.041953979413823575    0.03401002311535248    0.028596935788160867    0.02530444167303945    0.023619875449560013    
  0.023122391639042214    0.023619876578875165    0.025304432663598126    0.02859693357178189    0.03401001146235546    
  0.04195400668329065    0.05209567275348889    0.0628494080423382    0.0713771361144093    0.07465086440936812    
  0.10450535167202964    0.0991519582641856    0.08528281181461392    0.06800271313039734    0.052095665720847034    
  0.039993815522774846    0.03189136568606212    0.026988439765077414    0.024467321078974    0.02371121797357867    
  0.024467322288162546    0.026988439668162105    0.031891359221310304    0.0399938064419631    0.0520957014610263    
  0.06800271415247389    0.08528279671389874    0.09915194778929134    0.10450535167202964    0.13821041792933972    
  0.13034106360429015    0.11013565968101911    0.08528277984288211    0.06284942411526184    0.046206229830176596    
  0.0353172132582339    0.028826971958672492    0.025487089316552244    0.024473333463303094    0.02548708392755209    
  0.02882697222374375    0.03531720401078995    0.04620622322607499    0.06284945515847586    0.08528277598575669    
  0.11013564328295716    0.13034108600981936    0.13821041792933972    0.16622844243093174    0.15608189558794897    
  0.13034112250323884    0.09915197066952205    0.07137712971664187    0.051056301887575234    0.03797666265405295    
  0.03029504066177074    0.026354288457034525    0.025150789183724275    0.026354296183774835    0.030295036583849657    
  0.03797664482205594    0.05105629063709172    0.07137713813212504    0.09915193966368954    0.13034110527071505    
  0.156081949144676    0.16622844243093174    0.1773442878751151    0.16622845124178748    0.1382104818612257    
  0.1045053384711887    0.07465086258063716    0.05290132353963461    0.03897928916621845    0.030856628901770135    
  0.026704799256182393    0.025436880031120452    0.02670479887208587    0.030856626300775958    0.03897928959849516    
  0.052901310828292254    0.07465089377871433    0.10450535005294181    0.13821047948312226    0.16622841522957404    
  0.1773442878751151    0.20929308429745674    0.19589253694947137    0.16181446606222552    0.12067034356308387    
  0.08445537601219985    0.058320987945065926    0.04178661589970237    0.03232582014817655    0.027578629714326196    
  0.02613841187274661    0.027578627624290128    0.03232581711894131    0.04178662619790179    0.05832097959650831    
  0.08445541174137475    0.12067038522743118    0.16181445834236619    0.1958925063029378    0.20929308429745674    
  0.19589252366743054    0.18353948105803217    0.1521206316136706    0.114116597155888    0.0805302293746711    
  0.05616565295139732    0.040664936518609224    0.0317401324643733    0.027239877230860597    0.025871709117101398    
  0.02723987445879728    0.03174011802414788    0.04066494266537471    0.05616561937939991    0.08053024419498746    
  0.11411660836507119    0.15212060784515816    0.18353949083049653    0.19589252366743054    0.161814451956664    
  0.15212058038704326    0.12739957893578813    0.0972888230509551    0.07034632912253524    0.050502524440156675    
  0.03768110811868428    0.030194507635636487    0.026387001829941775    0.025227959834858635    0.026387007387645725    
  0.030194501081413392    0.03768111569780802    0.05050250396092034    0.07034632754228858    0.0972888162799601    
  0.1273995689320951    0.15212063581659344    0.161814451956664    0.12067036904203815    0.11411664879992021    
  0.09728883439996183    0.07652841899114218    0.057578005625348865    0.043283728247553006    0.033853326675345394    
  0.02826005125853218    0.025396803342203032    0.024527254149317033    0.025396804840179078    0.028260061672309576    
  0.033853337278539536    0.043283720751241164    0.05757804404421206    0.07652843902280423    0.0972888272761039    
  0.11411663207303042    0.12067036904203815    0.08445540450594059    0.08053021171052213    0.07034633437840397    
  0.05757802196913403    0.04565344232743405    0.03643418646351928    0.030245910426980938    0.026546643663080672    
  0.024658853103764946    0.02409201361544038    0.024658841184704128    0.026546638480553265    0.030245903477577503    
  0.03643416799886483    0.04565345308463158    0.057578023267290744    0.07034630814114501    0.08053022709148089    
  0.08445540450594059    0.058320961208670245    0.05616562589317955    0.050502512886179234    0.04328371583664566    
  0.03643417060970349    0.03107320622898896    0.027487716182451095    0.02540864793538808    0.02440776105581861    
  0.02412415072493331    0.024407761768398695    0.025408638398850922    0.027487708430456215    0.031073194647920334    
  0.036434181931700706    0.04328371181024468    0.050502502696974254    0.05616563928263945    0.058320961208670245    
  0.041786627383376136    0.04066493918450088    0.03768112166714703    0.033853317027509586    0.03024590280426424    
  0.027487720578214598    0.025766200263762473    0.024932493457211546    0.0246520258835567    0.024603442525193434    
  0.02465202144108722    0.024932505037744034    0.025766188475511077    0.027487710428516658    0.0302459182679322    
  0.033853327963804185    0.037681113524314476    0.04066494193466621    0.041786627383376136    0.03232580562470429    
  0.03174012862052279    0.030194493999562137    0.028260054634025554    0.026546643316444737    0.025408653289689546    
  0.024932493985436652    0.024971355629946134    0.02520466783547094    0.02532277832984787    0.025204684991854562    
  0.024971361625093433    0.024932479880792707    0.02540864635407798    0.026546639959419235    0.028260052893008935    
  0.03019450226241217    0.03174013868546623    0.03232580562470429    0.027578628823883754    0.02723988262329238    
  0.026387019647167734    0.025396813657164837    0.024658847692708787    0.024407762843460173    0.02465202392323933    
  0.025204680974324913    0.02574763080093252    0.025971389047085985    0.025747630961416103    0.025204699413158466    
  0.024652017551832838    0.024407751914798777    0.024658848090338432    0.025396803613589026    0.026387008615474782    
  0.027239888790147753    0.027578628823883754    0.026138413883344182    0.02587171123269593    0.025227965955672515    
  0.024527242404582185    0.02409200841543466    0.024124136912233744    0.024603452303619197    0.025322778432294676    
  0.025971381434840752    0.02623424101229963    0.025971381080657618    0.025322780604525315    0.024603441741052005    
  0.024124137256061055    0.024092029468848038    0.02452725089773607    0.025227962401060483    0.02587171369006806    
  0.026138413883344182    0.027578621700049825    0.027239878689221394    0.02638700811378721    0.02539680671897603    
  0.024658853808526192    0.02440777643807061    0.024652016496121032    0.025204679902253196    0.025747625081521737    
  0.02597138131111437    0.025747612410116347    0.025204693786504116    0.02465202854089007    0.024407762353429667    
  0.024658857250967375    0.025396816149550572    0.02638701154087133    0.027239887992017053    0.027578621700049825    
  0.03232582430451759    0.03174012817295394    0.03019449986671779    0.02826004964246544    0.026546639895236472    
  0.025408653684840635    0.024932500567318484    0.024971365485717007    0.02520467805055015    0.02532277328126628    
  0.025204684719074402    0.02497135095780064    0.024932486892972647    0.02540864005168654    0.026546645233795275    
  0.028260051560883633    0.03019450248094739    0.031740139852628774    0.03232582430451759    0.04178662595491215    
  0.04066494390845085    0.03768111882738878    0.033853332768013916    0.0302458992727753    0.027487725515355593    
  0.025766184686813746    0.024932488487687247    0.02465202520072424    0.024603451604542966    0.02465203124208902    
  0.024932496546010235    0.025766191799609296    0.02748771781722706    0.030245921599003397    0.03385332805679015    
  0.037681117849997885    0.04066494077349718    0.04178662595491215    0.058320964456167405    0.056165633514531015    
  0.05050251643319781    0.04328371949477463    0.036434168240228604    0.03107321621341103    0.027487711405094574    
  0.025408638603061976    0.02440776520978739    0.024124139914407757    0.024407765270193258    0.025408645119078133    
  0.027487712865068896    0.031073196468950726    0.036434172780948904    0.043283726254824725    0.05050250023356464    
  0.05616564226500475    0.058320964456167405    0.08445539354356973    0.080530217846413    0.07034634173011031    
  0.05757801332546314    0.04565343559950534    0.03643417310068872    0.030245912045718033    0.02654664097481371    
  0.02465885251043719    0.024092022305410788    0.02465885149570676    0.026546636156895502    0.030245905021226673    
  0.03643416338339437    0.045653456757759565    0.057578012100387405    0.07034631652718276    0.08053023590737543    
  0.08445539354356973    0.12067034270559047    0.11411661752090209    0.09728885752086461    0.07652844007984792    
  0.05757800810018199    0.04328373382633846    0.03385333411444143    0.028260054135488356    0.025396808693912504    
  0.024527248241557845    0.025396811975932222    0.028260058225286787    0.03385332655830225    0.04328371472723602    
  0.057578046575748956    0.07652843034688549    0.09728883612379713    0.11411664268990712    0.12067034270559047    
  0.16181444950475218    0.15212060767892618    0.12739957327024787    0.09728884877352754    0.0703462944693161    
  0.05050252271715645    0.03768110724774911    0.030194501752582    0.026387010178834706    0.025227956817708477    
  0.026387000802576804    0.03019450214640825    0.03768110489741135    0.05050250067365906    0.07034633284483376    
  0.09728884055889488    0.12739958148823766    0.15212059086438104    0.16181444950475218    0.19589251135856905    
  0.18353943095583572    0.1521206600984115    0.1141166381596461    0.08053022266161268    0.05616564943020031    
  0.04066494617164363    0.03174013706590831    0.027239874334796816    0.025871714529562218    0.02723988720389571    
  0.03174012540928562    0.040664929109616485    0.056165628565036325    0.08053024289998463    0.11411662163604246    
  0.1521206190079417    0.18353946579855    0.19589251135856905    0.20929308429745674    0.19589253694947137    
  0.16181446606222552    0.12067034356308387    0.08445537601219985    0.058320987945065926    0.04178661589970237    
  0.03232582014817655    0.027578629714326196    0.02613841187274661    0.027578627624290128    0.03232581711894131    
  0.04178662619790179    0.05832097959650831    0.08445541174137475    0.12067038522743118    0.16181445834236619    
  0.1958925063029378    0.20929308429745674    0.3071564630453523    0.28804146829999977    0.2370638536743795    
  0.1727067692008189    0.11556648455301186    0.07512416742856001    0.050361913701468385    0.03674923152464561    
  0.030171809429923202    0.028220881902912484    0.030171804044104196    0.03674922336886651    0.05036191383888548    
  0.0751241639477418    0.11556651317101527    0.17270680378076997    0.23706384981206888    0.288041436563229    
  0.3071564630453523    0.28804149210731234    0.2698502438437634    0.2220027163415012    0.16233640441285363    
  0.1095008805247148    0.07195849028482343    0.04884292059007819    0.03606343837800947    0.02985294468970028    
  0.028003702847818265    0.029852939650172283    0.03606342803477146    0.04884292045688105    0.07195847462256984    
  0.1095008744590708    0.1623364461754445    0.22200269783784302    0.2698502480636809    0.28804149210731234    
  0.23706387490035505    0.22200266371688443    0.1832530319621432    0.1358477936621    0.09391009552185113    
  0.06374429307939745    0.044884377466973616    0.0343015166607075    0.029082422968569558    0.02751258859992307    
  0.02908242675203512    0.03430150558485878    0.044884379932692176    0.06374426520610461    0.09391010115841521    
  0.13584775819509753    0.1832530150759663    0.22200271713368538    0.23706387490035505    0.17270678294023556    
  0.16233646402285837    0.13584780045111244    0.10353061290268856    0.07465270484464817    0.05347357368081159    
  0.039941762291802706    0.03220047950495153    0.02831993154098194    0.027139024003406467    0.02831993002537725    
  0.032200483647895066    0.039941778722423285    0.05347356308231792    0.07465274393671416    0.10353063064083752    
  0.13584777905031148    0.16233641915782268    0.17270678294023556    0.11556647795637891    0.10950086090833261    
  0.09391010901885856    0.07465271586407808    0.057137974230263594    0.04402324412192186    0.03547759333797997    
  0.03053453053828356    0.028061861290617385    0.02731191276853767    0.028061849646497647    0.03053452720247886    
  0.03547758598194384    0.04402323318231113    0.05713797314501339    0.0746527191258395    0.0939100643736608    
  0.1095008934087926    0.11556647795637891    0.07512414493380785    0.07195845570296588    0.06374428717064273    
  0.05347355431182228    0.044023228127455405    0.03690427173353612    0.03230641172876381    0.029754287378124532    
  0.02858602993903869    0.028262129092253997    0.028586036945218912    0.029754285078480273    0.032306403435400685    
  0.036904273051519366    0.04402325393420052    0.053473548717493075    0.0637442785540744    0.07195848569299743    
  0.07512414493380785    0.050361916277863086    0.04884292767932368    0.04488438259063778    0.03994175944147864    
  0.03547758882867158    0.03230641180213913    0.030551688256079335    0.029901516509219777    0.029846772789296223    
  0.029895094421581416    0.029846763384081505    0.029901515173136578    0.030551690890979324    0.03230640332617217    
  0.03547760006305318    0.039941767908884    0.044884371327949237    0.0488429239746761    0.050361916277863086    
  0.0367492067279609    0.03606343827575439    0.03430150369720652    0.03220047757632031    0.030534529230004152    
  0.029754303387880834    0.029901517903339617    0.030668160930790424    0.03149208312385169    0.0318359168119226    
  0.03149209127532914    0.030668183928867793    0.029901517260968312    0.029754288330041657    0.030534531646975557    
  0.03220047258366367    0.034301511634537735    0.03606344151540696    0.0367492067279609    0.030171808073869526    
  0.02985294209667561    0.02908244207702953    0.028319938075865757    0.0280618555448071    0.028586033681904086    
  0.02984677442892513    0.03149208776815349    0.032893374438997154    0.03343648036059799    0.032893386098455685    
  0.03149209260892177    0.029846741348668444    0.028586035177396926    0.028061860613751217    0.028319930029021216    
  0.029082425206946795    0.02985295594796313    0.030171808073869526    0.028220884849142227    0.028003698202963598    
  0.0275126095031992    0.02713901352657302    0.027311904611708692    0.028262123567287124    0.02989508747683974    
  0.03183591613874675    0.03343647630242021    0.03405226965330507    0.03343647140325039    0.031835919546222585    
  0.029895090236655215    0.028262114991417734    0.027311933092037343    0.0271390219362641    0.02751259802577649    
  0.028003701622954246    0.028220884849142227    0.030171793784768378    0.029852938888854964    0.029082432347661325    
  0.02831993087383936    0.028061857355979512    0.028586028474780742    0.029846760307228173    0.031492087657604195    
  0.03289338529006913    0.03343647139997118    0.032893371934707184    0.03149209370206357    0.029846766639728402    
  0.028586027758257738    0.02806185913335444    0.028319941425537693    0.02908242784088078    0.029852948402917148    
  0.030171793784768378    0.03674922359304185    0.03606343154310097    0.03430151982934745    0.032200476714577674    
  0.030534528210301354    0.02975430225257573    0.0299015321278305    0.030668170754200627    0.03149207880286457    
  0.03183590514270143    0.03149210218338701    0.03066816131218684    0.029901503204313343    0.029754292075645145    
  0.0305345356762927    0.03220046556531507    0.03430150552570265    0.036063443232305946    0.03674922359304185    
  0.05036191691768191    0.04884293242075879    0.04488438549808129    0.03994176042198964    0.0354775857002013    
  0.03230641287985795    0.030551691319098465    0.029901514435187113    0.02984675221245059    0.029895083277553382    
  0.029846774472914252    0.02990149695778624    0.03055169226662183    0.03230640470805354    0.03547760742789231    
  0.03994176612987582    0.04488436641020933    0.04884292813236203    0.05036191691768191    0.07512414602533365    
  0.0719584710750881    0.06374428800264877    0.0534735575102289    0.04402322236311424    0.03690429498640535    
  0.03230639209798076    0.02975428332771384    0.02858602748804149    0.028262119541107644    0.02858601986670021    
  0.029754285509604076    0.03230640166572864    0.036904270359853455    0.04402323043255293    0.053473552662118395    
  0.06374425659442096    0.07195846519890385    0.07512414602533365    0.11556645275977637    0.1095008592362373    
  0.09391009268655008    0.07465271971095894    0.05713797063727896    0.0440232392342009    0.035477595802570226    
  0.030534527876102283    0.028061859479978468    0.027311913970023007    0.02806185990823436    0.03053452289383596    
  0.03547759157841146    0.04402323431751302    0.05713797725691909    0.07465270706040814    0.09391005261814028    
  0.1095008689298569    0.11556645275977637    0.17270679416111487    0.16233641182160816    0.13584780873079624    
  0.10353063125873756    0.07465271763721111    0.05347357675934918    0.03994177166821995    0.0322004779768282    
  0.028319934173349066    0.027139030533276206    0.028319937999162912    0.032200475825892    0.03994175895679336    
  0.053473570558017096    0.0746527412867695    0.10353064521646725    0.13584780408898814    0.16233642360735323    
  0.17270679416111487    0.23706380929823337    0.222002691130352    0.18325304903447504    0.13584777833118944    
  0.09391007450264878    0.06374427565169809    0.0448843759623964    0.0343015169976131    0.029082434963423363    
  0.027512590935289523    0.029082423635815164    0.0343015076514684    0.04488437850911721    0.06374427391087413    
  0.0939100981487853    0.1358477513125889    0.18325303370435425    0.22200268217413321    0.23706380929823337    
  0.2880415348919284    0.2698501819535599    0.22200274484869315    0.16233642650476643    0.10950084622843344    
  0.07195848064573786    0.04884292536257167    0.036063445317992465    0.029852931224956344    0.028003701693658744    
  0.029852948461209058    0.03606343269836438    0.048842905731514306    0.07195847091342317    0.10950086110458714    
  0.16233642444275256    0.22200266204807179    0.26985021025901834    0.2880415348919284    0.3071564630453523    
  0.28804146829999977    0.2370638536743795    0.1727067692008189    0.11556648455301186    0.07512416742856001    
  0.050361913701468385    0.03674923152464561    0.030171809429923202    0.028220881902912484    0.030171804044104196    
  0.03674922336886651    0.05036191383888548    0.0751241639477418    0.11556651317101527    0.17270680378076997    
  0.23706384981206888    0.288041436563229    0.3071564630453523    0.4132824925943782    0.40077091558168215    
  0.3499179495694453    0.2606433956843186    0.1694186596636231    0.10354923866357539    0.06446800658140002    
  0.043854332633739404    0.034288058365245296    0.031544583302597795    0.03428805266033826    0.04385432903471311    
  0.06446801736835919    0.10354923132187466    0.16941869696888484    0.26064342740204566    0.34991788911524035    
  0.40077089370059765    0.4132824925943782    0.40077096223376785    0.38528412602599255    0.33114364782286915    
  0.24475958898310535    0.1596652005069413    0.09866400129143567    0.062327594878213814    0.04304609341007288    
  0.0340469399628859    0.031454641479122705    0.034046933758678954    0.04304608308461389    0.0623275902403568    
  0.09866397328842823    0.1596652048136223    0.24475958765205713    0.3311435695594491    0.3852841310337002    
  0.40077096223376785    0.34991793542975963    0.33114354741725077    0.2769688017820767    0.20295301491433707    
  0.13469390498117928    0.08620935224541436    0.05692125964496159    0.0411027457590148    0.03359774732476202    
  0.0314056687120612    0.03359776118524957    0.04110273100497401    0.056921274315275605    0.08620932643408592    
  0.13469390870792103    0.20295303749833082    0.27696873235011765    0.3311436795989681    0.34991793542975963    
  0.2606434195140341    0.24475964119196164    0.2029530475409011    0.15063343265091386    0.10412425646365488    
  0.07095215874255492    0.05043201590421958    0.03907453676584516    0.03357479026258518    0.031940763141843236    
  0.033574795266164664    0.039074539307138466    0.05043203011841995    0.0709521357220688    0.10412428938799338    
  0.1506334539828822    0.20295305299928806    0.24475960284134754    0.2606434195140341    0.16941868220065606    
  0.15966517881815756    0.13469392868999916    0.10412426682136212    0.0769578791020248    0.057286656124456665    
  0.044881821588798596    0.0379636572525513    0.03463808906674358    0.03365495649550932    0.03463807108542439    
  0.03796364876986755    0.044881815427337324    0.0572866406605979    0.07695790089819525    0.10412427172777877    
  0.1346938962753349    0.15966521926986976    0.16941868220065606    0.10354920789645322    0.09866396892559645    
  0.08620933323427539    0.07095212304235317    0.05728663187787176    0.04742423945741567    0.04143609739306508    
  0.038416579679486376    0.03721506418088496    0.03692008387320338    0.03721506928410734    0.03841656923487006    
  0.04143609537391601    0.04742424843198533    0.05728664726552337    0.07095212917585825    0.0862093200784563    
  0.09866397867313086    0.10354920789645322    0.06446802026269892    0.062327595829988085    0.05692127139388963    
  0.050432020050608886    0.04488182037314403    0.0414360998046582    0.04018787167284407    0.04044778409144625    
  0.0412166081495971    0.041595007991423745    0.04121659120567013    0.040447787885834204    0.040187870816085255    
  0.041436094145438016    0.044881836066366664    0.05043202560432178    0.05692126205498928    0.06232759658253718    