#     DFTpy    
  CRYSTAL 
    
  PRIMVEC    
  6.14151724137931    0.0    0.0    
  0.0    6.14151724137931    0.0    
  0.0    0.0    6.14151724137931    
  PRIMCOORD    
  8    1    
  Si    0.0    0.0    0.0    
  Si    1.5353793103448274    1.5353793103448274    1.5353793103448274    
  Si    0.0    3.070758620689655    3.070758620689655    
  Si    1.5353793103448274    4.606137931034484    4.606137931034484    
  Si    3.070758620689655    0.0    3.070758620689655    
  Si    4.606137931034484    1.5353793103448274    4.606137931034484    
  Si    3.070758620689655    3.070758620689655    0.0    
  Si    4.606137931034484    4.606137931034484    1.5353793103448274    
  BEGIN_BLOCK_DATAGRID_3D    
  3d_datagrid_density    
  BEGIN_DATAGRID_3D#0    
  27    27    27    
  0.0    0.0    0.0    
  6.14151724137931    0.0    0.0    
  0.0    6.14151724137931    0.0    
  0.0    0.0    6.14151724137931    
  0.07322385330744474    0.12870152447020616    0.3065677305033812    0.4174040650821749    0.3198210518772549    
  0.18671073679890382    0.10452491091466076    0.06269990205598426    0.04237565794320683    0.03252912011309504    
  0.027615301747088886    0.025183341264517944    0.02408208215006637    0.02377222334148466    0.02408206563334618    
  0.025183395472678293    0.027615202057658973    0.03252923440911898    0.04237551353761742    0.06270009297941544    
  0.10452465853860896    0.1867110161114564    0.3198207323836757    0.4174043438778576    0.30656761129905974    
  0.1287015666915935    0.07322385330744474    0.12870162054494333    0.1911871284845977    0.35293925564238277    
  0.4165929286876924    0.3065692574305089    0.18036968965672548    0.10304454288876042    0.0630631310921289    
  0.0432169057558862    0.03334588832827627    0.028277322754226838    0.025680516889969793    0.02444525747515388    
  0.02408205279201763    0.024445285884561897    0.02568046408866729    0.028277407198279408    0.03334578527698459    
  0.04321706246139671    0.06306293965277268    0.10304478815015619    0.18036940524380715    0.3065695931398086    
  0.41659264806969704    0.3529395038741669    0.1911870316823186    0.12870162054494333    0.30656748454360655    
  0.35293942544601387    0.4233826881901871    0.3873625348801189    0.2683192101055418    0.16346531987392007    
  0.09918738787735393    0.06428377966848406    0.04585833917364926    0.03592764273758431    0.030385645299400195    
  0.027289919854074845    0.025680488428647112    0.025183416018455834    0.025680463552168065    0.027289988584681776    
  0.030385542871610098    0.03592777368230884    0.045858189308428436    0.06428397549500738    0.09918714926034058    
  0.16346559319578566    0.26831890999789265    0.38736280709676907    0.4233825556230944    0.35293954885772166    
  0.30656748454360655    0.4174045916565447    0.4165926012788554    0.3873627549507094    0.3082773508451047    
  0.21432567012487178    0.14117191123496606    0.09429065467611591    0.06653983716239203    0.050314153214678164    
  0.04042022972253468    0.034216341371949247    0.030385605787864874    0.028277402124775315    0.02761518170656328    
  0.02827742553566663    0.030385547506977778    0.03421642604844098    0.04042009780453554    0.05031430167345198    
  0.06653966225841486    0.09429088196116277    0.14117164373712726    0.2143259972601557    0.30827711678243447    
  0.38736295154764033    0.41659249947367993    0.4174045916565447    0.31982041197908984    0.3065698220444119    
  0.26831884297718916    0.2143258785944236    0.16097108761230622    0.11901477165710093    0.08957157884063484    
  0.06983552503235113    0.05650933577743461    0.047086004090091886    0.04042017848663315    0.035927719330534465    
  0.03334576524092043    0.03252929183719255    0.03334574828002568    0.035927801773893826    0.040420077611024244    
  0.04708614104877974    0.05650918550202083    0.06983573304704221    0.089571369392463    0.11901502204937286    
  0.16097090285262944    0.21432609868855004    0.2683187307000326    0.30656992342743133    0.31982041197908984    
  0.18671142287392675    0.1803691404642625    0.16346573611514476    0.14117162120627583    0.11901489263594085    
  0.10027503340109714    0.08545620642347511    0.07382525233167371    0.06436303256980277    0.056509308337241    
  0.05031421809693279    0.04585822855304038    0.043217072585521904    0.042375441594193416    0.043217126042525394    
  0.04585815996264081    0.050314313009681255    0.05650916637305086    0.06436321546241738    0.07382503082541016    
  0.08545640246358772    0.1002748105879657    0.1190150977556954    0.14117146711005618    0.16346586867664847    
  0.18036905097146574    0.18671142287392675    0.10452429467598988    0.10304508859447935    0.09918697272802092    
  0.09429098744665666    0.0895713816937533    0.0854562894063346    0.08171557546826946    0.07789729037504341    
  0.07382518842240733    0.06983561172844618    0.06653971246185811    0.06428396130442614    0.0630629107212977    
  0.06270018382793607    0.0630628710175678    0.06428405770849772    0.06653958169867888    0.06983576130859327    
  0.0738250302413089    0.07789750670227667    0.08171537402056325    0.08545648283432934    0.08957121067577359    
  0.0942911100951269    0.09918688442800114    0.10304513067341274    0.10452429467598988    0.06270044931633906    
  0.06306263396912633    0.06428420800056356    0.06653951310717204    0.06983577179867811    0.0738250807281188    
  0.0778973601887464    0.08171556299509405    0.08545622462568044    0.08957151022495975    0.09429080752005754    
  0.09918718367365285    0.10304484565834586    0.10452453042016296    0.10304490778127241    0.09918708136388252    
  0.09429094523185058    0.08957131426621354    0.08545645056254851    0.08171535478699148    0.07789757589211428    
  0.07382489221842971    0.06983594463630023    0.06653936922108224    0.06428429499758781    0.06306260266461743    
  0.06270044931633906    0.04237516256560955    0.04321737279538192    0.045857963737921364    0.05031448015961211    
  0.05650906332686881    0.06436325328492896    0.07382506799053556    0.08545630225216844    0.1002749638994817    
  0.119014863750586    0.14117170857698896    0.1634656017426314    0.18036930118009706    0.1867112156312787    
  0.1803692378001787    0.16346574548907258    0.14117151650750248    0.11901507653030584    0.10027474990497931    
  0.0854565122342688    0.07382487657407172    0.06436340994136572    0.05650892673203836    0.050314592731205886    
  0.04585788266659666    0.04321740819191276    0.04237516256560955    0.0325295630370568    0.03334547734739348    
  0.0359280212983663    0.04041989080641236    0.04708626036057848    0.056509088092659955    0.06983576915102635    
  0.0895714125724451    0.11901490578684527    0.1609710036233291    0.214325939444326    0.26831890366147015    
  0.30656973049999175    0.3198205087958272    0.3065698030425087    0.2683187768850418    0.21432615510559377    
  0.16097077150563704    0.11901513027386985    0.08957117729289027    0.06983594856123465    0.05650892284859679    
  0.0470864023455726    0.04041978343991271    0.035928089181432976    0.033345452883856715    0.0325295630370568    
  0.027614869928604468    0.028277710596932588    0.030385292945458928    0.03421664866359643    0.04041991300112402    
  0.05031444670442351    0.06653956371514366    0.09429094064147138    0.1411716328721235    0.21432596940304252    
  0.30827720054810165    0.3873628555937421    0.41659248301411217    0.41740467685879157    0.4165924140832263    
  0.3873630935070723    0.30827690883364595    0.214326231472424    0.14117139677796928    0.09429116902010948    
  0.06653935673296686    0.050314598026931154    0.0404197916027148    0.03421674625654568    0.03038523138160323    
  0.028277747582224462    0.027614869928604468    0.02518374224418253    0.025680139300970448    0.027290266272758417    
  0.030385310100454387    0.03592796785250099    0.045858029058610486    0.06428411290860277    0.09918708060099672    
  0.1634656432189069    0.2683188855442201    0.3873628296570392    0.42338247555216146    0.3529395932068804    
  0.30656733463824826    0.35293971706333055    0.4233822646300401    0.38736313983422394    0.26831861205083896    
  0.16346592870378132    0.09918681515245813    0.06428430873033161    0.045857880240195464    0.03592808495855783    
  0.030385220204783077    0.027290314364333254    0.025680129348186313    0.02518374224418253    0.024081712114432708    
  0.0244456039884163    0.025680181545079124    0.028277653338026915    0.0333455597207012    0.04321726163133554    
  0.06306277193994823    0.10304493757085786    0.18036928088490078    0.3065696949058915    0.4165925442459413    
  0.3529395348312549    0.19118694470033024    0.12870177324024273    0.19118684037279418    0.35293976697894647    
  0.4165922566714517    0.30656997569068706    0.18036899466387435    0.10304516652012122    0.06306257449145021    
  0.04321740898952773    0.033345449291751456    0.028277741027302176    0.02568013135346343    0.024445627380262402    
  0.024081712114432708    0.023772570343594042    0.02408174661089244    0.02518367556998105    0.027614966462286495    
  0.03252945482926879    0.04237531049420338    0.06270026712222841    0.10452452492032817    0.18671116121320958    
  0.3198206064701685    0.4174044430147031    0.3065674595490829    0.12870169087409458    0.0732237061347231    
  0.12870177755401438    0.30656736754727665    0.4174047751354556    0.3198202938005725    0.18671148362443468    
  0.1045242584594581    0.06270045233694088    0.04237516518053251    0.03252957496976304    0.027614871461309958    
  0.025183738452380627    0.024081713548565357    0.023772570343594042    0.024081757286683353    0.02444555299672134    
  0.025680232595933328    0.02827760757794773    0.03334560535680146    0.04321720760563236    0.0630628402696293    
  0.10304486528288008    0.18036940328408305    0.3065695461197583    0.4165927114182331    0.35293942017268926    
  0.19118705258822694    0.12870167519671238    0.19118697952296612    0.3529396199709862    0.4165923995745266    
  0.3065698795354916    0.18036910307427487    0.10304509397801806    0.06306264418406493    0.04321735907972442    
  0.03334549890391957    0.028277697661864463    0.025680173139457835    0.024445581892102643    0.024081757286683353    
  0.025183661891292942    0.025680231970611863    0.02729016624559491    0.03038540238536556    0.03592787141821868    
  0.04585813760490408    0.06428399701873204    0.09918721447599017    0.16346546167700385    0.26831913633820653    
  0.38736256045993056    0.423382764581251    0.35293932935235023    0.30656759426206676    0.35293942470248996    
  0.4233826423002763    0.3873628239704895    0.26831880636794475    0.16346572185037758    0.09918696165883016    
  0.06428417991514221    0.045857987230528405    0.03592798356221148    0.030385321571643295    0.027290224756372453    
  0.025680204237186113    0.025183661891292942    0.02761498039927932    0.028277592035080984    0.03038541853793699    
  0.03421651557124509    0.04042005996536739    0.05031427444497346    0.0665397378790737    0.09429073150546075    
  0.14117190648217717    0.21432564764975057    0.3082775771923249    0.3873624606718976    0.41659296409887175    
  0.41740419927439415    0.41659286189294564    0.3873626421561047    0.30827730974629575    0.21432591974601634    
  0.14117166663594607    0.0942909417241228    0.06653954779345667    0.05031444626721377    0.040419935069387965    
  0.03421660315166562    0.030385365768872817    0.028277624715813094    0.02761498039927932    0.032529410327400206    
  0.03334564212457744    0.03592784803779183    0.04042006642738558    0.04708608271618554    0.056509309269144194    
  0.06983552201965285    0.08957167822315217    0.11901462040821738    0.16097136566663942    0.21432552200981153    
  0.2683193386047272    0.30656926299483034    0.3198209745707956    0.3065693552879044    0.2683191946812438    
  0.21432576044848597    0.16097109964124556    0.11901485506203219    0.08957144398000419    0.0698357304579486    
  0.05650913292424438    0.047086212836148195    0.040419972857467734    0.03592791181618573    0.03334561080144357    
  0.032529410327400206    0.04237538363023777    0.0432171526367719    0.045858191403961066    0.05031425358079416    
  0.05650931574541619    0.06436298795139869    0.0738253608849892    0.0854560122583817    0.10027527597369337    
  0.11901454940443082    0.14117209206909173    0.16346519028918766    0.1803697288032104    0.18671077879874198    
  0.18036965397587412    0.16346533326479623    0.14117190268356491    0.11901471451932329    0.10027506601318219    
  0.08545621420656113    0.07382514890092365    0.06436316586250791    0.056509161108823876    0.05031436141580017    
  0.04585811374095415    0.04321716891810157    0.04237538363023777    0.06270017303465092    0.06306292408936948    
  0.06428392400187588    0.0665397818703335    0.06983547944807646    0.07382537550738201    0.07789707574231666    
  0.08171588931216141    0.08545591841517258    0.08957182189852278    0.09429046602459663    0.0991875117672746    
  0.10304450165762254    0.10452488447065557    0.10304454215367148    0.0991874170597321    0.09429061483522043    
  0.08957163875959406    0.08545612410179593    0.08171568101615961    0.07789727710547258    0.07382518051719503    
  0.06983563827882269    0.06653965192207535    0.06428403064439764    0.06306286456570884    0.06270017303465092    
  0.10452463987154427    0.10304472809006691    0.09918730726521906    0.09429063112031329    0.08957169632860013    
  0.08545597263832275    0.08171590092718684    0.07789698494630765    0.07382549183754089    0.06983532611597347    
  0.06653999571654245    0.06428368791841377    0.06306317592119698    0.06269989467342843    0.06306314249529714    
  0.06428378301794174    0.06653985737098507    0.06983547547036115    0.07382530520706386    0.07789717886034014    
  0.08171567264842095    0.08545617963786224    0.08957153431848446    0.09429077786399964    0.09918721075177979    
  0.10304479228496018    0.10452463987154427    0.18671097348722504    0.18036958806194278    0.16346533115486728    
  0.14117200069136882    0.1190145623362361    0.10027535126679366    0.0854558970120568    0.07382550056635338    
  0.06436276681096752    0.05650954823091436    0.05031399165276599    0.04585845752960421    0.04321686190517634    
  0.042375674577142315    0.04321690324943233    0.04585838366020011    0.05031409693702243    0.05650939975464014    
  0.06436293927054795    0.0738253123849164    0.08545611426394197    0.10027512431873828    0.11901474221955875    
  0.14117185295213863    0.16346547962028635    0.18036948889065446    0.18671097348722504    0.3198208717377802    
  0.3065693261344042    0.2683193259011496    0.21432551343849632    0.16097145327966755    0.11901447997600573    
  0.08957186169720321    0.0698352986229973    0.05650956126682599    0.04708581317579579    0.04042035768357175    
  0.03592755940881457    0.03334594317037417    0.03252911875588015    0.033345910518320115    0.035927617044309135    
  0.04042024851878495    0.04708593637669956    0.05650938628013425    0.06983551308882933    0.08957163213481938    
  0.11901468637913687    0.1609712440564922    0.2143257012014156    0.2683191321938813    0.3065694207954825    
  0.3198208717377802    0.41740419704794235    0.4165930491037548    0.3873623350771887    0.30827773415574455    
  0.21432541876544706    0.14117217306570676    0.09429043250338388    0.06654003416824726    0.05031398282471565    
  0.040420352947142586    0.03421619813549149    0.030385742848772653    0.028277257345373823    0.027615322113391884    
  0.02827730059396155    0.030385669983175365    0.03421629620355184    0.040420242084750445    0.0503141526267385    
  0.06653983177489525    0.09429066055449994    0.1411719260591482    0.21432568827752327    0.30827748952040934    
  0.38736256979063277    0.416592901517661    0.41740419704794235    0.3065677600677816    0.35293915582980623    
  0.4233829914032755    0.38736221830186623    0.26831945430595144    0.1634651139408558    0.09918754943139786    
  0.06428367120120972    0.045858452056216935    0.03592754197050831    0.03038572793251811    0.027289832107933266    
  0.025680564936566733    0.02518333568490708    0.025680537986892064    0.027289893846960022    0.0303856391489743    
  0.03592766607333883    0.045858304091443404    0.06428384686218687    0.09918731256034569    0.16346540843524723    
  0.26831914700781356    0.38736253784422153    0.42338282459884446    0.3529392473199676    0.3065677600677816    
  0.12870152767554088    0.19118722256539758    0.3529391139551683    0.4165931113974862    0.3065691422264358    
  0.1803698102114546    0.10304446113327269    0.0630631939518304    0.04321686054666039    0.033345942560526476    
  0.02827728551948351    0.02568055723197938    0.02444521285204978    0.024082097037644457    0.024445247399356825    
  0.02568051658150705    0.028277362574043906    0.03334583421729068    0.04321701420624725    0.06306300339377381    
  0.10304470852777446    0.18036952434625358    0.30656943691400873    0.41659278064016314    0.3529393411155107    
  0.191187130887273    0.12870152767554088    0.07322385330744474    0.12870152447020616    0.3065677305033812    
  0.4174040650821749    0.3198210518772549    0.18671073679890382    0.10452491091466076    0.06269990205598426    
  0.04237565794320683    0.03252912011309504    0.027615301747088886    0.025183341264517944    0.02408208215006637    
  0.02377222334148466    0.02408206563334618    0.025183395472678293    0.027615202057658973    0.03252923440911898    
  0.04237551353761742    0.06270009297941544    0.10452465853860896    0.1867110161114564    0.3198207323836757    
  0.4174043438778576    0.30656761129905974    0.1287015666915935    0.07322385330744474    0.12870159230408365    
  0.191187178847451    0.3529391870142904    0.41659301123998066    0.3065691952308649    0.18036977064595247    
  0.1030445146800957    0.06306317151348156    0.043216892353534556    0.03334591312963681    0.02827729968936608    
  0.02568054497438685    0.024445239255705922    0.02408207078317211    0.02444527004664694    0.02568048520537902    
  0.028277374740857175    0.03334579551788813    0.04321704846725544    0.06306298003549204    0.10304474207507694    
  0.18036945726068535    0.3065695391154734    0.41659268579301434    0.3529394390230762    0.19118704405961803    
  0.12870159230408365    0.1911870650472856    0.258128376401459    0.400178605299773    0.4279785646615969    
  0.31013049308862645    0.1875611859840077    0.1115394927058632    0.07062139756437846    0.04921174737444237    
  0.03783277838853086    0.03143535780675142    0.027717662125474222    0.025562438557499834    0.024445278517763284    
  0.02416430867136156    0.02482123360774318    0.026788432806083454    0.031069867475139297    0.03975923610720508    
  0.05746029361766549    0.09338838330544133    0.16315390397702986    0.2789968428641129    0.3949625968002743    
  0.3768289627083183    0.24885091772890905    0.1911870650472856    0.352939520556261    0.40017839500485447    
  0.45392498376145446    0.40629041579777114    0.2887090163964618    0.18547286254097575    0.1193468314249688    
  0.08081225042189691    0.058541598388453214    0.04517958814589887    0.036700974112282715    0.03120975604126762    
  0.027717709296655794    0.025680467548745898    0.024821254784192906    0.025122129071696524    0.02680408936048266    
  0.03062356326239882    0.03825530076918443    0.05328123848811898    0.08282738172398295    0.13860585817058707    
  0.23198819824787484    0.3466938238220935    0.40679374816436087    0.37682888740274306    0.352939520556261    
  0.4165925062694902    0.4279790166264893    0.4062902702777866    0.33610624244186615    0.24902601283224388    
  0.1770798526018353    0.12701087931044716    0.09385543773728068    0.07159354019021187    0.055890363718634976    
  0.04461487076054194    0.036701011863281494    0.03143528236288682    0.028277421415493977    0.02678841645967543    
  0.02680411105983371    0.02832688122907791    0.03179392843953767    0.03835013211072298    0.05038396801014121    
  0.07254405144115088    0.1119402204112187    0.17612777719397393    0.26323393359820835    0.3466936981728635    
  0.3949627986983941    0.4165925062694902    0.3065698899241267    0.310130002205706    0.288709357521394    
  0.24902584737547565    0.20468229067616578    0.16571585724045934    0.1342448733623125    0.10891410639653196    
  0.08790009922809529    0.0701705247471991    0.05589040440577275    0.0451795079065254    0.03783290332634867    
  0.03334576289094238    0.03106989909962562    0.030623543084148618    0.03179392523623208    0.03469889414936919    
  0.039946246531315656    0.048808214276910324    0.06373305874596158    0.08815679449184116    0.12552898918830493    
  0.176127676983647    0.23198838119262732    0.27899655132615664    0.3065698899241267    0.18036909570347462    
  0.1875617597427606    0.1854724320097717    0.17708010570051996    0.16571571228899426    0.15320053422351937    
  0.13941309609382868    0.12365807464466042    0.10600328119734904    0.08790014766794425    0.07159344221870045    
  0.058541747896421456    0.04921156504954415    0.043217105539102144    0.03975918947335679    0.038255344724747516    
  0.03835008731558067    0.03994625963656914    0.043202067242142324    0.04857081356088744    0.05699202881492757    
  0.06979684889124402    0.08815671607011587    0.11194039311121574    0.13860561173584904    0.16315421689135756    
  0.18036909570347462    0.10304512606425857    0.11153893208169463    0.11934731333074013    0.127010521298115    
  0.1342451246924285    0.13941299452860387    0.14018632335158615    0.1348690447208088    0.12365810129048169    
  0.1089140261657777    0.0938555630401187    0.08081205603967409    0.0706216384305322    0.06306288409573489    
  0.05746036866444486    0.05328119271514443    0.050383990184096186    0.04880819097065696    0.04857082510372198    
  0.049739109519681086    0.05243714580205403    0.05699196734116575    0.06373320266954828    0.07254381688659724    
  0.08282767963436082    0.09338804706544918    0.10304512606425857    0.06306260678352618    0.07062191621152311    
  0.08081179092825617    0.0938558417067256    0.10891380424391138    0.12365829586013015    0.13486894314763334    
  0.14018635463703846    0.13941303589369525    0.1342450022368543    0.12701068870155507    0.11934709732504845    
  0.1115391628804515    0.10304488151981418    0.09338827778332734    0.08282750521972303    0.07254395899303143    
  0.06373311270565094    0.05699200967228597    0.052437153592680474    0.04973905246632138    0.048570942958009664    
  0.04880804476888003    0.05038418129780262    0.05328095828043635    0.05746062107585755    0.06306260678352618    
  0.043217388689707495    0.04921127798326923    0.058542069658662634    0.07159312962224239    0.08790043449927931    
  0.10600304678618197    0.12365825027763153    0.13941297393771163    0.15320058638936854    0.16571572843629911    
  0.17708004125281704    0.18547256719562846    0.1875615858277375    0.18036926317900925    0.16315408129362516    
  0.1386057380718421    0.11194030269133903    0.0881567137934637    0.06979689201361348    0.05699194917219915    
  0.04857095326955824    0.04320190143954881    0.03994646317977865    0.03834987905439983    0.038255598574424954    
  0.03975890591627415    0.043217388689707495    0.0333454432895611    0.037833226751104745    0.04517917283979773    
  0.05589074032575995    0.07017017705738286    0.08790043119217898    0.10891383646378176    0.13424514082775055    
  0.16571566746069064    0.20468240975511653    0.24902578405840223    0.28870935209066373    0.3101300442832372    
  0.3065698019908553    0.27899659774278573    0.23198839189348663    0.17612765601122354    0.1255290775732477    
  0.08815663693180681    0.06373323630958061    0.04880800921145174    0.03994647004776939    0.03469864997259567    
  0.03179419243402239    0.03062326177735939    0.03107019318526482    0.0333454432895611    0.028277737742310342    
  0.03143494982209038    0.03670135124217092    0.04461450893242605    0.05589071295760743    0.0715931901217404    
  0.09385578900728112    0.12701058708339094    0.17708010995967358    0.24902579900196584    0.3361064354502661    
  0.40629011557679867    0.4279790730057472    0.4165924248359126    0.39496287953986114    0.34669360612312405    
  0.2632340741474197    0.17612757519610026    0.11194046863726058    0.07254380726009853    0.05038422014507183    
  0.038349870752033215    0.031794201641079385    0.028326604755552168    0.02680440495168527    0.02678810961945684    
  0.028277737742310342    0.025680132357692596    0.027718041085527376    0.031209411276383037    0.03670132582578912    
  0.04517921549464445    0.0585419844473238    0.0808118727845906    0.11934722910095094    0.185472476378394    
  0.28870934567156303    0.40629013393103913    0.4539252158460069    0.40017825110311467    0.35293966955340306    
  0.3768287104061169    0.4067939340246481    0.34669351458108455    0.23198850896696704    0.13860550260781637    
  0.08282771022238843    0.053280922331028754    0.03825561041146347    0.03062326029049237    0.026804404526944464    
  0.0251218025604425    0.024821574839840217    0.025680132357692596    0.02444561993892948    0.025562094338955163    
  0.027718010055344203    0.031435006416280636    0.0378331339427596    0.04921138410378128    0.07062177482085816    
  0.1115390946546597    0.1875616132593486    0.3101300673872722    0.4279789619234698    0.40017831140941806    
  0.2581285774163963    0.19118688027252276    0.24885114358995414    0.37682869950552256    0.3949629732545647    
  0.2789963988867799    0.1631543130128556    0.09338800704440878    0.05746062995475531    0.0397589104588429    
  0.031070195612029342    0.026788111269704068    0.024821572930931273    0.024163961648588948    0.02444561993892948    
  0.02408171896366723    0.024445581386313853    0.02568020027545535    0.028277640073822    0.03334557052604016    
  0.043217236099565806    0.06306279803101301    0.10304492370233491    0.180369324492415    0.30656967862758855    
  0.416592625211085    0.3529395085229383    0.19118695288395515    0.12870173734158544    0.19118688095195455    
  0.35293978559964273    0.4165922927996756    0.30657000828431025    0.18036902382963896    0.10304515604207466    
  0.06306259130244049    0.04321739966575773    0.033345457829443086    0.028277718388590584    0.025680140339229014    
  0.024445616897516106    0.02408171896366723    0.02444558125837256    0.024164028017356596    0.024821471979928993    
  0.026788232783731797    0.03107002577957753    0.0397591084312441    0.057460382565563545    0.09338834441917138    
  0.163153923639479    0.2789968690719926    0.39496251123539544    0.3768290253004751    0.24885097563414404    
  0.1911869891551313    0.25812855766274156    0.40017828062602506    0.4279791127601323    0.310129885691516    
  0.1875618245280246    0.11153892751410116    0.07062191334954859    0.04921127876320465    0.037833219901227566    
  0.03143495701677616    0.027718041090439044    0.02556209785583811    0.02444558125837256    0.0256802187393211    
  0.02482145559955391    0.025121943561575606    0.026804227279236703    0.030623460730220837    0.03825537014903451    
  0.05328122789991992    0.08282734735557935    0.13860595771608752    0.2319879960628083    0.34669405079224647    
  0.4067934195518873    0.37682906834648294    0.3529393866708437    0.40017843728602803    0.4539252132809138    
  0.4062901270699208    0.2887094172916338    0.1854723819178699    0.11934729235737226    0.08081178250709545    
  0.05854203645833186    0.04517919546252761    0.03670132007960488    0.031209427707112287    0.027717986723909637    
  0.0256802187393211    0.02827761092046591    0.02678826440896153    0.02680422164912659    0.02832680615041596    
  0.03179395868343384    0.03835014506025386    0.050383888391400136    0.07254420231813616    0.1119399885445522    
  0.17612809749234584    0.2632335227145821    0.34669421533983186    0.3949623631555946    0.41659282568750694    
  0.4279787190361245    0.4062903459596051    0.3361063262276912    0.2490258399242476    0.17708013569945943    
  0.12701054590853825    0.09385579379823776    0.07159318477066139    0.05589069429119104    0.04461455350263556    
  0.03670129078580636    0.03143505059667494    0.02827761092046591    0.03334561795773242    0.031069998423305868    
  0.03062347731813984    0.03179392825577582    0.03469893080587794    0.0399461518912839    0.048808384607679084    
  0.06373283297202022    0.0881571124253041    0.12552854502477429    0.1761281942179382    0.2319877939069091    
  0.27899715955599946    0.306569350605705    0.31013042209856245    0.2887090706079499    0.24902601775740432    
  0.2046822923044392    0.16571574691473612    0.13424506792638496    0.10891386050068709    0.08790037833923559    
  0.07017024476199124    0.05589064971516411    0.045179298157298174    0.037833086907554866    0.03334561795773242    
  0.04321718294340456    0.039759158661686916    0.03825532990932505    0.038350170769298496    0.039946135003641886    
  0.0432022741639593    0.048570559847271016    0.05699237443328838    0.06979643397124964    0.08815721346347803    
  0.11193982365003645    0.1386062262543145    0.16315359284554923    0.18036970053276552    0.18756123688471418    
  0.18547284424067703    0.1770797975592384    0.1657158746559548    0.15320046926247557    0.1394130408577259    