#     DFTpy    
  CRYSTAL 
    
  PRIMVEC    
  3.878482758620689    0.0    0.0    
  0.0    3.878482758620689    0.0    
  0.0    0.0    3.878482758620689    
  PRIMCOORD    
  2    1    
  Si    0.0    0.0    0.0    
  Si    1.9392413793103445    1.9392413793103445    1.9392413793103445    
  BEGIN_BLOCK_DATAGRID_3D    
  3d_datagrid_density    
  BEGIN_DATAGRID_3D#0    
  17    17    17    
  0.0    0.0    0.0    
  3.878482758620689    0.0    0.0    
  0.0    3.878482758620689    0.0    
  0.0    0.0    3.878482758620689    
  0.06458648053086308    0.11732356831071025    0.2866754850840261    0.3835114444522455    0.2878843128736429    
  0.1692287017741239    0.09965778432849644    0.068061673901804    0.059186011608976595    0.06806167496944843    
  0.09965774587378312    0.16922874207297622    0.28788431052841507    0.38351141662738764    0.28667543260991946    
  0.11732359804607681    0.06458648053086308    0.11732357082503347    0.17663498654378557    0.32729278682183344    
  0.37721911570258254    0.27159391736938343    0.1603404695971019    0.0959549937281049    0.06652960281010546    
  0.05821963017578501    0.06652960564744344    0.09595501487754989    0.16034053282359764    0.2715939143478805    
  0.3772190034482952    0.3272926864644656    0.1766350405828572    0.11732357082503347    0.28667545903874253    
  0.32729271256338    0.3823189464585795    0.3374362992427794    0.2272351262953775    0.13755184559731876    
  0.08656216905366651    0.06279420846845683    0.055999369918375355    0.06279420646984755    0.08656216529816255    
  0.13755190679233634    0.22723510150764648    0.33743612976073567    0.38231901041682936    0.32729275018946796    
  0.28667545903874253    0.38351132064717103    0.37721904479033874    0.33743615879604666    0.2561004859927611    
  0.1708612806968686    0.11024337857240613    0.07545567265171858    0.05867570118774875    0.0538028428757357    
  0.05867567917241614    0.07545569649369396    0.11024339557686004    0.1708612374135609    0.2561004700423159    
  0.33743622675764307    0.3772191309415099    0.38351132064717103    0.28788427116326937    0.2715938578644848    
  0.22723507416259803    0.17086128340785728    0.1211934590097576    0.08664052381330326    0.06614234735569365    
  0.05588662601011511    0.05286145992126943    0.05588663271647097    0.06614230968926978    0.08664052751046873    
  0.12119347324349393    0.17086125268149657    0.2272350287672297    0.2715939605137098    0.28788427116326937    
  0.16922867864069363    0.1603405085299513    0.13755188127450724    0.1102434357242599    0.08664050965779112    
  0.07005320205912026    0.06013845222995224    0.05522780401831815    0.05380284266074089    0.05522776679184566    
  0.06013849665753515    0.07005325636973445    0.08664053249144799    0.11024337882453124    0.13755189813736915    
  0.16034054758173744    0.16922867864069363    0.09965775517886398    0.09595501382609604    0.08656217410780191    
  0.07545567702724647    0.06614235316248868    0.06013844533940031    0.057193187669494355    0.056181650424602575    
  0.05599938088098785    0.056181680709740035    0.057193163902784484    0.060138488840769375    0.06614236831946657    
  0.0754556388177523    0.0865621434966286    0.09595498436274484    0.09965775517886398    0.06806167659541004    
  0.06652960020874737    0.06279423679297444    0.05867570306403184    0.055886621759841076    0.05522779831827216    
  0.05618167847084335    0.057566012682122726    0.058219649249286465    0.05756599080066313    0.056181708663824784    
  0.05522779500280416    0.05588662582875868    0.05867566769780695    0.0627942282598404    0.0665296285697199    
  0.06806167659541004    0.05918601163152272    0.05821963144327638    0.05599935074102392    0.05380286487265857    
  0.05286145745313687    0.05380285393367489    0.055999368231212876    0.05821963703560673    0.059186029239751574    
  0.05821962561549877    0.05599938999926669    0.053802862940429595    0.052861453831823106    0.05380285315996255    
  0.055999375405483776    0.0582196364896923    0.05918601163152272    0.06806168427627124    0.06652961896175784    
  0.06279422308538125    0.05867570074446354    0.05588662761015817    0.055227776945589745    0.056181659555051826    
  0.057566030183201757    0.05821963479768039    0.05756599009250436    0.05618168061562606    0.05522780299449147    
  0.05588660688056012    0.058675666830070694    0.06279420491376961    0.06652962217947721    0.06806168427627124    
  0.0996577485045441    0.09595499271188734    0.08656216228721657    0.07545568065373388    0.06614235508236983    
  0.06013844568044775    0.057193173392914395    0.05618165798477708    0.055999390016176494    0.05618164014244211    
  0.0571931756981895    0.06013849583667529    0.06614236113707304    0.0754556334006204    0.08656218053742533    
  0.09595498816909688    0.0996577485045441    0.16922868091724727    0.16034050437881528    0.1375519033898075    
  0.11024340718914584    0.08664051033421956    0.07005324748093017    0.060138481879400255    0.055227816906908894    
  0.053802831258521235    0.055227819247509774    0.06013847945017794    0.07005325137710855    0.0866405320452045    
  0.11024337414541316    0.13755192194995416    0.1603405539455101    0.16922868091724727    0.28788430096640466    
  0.27159391914369274    0.22723502260701012    0.17086126118384026    0.12119347593502934    0.08664051706482669    
  0.06614231909792105    0.05588664369485033    0.05286145213019972    0.05588660101803129    0.06614234855271243    
  0.08664053427413386    0.12119345483388025    0.17086125860221055    0.22723509681556528    0.2715939051338672    
  0.28788430096640466    0.383511365772158    0.37721898673721    0.3374362280359021    0.25610047877999254    
  0.1708612741666407    0.1102433704802001    0.07545566134684804    0.058675695122023176    0.05380283798753983    
  0.05867567961176437    0.07545566749781168    0.11024344847306244    0.1708612321649673    0.25610038849258315    
  0.33743618525229474    0.37721909804772985    0.383511365772158    0.2866754390294279    0.32729276682705166    
  0.38231901078183794    0.33743630002951785    0.22723515998087296    0.1375518377069076    0.08656215563542244    
  0.06279420521122914    0.05599936736895891    0.06279422076227417    0.08656216394995436    0.13755190885452814    
  0.2272351172385884    0.33743613770155906    0.38231900748529324    0.32729273001332093    0.2866754390294279    
  0.11732357240564331    0.17663497162240185    0.32729278898181646    0.3772190547371325    0.27159392751245853    
  0.16034048277631907    0.0959550203277613    0.0665296129490035    0.05821962867080517    0.06652958719596347    
  0.0959550284665318    0.16034054395087982    0.27159391431250024    0.3772190650275184    0.3272927747999922    
  0.1766350241145423    0.11732357240564331    0.06458648053086308    0.11732356831071025    0.2866754850840261    
  0.3835114444522455    0.2878843128736429    0.1692287017741239    0.09965778432849644    0.068061673901804    
  0.059186011608976595    0.06806167496944843    0.09965774587378312    0.16922874207297622    0.28788431052841507    
  0.38351141662738764    0.28667543260991946    0.11732359804607681    0.06458648053086308    0.11732358371882035    
  0.17663500419356667    0.32729276605586277    0.3772190627430994    0.2715939438727116    0.16034051663794543    
  0.09595500314839267    0.0665295859305979    0.058219650201225465    0.06652959940182779    0.09595500292393233    
  0.16034055994206653    0.27159389724693134    0.3772190491594559    0.32729271737983767    0.1766349734552408    
  0.11732358371882035    0.17663498079170595    0.23487674276350776    0.3564084548863092    0.3666850150599833    
  0.25611016427238276    0.15233880714133585    0.09278172490949876    0.06535173738175987    0.05756599145445816    
  0.06535172263243216    0.09278174555831134    0.15233885612996076    0.25611018169379923    0.36668483236204785    
  0.35640844709519254    0.2348767956972346    0.17663498079170595    0.32729279940387307    0.3564084247168093    
  0.38281762533402275    0.3216046859928533    0.2148995947045403    0.13195924462541844    0.08476472537391865    
  0.06255350613960804    0.05618168395286753    0.06255351727013352    0.08476474223434964    0.13195928031208953    
  0.21489959507211032    0.32160454669002664    0.38281769325063303    0.3564084308502275    0.32729279940387307    
  0.3772190357005011    0.36668484341708735    0.32160457636974304    0.24253146929263586    0.16343500769502747    
  0.10764422859302071    0.07543753750586807    0.059782140833622814    0.05522781466310779    0.05978213743685581    
  0.07543757326615257    0.10764425820983056    0.16343498304046108    0.24253146108312695    0.3216046474738248    
  0.3666849649082479    0.3772190357005011    0.27159395081370885    0.25611016501774725    0.2148995820029641    
  0.16343503752215804    0.11820116341218434    0.08666448001326513    0.06796616069447756    0.05863302910461812    
  0.05588664919711072    0.05863299611358863    0.06796612782338451    0.08666449977042928    0.11820115872877131    
  0.16343497175927743    0.21489956354342676    0.2561102383536971    0.27159395081370885    0.16034049924905977    
  0.1523388589119007    0.13195925495528396    0.10764428561783883    0.08666447959174323    0.07210808101861743    
  0.06372700877565597    0.05978214578078079    0.05867570528151426    0.05978213424851106    0.06372701972890603    
  0.07210813233930499    0.086664472443863    0.10764422903332041    0.13195928854524128    0.152338883819644    
  0.16034049924905977    0.09595499289474324    0.0927817465511685    0.08476472232123355    0.07543754338458417    
  0.0679661995294704    0.06372694830879028    0.06239063746027717    0.06255349376234413    0.06279422547740364    
  0.06255353184586619    0.06239064061642462    0.06372701021357077    0.06796618287595388    0.07543750680548449    
  0.08476471147267411    0.09278174553336851    0.09595499289474324    0.06652960563653931    0.0653517226552886    
  0.06255353811467847    0.05978215831661297    0.05863299865353057    0.05978213940779467    0.06255350304155947    
  0.06535174649572326    0.06652962070028562    0.06535172343888533    0.06255355683748433    0.059782127617122816    
  0.058632999358800536    0.05978212469983603    0.06255352662981474    0.06535172785346621    0.06652960563653931    
  0.05821964698182774    0.05756599779046076    0.05618167078710296    0.05522781997485882    0.055886625947010604    
  0.05867566153173185    0.06279422670879296    0.06652957649967499    0.06806170102586623    0.06652959740258807    
  0.06279423945590003    0.058675686225762205    0.05588662480030743    0.05522780874257935    0.05618166927632622    
  0.057565991065654167    0.05821964698182774    0.0665296098473501    0.06535173638018024    0.06255352043328614    
  0.05978214963839688    0.058633006431196746    0.05978211656281521    0.06255352564512275    0.06535175688659876    
  0.06652961100596767    0.06535172627891017    0.06255354051307084    0.059782179393281176    0.058632989134990814    
  0.05978212331500504    0.0625535074905055    0.06535175305399064    0.0665296098473501    0.09595499828554621    
  0.09278173682733294    0.08476473062127488    0.07543754794256413    0.0679661932289542    0.0637270016846073    
  0.062390591600016275    0.0625534927536444    0.06279423394263349    0.06255349422991387    0.062390597928184646    
  0.06372703239961978    0.06796617792580312    0.07543752733908989    0.08476473166379503    0.09278170872375052    
  0.09595499828554621    0.16034053818933353    0.1523388276725824    0.13195928869309376    0.10764425530471604    
  0.08666446856216084    0.07210810788626115    0.06372703177734206    0.059782164339487485    0.05867570486517151    
  0.0597821328225841    0.06372702892494585    0.07210811772543484    0.08666447915487689    0.10764422194979402    
  0.1319592857192503    0.15233885512643308    0.16034053818933353    0.27159394662945435    0.25611016178534124    
  0.21489948489614996    0.16343503463776152    0.1182011663909095    0.08666445037213213    0.06796616816074519    
  0.058633023649408145    0.055886641985080886    0.05863299804337086    0.06796619021617975    0.08666449797123778    
  0.11820115614064336    0.1634350064779975    0.21489954754850343    0.2561102260620114    0.27159394662945435    
  0.3772190560637186    0.36668489400563764    0.3216045586766967    0.24253150641940321    0.1634350206800783    
  0.10764422560914792    0.07543754448289973    0.059782157270942375    0.05522779362940308    0.0597821401446025    
  0.07543753605982852    0.10764428590890412    0.16343500986557374    0.242531418076427    0.3216045870750203    
  0.36668490853594365    0.3772190560637186    0.32729271457394543    0.3564085168153105    0.382817726957096    
  0.3216046073855956    0.21489961695191742    0.13195921366526067    0.08476471608245874    0.06255352771280942    
  0.05618167463181884    0.062553518304909    0.08476471311087018    0.1319592673968277    0.21489964586492813    
  0.32160444237360175    0.3828176740803778    0.35640842101000153    0.32729271457394543    0.1766349777619794    
  0.2348767114199525    0.35640850075674063    0.3666848938036163    0.25611018727687396    0.1523388094737655    
  0.09278175530614759    0.06535171446032124    0.05756599416344239    0.06535171087802318    0.09278175738636071    
  0.15233885538024566    0.25611020231398907    0.36668495320601247    0.3564084589687709    0.23487677183907518    
  0.1766349777619794    0.11732358371882035    0.17663500419356667    0.32729276605586277    0.3772190627430994    
  0.2715939438727116    0.16034051663794543    0.09595500314839267    0.0665295859305979    0.058219650201225465    
  0.06652959940182779    0.09595500292393233    0.16034055994206653    0.27159389724693134    0.3772190491594559    
  0.32729271737983767    0.1766349734552408    0.11732358371882035    0.2866755091494392    0.32729271054891534    
  0.3823190488642535    0.3374362949544171    0.22723513201866105    0.1375518801206931    0.08656217858225349    
  0.06279421327256762    0.05599937037739278    0.06279421341725375    0.08656215004734848    0.13755192951253273    
  0.2272351456999876    0.3374362445888742    0.3823190162753297    0.32729280776731995    0.2866755091494392    
  0.32729275544051256    0.3564084880494077    0.38281774792437917    0.32160462437223875    0.21489956018081866    
  0.1319592445831352    0.08476472112157535    0.06255351629198497    0.05618167097422766    0.06255352065440847    
  0.0847647388774729    0.13195927120523954    0.21489956011038275    0.3216045520392719    0.38281766497763936    
  0.3564085066785013    0.32729275544051256    0.3823190875160141    0.38281765955390895    0.3538399485568539    
  0.2736685543369439    0.18307306301345985    0.11782642728101587    0.08039685159548546    0.062390624197742134    
  0.05719318627078446    0.06239063388994197    0.08039686239369451    0.11782647040062588    0.18307299876596345    
  0.27366848267167554    0.3538400266877665    0.38281773582419704    0.3823190875160141    0.33743610890240283    
  0.3216046160728278    0.27366848589108667    0.2064369345513014    0.1444908773181216    0.10133278636367739    
  0.07611321561370883    0.06372703575349527    0.06013848383009569    0.063727014594848    0.07611324893053585    
  0.10133278668257271    0.14449082868557475    0.20643691878164028    0.27366853395489865    0.32160472609663615    
  0.33743610890240283    0.2272351102296401    0.21489959551344653    0.18307298048096662    0.1444908508336176    
  0.11098096382951131    0.08780256084424182    0.07439430159441404    0.06796617990504555    0.06614236204277425    
  0.0679661641707312    0.07439430011073847    0.0878025772074628    0.11098094744611714    0.1444908605778697    
  0.18307295994611747    0.2148996452813682    0.2272351102296401    0.1375518788425544    0.13195927866918342    
  0.11782644774707293    0.10133279971729635    0.08780255635004121    0.07952936311919657    0.07611317227377566    
  0.07543754290551934    0.07545567392409755    0.07543750675427066    0.07611321234505665    0.07952943061706254    
  0.08780259366370814    0.1013327728248633    0.1178264573104945    0.1319592809437852    0.1375518788425544    
  0.08656214691682686    0.08476475201348568    0.08039685476817907    0.07611323254944104    0.0743943274920251    
  0.07611317894595723    0.08039683709031259    0.08476472496974534    0.086562157831332    0.08476473771064841    
  0.0803968345774589    0.07611320477706209    0.07439432912419032    0.07611317861249701    0.08039684200061044    
  0.0847647262680072    0.08656214691682686    0.06279421574493736    0.06255352329014877    0.06239064801279488    
  0.0637270280172074    0.06796617195451139    0.07543752412211403    0.08476474419126682    0.09278175171491634    
  0.0959550246169657    0.09278170410929078    0.08476475973526434    0.07543754431777759    0.06796615236717529    
  0.06372699038006763    0.06239064463880948    0.06255353288887475    0.06279421574493736    0.055999369275017336    
  0.05618167904688067    0.057193163392138695    0.060138493964278165    0.06614236999283714    0.07545566227236243    
  0.08656216866064878    0.09595500413112996    0.09965778513528968    0.09595496265664608    0.08656218255771325    
  0.07545568371995622    0.06614235665083927    0.06013847013854267    0.05719318564730589    0.05618168241605345    
  0.055999369275017336    0.0627942161086539    0.06255353611779944    0.06239063258116949    0.06372701577586327    
  0.06796616672720399    0.07543751946420046    0.08476470035298349    0.09278176072388093    0.0959549867445255    
  0.09278174693211017    0.08476471761818286    0.07543753466471928    0.06796614117513193    0.06372700738354746    
  0.06239061692691538    0.06255352077944039    0.0627942161086539    0.08656216874753445    0.08476473227918775    
  0.08039685840261    0.07611322719041734    0.07439433223124371    0.07611319843820086    0.08039684799617208    
  0.0847647168781112    0.08656219044176894    0.08476468543842504    0.0803968475310893    0.07611320442078853    
  0.07439436358241583    0.07611319786885273    0.08039685854872651    0.08476470807284277    0.08656216874753445    
  0.13755188425846526    0.13195926104634284    0.11782646988921264    0.10133279183533701    0.08780256816247677    
  0.07952938743003363    0.07611320873540113    0.0754375712491343    0.07545562963473085    0.07543754624703863    
  0.07611320020018349    0.07952940012882131    0.0878025934946728    0.10133278332079915    0.11782646522271845    
  0.13195928792213277    0.13755188425846526    0.22723513145496552    0.21489955546294665    0.18307296306770598    
  0.14449084865291403    0.11098096108311067    0.08780258475112604    0.07439429928203663    0.06796619167466576    
  0.06614236241570048    0.06796617363250215    0.07439431009971717    0.08780256820873736    0.11098097061018414    
  0.14449082463142288    0.18307297502058242    0.21489958376854323    0.22723513145496552    0.3374362035695601    
  0.32160454593760773    0.27366853782857653    0.2064369800908579    0.1444908768047163    0.10133277314413919    
  0.07611320267112279    0.06372701132447565    0.060138477221217845    0.06372701370553692    0.076113209752842    
  0.10133279991350805    0.14449081873612107    0.20643688618870978    0.27366846603402384    0.3216046430422506    
  0.3374362035695601    0.3823189951907725    0.38281775098276144    0.35383997868858674    0.2736685561417811    
  0.18307305394572132    0.1178263929723663    0.08039684984495434    0.06239062531934216    0.05719316766418429    
  0.06239063296634038    0.080396844993272    0.11782645889785458    0.18307304162653443    0.27366845371108006    
  0.3538399838369248    0.38281768618864426    0.3823189951907725    0.32729276955985837    0.356408406540377    
  0.38281774156684734    0.32160460747994807    0.21489957111967625    0.13195921991862317    0.08476475433704306    
  0.06255352668220061    0.05618167654500692    0.06255350733287827    0.08476474676494283    0.13195927702982624    
  0.21489958806638498    0.32160459386332096    0.3828177954392154    0.35640853503235703    0.32729276955985837    
  0.2866755091494392    0.32729271054891534    0.3823190488642535    0.3374362949544171    0.22723513201866105    
  0.1375518801206931    0.08656217858225349    0.06279421327256762    0.05599937037739278    0.06279421341725375    
  0.08656215004734848    0.13755192951253273    0.2272351456999876    0.3374362445888742    0.3823190162753297    
  0.32729280776731995    0.2866755091494392    0.38351145221736743    0.37721907101641455    0.3374362910838983    
  0.25610047718911244    0.17086129086569551    0.11024339216093082    0.07545567797563332    0.058675676512871054    
  0.0538028730332918    0.05867567556388764    0.07545567028211148    0.11024345319143448    0.1708612543344798    
  0.256100467195208    0.33743621790393036    0.3772190757109595    0.38351145221736743    0.3772190749781386    
  0.36668491056816105    0.32160460278292796    0.24253154813069705    0.16343498866910047    0.10764423976698252    
  0.07543753061283705    0.059782147690787935    0.05522779555569193    0.0597821434309092    0.07543753892822631    
  0.10764426782123915    0.16343499765234318    0.24253147468278682    0.3216045669137298    0.36668501000035153    
  0.3772190749781386    0.33743623542789075    0.3216045886286551    0.27366849500352664    0.2064369938572187    
  0.14449086679346565    0.10133276844266198    0.07611320593173646    0.0637270132585462    0.06013847955234788    
  0.06372701361204061    0.07611321440215736    0.10133280168466485    0.14449084837547913    0.20643690533456685    
  0.27366849697464984    0.32160454454248033    0.33743623542789075    0.25610043991821363    0.24253149991082104    
  0.20643693899966112    0.16152820567613282    0.12225723672945327    0.09516904316027956    0.07952940412379374    
  0.07210815423852959    0.0700532563510713    0.07210814430299496    0.07952942845136224    0.09516906429584784    
  0.12225720977942989    0.1615282501328638    0.20643695168345294    0.24253151353034302    0.25610043991821363    
  0.17086129445499926    0.1634350278653854    0.14449085554704025    0.12225725327366711    0.10399907103067396    
  0.09270864640308907    0.08780255829161418    0.08666449102293175    0.0866405382025126    0.08666448327150895    
  0.08780255409899633    0.0927086430624713    0.10399905837093171    0.12225719743619871    0.14449084253138667    
  0.16343503320370056    0.17086129445499926    0.11024338496234479    0.10764428164970172    0.10133277803687665    
  0.09516908448353982    0.09270864228313469    0.09516900583733041    0.10133278351986642    0.10764425718652795    
  0.11024338939780769    0.1076442614854159    0.10133279626288255    0.09516906983629679    0.09270864742429154    
  0.0951690189683016    0.10133280201702294    0.10764429186782153    0.11024338496234479    0.07545565652428586    
  0.07543755201303641    0.07611321554764018    0.07952940348576486    0.08780261428320987    0.10133271270962224    
  0.11782643086518342    0.1319592457049966    0.13755190956104887    0.1319592731939308    0.11782642446605102    
  0.10133281515395451    0.08780258352305899    0.07952937836027789    0.07611318813562967    0.07543753958134121    
  0.07545565652428586    0.058675677174827384    0.05978214251246543    0.06372704066694392    0.07210814959398519    
  0.08666446925683495    0.10764426043668533    0.13195922756455455    0.1523388449268055    0.16034054398148548    
  0.15233882531816606    0.1319593091826144    0.10764426024222831    0.08666448313422531    0.07210812007185628    
  0.06372702911925804    0.0597821410056521    0.058675677174827384    0.05380286906789907    0.055227803713272974    
  0.060138482610130585    0.07005328073636594    0.08664052353881734    0.11024338637695712    0.1375519090322506    
  0.16034050066655528    0.1692287329835947    0.16034050372670433    0.1375519384339805    0.11024341438674434    
  0.08664054250918257    0.07005323402769384    0.06013849192407497    0.05522779527108443    0.05380286906789907    
  0.05867567232505401    0.059782148012534564    0.06372701655096721    0.07210814149437347    0.08666446278977136    
  0.10764424594060437    0.13195925390420646    0.15233889352178223    0.16034054408642595    0.15233884050868773    
  0.13195928065146906    0.1076442921485314    0.08666446344111935    0.07210812140911772    0.06372701057732447    
  0.05978214255771012    0.05867567232505401    0.07545565944323081    0.0754375311101415    0.07611321884540762    
  0.07952940422656514    0.08780258981348392    0.10133277408765017    0.11782641770081873    0.1319592393271699    
  0.13755190056840638    0.1319592629367098    0.11782644097937504    0.10133282204349486    0.08780259802067605    
  0.07952938525916957    0.07611320476189148    0.07543751050952208    0.07545565944323081    0.11024341528176987    
  0.10764426150616792    0.10133280377534806    0.0951690621910302    0.09270863730487891    0.09516905640041115    
  0.10133280783024042    0.10764426993519575    0.11024339857608038    0.10764425009878034    0.10133279461702194    
  0.09516903529930616    0.09270865368653657    0.09516904250487107    0.10133279741058131    0.10764427132257812    
  0.11024341528176987    0.1708612675103524    0.16343502462887133    0.1444908134637517    0.1222572210625681    
  0.10399907358709005    0.09270861834984628    0.0878025777078463    0.08666448952857406    0.08664055546803862    
  0.08666448351319872    0.08780258323794796    0.09270865495345872    0.10399907869126468    0.12225723805947718    
  0.14449084129123774    0.16343501175471256    0.1708612675103524    0.25610044804457766    0.24253147766547833    
  0.2064369191260512    0.16152826173170418    0.12225724682305145    0.09516903147176672    0.07952940169202116    
  0.07210816193960906    0.07005324158892132    0.07210813824519297    0.07952939020904301    0.09516908074279523    
  0.12225722952526064    0.1615281961536357    0.20643691748936252    0.24253147848501708    0.25610044804457766    
  0.33743625361784607    0.3216045929239514    0.27366849933701726    0.20643696095365588    0.14449088964557347    
  0.10133275587555642    0.07611319399036777    0.06372702276356616    0.06013847965938182    0.06372701738447234    
  0.07611320636519568    0.10133278232187985    0.1444909236506302    0.20643681530472408    0.2736684997630117    
  0.32160457286357763    0.33743625361784607    0.3772191039891648    0.3666849098115179    0.32160464391487154    
  0.24253149731218573    0.16343503169070225    0.10764423780152178    0.07543755327132051    0.05978214214555118    
  0.05522779967583924    0.059782126614281075    0.0754375543464434    0.10764426125803786    0.16343499588836993    
  0.2425315008359735    0.321604564367643    0.3666849427365662    0.3772191039891648    0.38351145221736743    
  0.37721907101641455    0.3374362910838983    0.25610047718911244    0.17086129086569551    0.11024339216093082    
  0.07545567797563332    0.058675676512871054    0.0538028730332918    0.05867567556388764    0.07545567028211148    
  0.11024345319143448    0.1708612543344798    0.256100467195208    0.33743621790393036    0.3772190757109595    
  0.38351145221736743    0.28788431291916267    0.27159390980951137    0.22723510415646603    0.1708612590960693    
  0.1211934427727279    0.08664052909820687    0.06614234537708345    0.05588663192749287    0.0528614458849027    
  0.05588662270493469    0.06614232265569767    0.08664055182581386    0.12119344339024891    0.1708612595845262    
  0.2272350631495855    0.27159393309726454    0.28788431291916267    0.2715938942506646    0.2561101911426934    
  0.2148995992522968    0.16343501561832605    0.11820108569381617    0.08666445656457838    0.06796617057478876    
  0.05863302379285508    0.05588662509724086    0.05863302318327261    0.06796618983118635    0.08666449033763211    
  0.11820112083884264    0.16343498352346342    0.214899511562822    0.2561102626388985    0.2715938942506646    
  0.2272351151527295    0.21489951100584287    0.18307297429906286    0.14449088872167137    0.11098095754065945    
  0.08780254568253215    0.07439432403659414    0.06796617238742635    0.06614234246079698    0.06796617226028111    
  0.07439431613989249    0.08780259542720123    0.11098092857376257    0.1444908136492788    0.18307300864864198    
  0.2148995621278836    0.2272351151527295    0.17086119198555508    0.16343503221586062    0.14449082954460088    
  0.12225721295488864    0.10399905224212637    0.09270863087935861    0.08780259222894925    0.08666450325751895    
  0.08664050867036663    0.08666448793610596    0.08780261396608104    0.09270864216643647    0.10399902113666651    
  0.12225722187170916    0.1444908430407449    0.16343504848911208    0.17086119198555508    0.12119345831795415    
  0.11820111300074644    0.11098088659055771    0.1039990639982347    0.10123409011052915    0.10399903381097836    
  0.11098092878604542    0.11820113361613326    0.12119345969676816    0.1182011522900626    0.11098088537406536    
  0.10399906658932315    0.10123407897022595    0.10399903870913392    0.11098089678597646    0.11820115609034738    
  0.12119345831795415    0.08664049694060617    0.08666449257323666    0.08780258394309386    0.09270865295534804    
  0.10399903630686062    0.12225716066512644    0.14449082217799433    0.16343502715234362    0.1708612371589517    
  0.16343497202957802    0.14449086104150013    0.12225725109562487    0.10399905990867947    0.09270860545711421    