#     DFTpy    
  CRYSTAL 
    
  PRIMVEC    
  4.385960827386849    -2.4097324e-10    4.567473889655172e-10    
  -2.4097324e-10    4.385960827131993    2.2008297724137933e-10    
  8.346482655172413e-10    4.0224073103448277e-10    8.035165238464067    
  PRIMCOORD    
  4    1    
  Si    2.192980413609863    2.1929804147728635    2.4691600718142057    
  Si    8.132137195752453e-10    -7.526184583636013e-10    1.548422544716794    
  Si    1.2472787035050296e-10    5.684066652193607e-10    6.486742689189664    
  Si    2.1929804142673683    2.19298041310685    5.5660051718842976    
  BEGIN_BLOCK_DATAGRID_3D    
  3d_datagrid_density    
  BEGIN_DATAGRID_3D#0    
  19    19    37    
  0.0    0.0    0.0    
  4.385960827386849    -2.4097324e-10    4.567473889655172e-10    
  -2.4097324e-10    4.385960827131993    2.2008297724137933e-10    
  8.346482655172413e-10    4.0224073103448277e-10    8.035165238464067    
  0.13627269234252348    0.12746783078734633    0.10521445287582294    0.07882861149237703    0.05599368861710664    
  0.039682386732863756    0.029431188302688666    0.023530686487316908    0.02058212993867006    0.019708358737920942    
  0.020582111277605987    0.023530684071171874    0.029431188616774986    0.03968239978549881    0.05599369004324452    
  0.07882860852415431    0.10521446254760257    0.1274678252901627    0.13627269234252348    0.1274678695165152    
  0.11938650601286867    0.09893506954642385    0.07465485959552988    0.053514758995834875    0.03829785254170527    
  0.02866794885562636    0.023118040039086615    0.020340534213455625    0.019519908154531272    0.020340533440019168    
  0.023118029100936154    0.028667955467305894    0.03829784957775145    0.05351474555405022    0.0746548613355526    
  0.09893505722291325    0.11938646162329504    0.1274678695165152    0.10521444241456906    0.09893504616493384    
  0.08302069608036877    0.06393806921447506    0.047076357161117674    0.034677400510644996    0.02669764233290587    
  0.02205392958090562    0.019711857871677004    0.01901472691356381    0.01971184446034819    0.022053925935607736    
  0.02669763936014694    0.03467740918594821    0.04707633161406606    0.06393807215104222    0.08302070850401963    
  0.09893506751002716    0.10521444241456906    0.07882859428191848    0.07465484573940775    0.0639380643762601    
  0.05083952379103512    0.038988160299616374    0.030050936716074016    0.02415529093332513    0.020686965727660676    
  0.018924045903249753    0.01839516484073947    0.018924041895463956    0.020686956853855108    0.024155290593613214    
  0.030050955328562397    0.03898816753801923    0.050839524554593174    0.06393806747686019    0.07465485929511906    
  0.07882859428191848    0.05599369287094077    0.05351475925230171    0.047076348872651955    0.038988171992351515    
  0.03147564907387205    0.025647788068358386    0.021710951208563017    0.019394069013378347    0.018233839953768975    
  0.017882345100265547    0.018233833184015585    0.019394065071166457    0.021710951010002377    0.02564778924076588    
  0.03147563687786302    0.03898818109057954    0.04707634885895657    0.053514757325737454    0.05599369287094077    
  0.039682383009742236    0.038297844632444955    0.034677407378244096    0.03005095672744294    0.025647787479154884    
  0.022175185268772674    0.01981772486010974    0.018470706032129035    0.0178233657888701    0.017627913609409258    
  0.017823368545097956    0.018470699429721748    0.019817726872616334    0.022175190223191105    0.025647785830538828    
  0.030050949154882108    0.034677406789009636    0.03829785151914217    0.039682383009742236    0.029431178088285277    
  0.02866793829949083    0.026697629956456453    0.024155293544526425    0.021710937397858794    0.01981772566300941    
  0.018600023438501905    0.017970670414084833    0.017728160456057594    0.017668080947924623    0.0177281547032842    
  0.017970667983422613    0.01860002682345102    0.019817727296683168    0.02171095219831253    0.02415529441075414    
  0.026697639863952866    0.028667941057304084    0.029431178088285277    0.023530691142393027    0.02311803757151245    
  0.02205392200283674    0.020686970164292596    0.019394075506055694    0.018470703563672655    0.017970679016551947    
  0.017810195960531905    0.017848479360879285    0.017892737595995998    0.017848484291285695    0.01781019990291949    
  0.017970681751737144    0.018470706068012918    0.01939406865507649    0.020686974397466654    0.022053929793317443    
  0.023118041370150104    0.023530691142393027    0.02058211961910871    0.02034052767682298    0.019711843938137567    
  0.018924055395665534    0.018233835990441847    0.0178233630013268    0.017728154133522134    0.017848466037052438    
  0.01802952517316844    0.018112654137090706    0.018029525562331634    0.01784847121026988    0.017728157440580098    
  0.017823366551714286    0.018233835726006502    0.018924042682973968    0.01971183975550601    0.020340534003197627    
  0.02058211961910871    0.01970835842444464    0.01951990481765151    0.019014726298016527    0.01839517471941218    
  0.017882337791446094    0.01762790759793784    0.01766807691251563    0.017892730137659876    0.01811263841931483    
  0.018193807091655495    0.01811264953512902    0.017892736693897092    0.017668080900455893    0.01762791385479078    
  0.017882335252069132    0.018395168722270046    0.019014719655354558    0.019519910112329692    0.01970835842444464    
  0.020582126771963395    0.020340520923295653    0.019711847629138936    0.018924047289011085    0.01823384104965944    
  0.017823364044911794    0.017728163706155955    0.01784847320574738    0.018029520527824743    0.018112638505043525    
  0.018029534557423076    0.017848470308256304    0.017728166101010235    0.017823371164474588    0.018233839494203312    
  0.018924052136056985    0.0197118433880365    0.020340538796442518    0.020582126771963395    0.02353069567352394    
  0.023118032692015587    0.022053923074449536    0.02068697796563997    0.019394075497122076    0.018470692322784338    
  0.017970682004101218    0.017810205314560377    0.017848479831075282    0.017892731691356762    0.017848487498063535    
  0.017810208959354062    0.017970667275895018    0.018470695491898198    0.019394071064172402    0.020686972930001764    
  0.022053924611475054    0.023118042483238656    0.02353069567352394    0.02943117430485795    0.028667936097390104    
  0.026697631923704154    0.02415529802767598    0.021710942005455463    0.01981772145165711    0.01860001372597298    
  0.017970674945875974    0.017728157194689183    0.017668081250042354    0.017728153551193768    0.01797066932177186    
  0.018600020471892978    0.019817721912853775    0.021710940709612957    0.024155287971199226    0.02669762958963928    
  0.028667935068329996    0.02943117430485795    0.039682403204455846    0.03829785304391984    0.034677404219179156    
  0.030050955178837    0.025647788953926835    0.022175184128460663    0.019817724142557513    0.01847070481385738    
  0.01782336842715135    0.017627898925906278    0.01782336610481056    0.018470698804833083    0.019817724921720948    
  0.022175187766457057    0.025647777488997072    0.030050948170417195    0.03467740532977286    0.03829785503888554    
  0.039682403204455846    0.05599368620693279    0.053514758241352045    0.047076358768716534    0.03898818395547945    
  0.0314756456891783    0.02564779111529366    0.021710943583946603    0.019394074752971665    0.018233834300582157    
  0.01788234539244161    0.01823383548881072    0.019394060444887402    0.02171094642357909    0.025647781819684193    
  0.031475639471779976    0.03898817808780667    0.04707635686934114    0.05351475834119842    0.05599368620693279    
  0.07882860241868565    0.07465486869572337    0.06393807019501367    0.05083952234480089    0.0389881611637911    
  0.030050948016326788    0.02415529010526521    0.020686972437548638    0.018924047409650282    0.018395172540526725    
  0.01892403922943846    0.02068695536594152    0.0241552890475795    0.030050950202754903    0.03898816738031517    
  0.05083950869853368    0.06393806554501932    0.07465485370408571    0.07882860241868565    0.10521445683879924    
  0.09893507888060298    0.083020708910073    0.06393805599044207    0.04707634770623283    0.03467740156180756    
  0.026697639287876485    0.02205392525962535    0.019711855958120108    0.019014733467201474    0.01971185064114766    
  0.022053919169829874    0.026697651272080528    0.03467740721716129    0.04707635714862197    0.06393808368111072    
  0.08302068698548645    0.09893507491168392    0.10521445683879924    0.12746783043566431    0.11938646563014188    
  0.09893506141752853    0.07465488049796734    0.05351475569005708    0.038297847232208894    0.028667942299278344    
  0.0231180398904567    0.020340533268388028    0.01951991432782412    0.020340525612228693    0.02311802639203918    
  0.028667950874281867    0.03829783863532145    0.05351475625730061    0.07465486677853013    0.0989350743931316    
  0.11938649678921313    0.12746783043566431    0.13627269234252348    0.12746783078734633    0.10521445287582294    
  0.07882861149237703    0.05599368861710664    0.039682386732863756    0.029431188302688666    0.023530686487316908    
  0.02058212993867006    0.019708358737920942    0.020582111277605987    0.023530684071171874    0.029431188616774986    
  0.03968239978549881    0.05599369004324452    0.07882860852415431    0.10521446254760257    0.1274678252901627    
  0.13627269234252348    0.16012898002752093    0.14931038424036489    0.12213200204968933    0.09013949073401138    
  0.06265745724595469    0.04323626675992806    0.031224435029014258    0.024471198959758775    0.02113092200591663    
  0.02013406549975441    0.021130906930320978    0.024471198351163036    0.031224436989287944    0.04323627719468975    
  0.0626574595964533    0.09013951336952263    0.12213199761892192    0.14931036238960263    0.16012898002752093    
  0.14931040013693178    0.13942580593693532    0.11453473763134238    0.0850930104992926    0.05967469823159386    
  0.04160379553204238    0.030368814751472933    0.024025977372413666    0.02088419950078486    0.019945695663458902    
  0.020884193120559013    0.024025976557719188    0.03036882231719265    0.04160379611445884    0.05967468264937951    
  0.08509300667326072    0.1145347688923145    0.1394258169501905    0.14931040013693178    0.12213198229435626    
  0.11453473314916629    0.09526251978160692    0.07221011767812414    0.05200622519899694    0.03739547532808269    
  0.02815883474470535    0.022878961276664864    0.020238559453562316    0.019446392810704274    0.02023854736128765    
  0.022878956554810457    0.028158835824428127    0.03739549697402666    0.052006200190431756    0.0722101461747856    
  0.09526251285206136    0.11453477442370746    0.12213198229435626    0.09013949930861068    0.08509301593908992    
  0.0722101265876502    0.05654376199187069    0.042508147898395854    0.03209825900409207    0.025355750512794435    
  0.02143079826749003    0.019452300442629786    0.018857435438627175    0.01945229562436809    0.021430787696473254    
  0.02535576076921762    0.03209827483134646    0.0425081653963136    0.05654375659024953    0.07221013638841313    
  0.08509299976464196    0.09013949930861068    0.06265745941782738    0.05967471099376844    0.05200621443544704    
  0.042508166027917314    0.03377755245047683    0.027118739235963026    0.022695129973210347    0.020103944593479445    
  0.01881284768811459    0.018429731216029036    0.018812850013073663    0.02010393718837302    0.022695142214506654    
  0.027118749271802252    0.03377754338348384    0.042508163901591886    0.052006219598251406    0.059674693674167445    
  0.06265745941782738    0.04323626283350331    0.0416037994008921    0.03739549180216163    0.03209826535877585    
  0.027118740947998803    0.02324550561161752    0.020665234533375997    0.0192007697852869    0.018512049624721555    
  0.018316618500762136    0.01851204142100287    0.019200766651484825    0.020665233841347646    0.02324551053908671    
  0.027118741170368065    0.03209827802329014    0.03739549088662775    0.041603797645589385    0.04323626283350331    
  0.031224432346777752    0.030368803961949777    0.02815882706176375    0.025355767422653212    0.022695119492006872    
  0.02066523122625074    0.01940038006219886    0.018786618267364566    0.01857765147546308    0.01853786504227422    
  0.018577636104171368    0.01878661635536348    0.01940038385547193    0.020665236674543033    0.022695130201732684    
  0.025355763329712205    0.02815883331716584    0.030368809574685282    0.031224432346777752    0.024471205597048976    
  0.024025987624295832    0.02287895260497661    0.02143079325717773    0.02010394254036911    0.019200771049058055    
  0.018786625639914362    0.018746506220593064    0.01887376333678702    0.018949308136818    0.01887376419988994    
  0.018746508799205912    0.01878662121356161    0.019200774197192745    0.0201039444291828    0.021430799655599228    
  0.022878954812616925    0.024025988088803515    0.024471205597048976    0.021130914620678218    0.020884185270974676    
  0.02023854329468078    0.01945230099510756    0.01881285343465533    0.01851204211618054    0.01857764739109403    
  0.018873759570877252    0.019187784300287836    0.01932088425961808    0.019187787603728544    0.01887374718111935    
  0.018577642992040715    0.018512034699313742    0.018812848670881437    0.01945229896489523    0.020238541779216163    
  0.02088419839228437    0.021130914620678218    0.02013406414795085    0.01994569915118626    0.019446389415460945    
  0.018857435946486017    0.018429727136950753    0.018316620179289193    0.018537877038427363    0.018949306593239183    
  0.019320874469009302    0.01946946224106841    0.019320885413538574    0.018949296252019795    0.018537874502996356    
  0.018316620504163363    0.01842972803616287    0.01885743386344829    0.01944638219868644    0.01994570099238311    
  0.02013406414795085    0.021130918959920406    0.020884181138905288    0.02023854865681719    0.019452298729212916    
  0.01881284158515774    0.018512044890192852    0.01857765850451326    0.018873762217200732    0.019187788813026695    
  0.01932087393100319    0.019187791957201272    0.0188737636883473    0.01857765464782521    0.018512053427147363    
  0.018812851072870687    0.019452301616399072    0.02023854886421611    0.020884200069447897    0.021130918959920406    
  0.02447120465871232    0.024025979840863524    0.022878954299328548    0.021430803725675015    0.020103947531184472    
  0.019200765250121637    0.018786625494773737    0.0187465133613231    0.01887376415324572    0.018949303325358973    
  0.01887376730380508    0.018746508866861054    0.018786620783746617    0.019200772061070712    0.0201039396683865    
  0.021430803064359714    0.022878950862014774    0.024025992070778185    0.02447120465871232    0.031224424525971115    
  0.03036879922346405    0.0281588277202263    0.02535576698642627    0.022695129218187234    0.020665227549366078    
  0.01940038505446959    0.018786622416109247    0.01857764883108105    0.018537871622830104    0.018577649553911987    
  0.018786623185079333    0.019400377672234438    0.02066523563395971    0.022695136180213626    0.02535576048115424    
  0.0281588181533688    0.030368812265143017    0.031224424525971115    0.043236286045415545    0.04160380131146185    
  0.037395495754876766    0.032098264691315416    0.027118746721800688    0.023245507249104576    0.020665225257086674    
  0.019200775902315618    0.01851203735782843    0.018316610021416026    0.018512043153437283    0.019200766409226664    
  0.02066524248058986    0.02324551273501493    0.027118738998229978    0.03209827526371415    0.03739549519898362    
  0.041603792193203315    0.043236286045415545    0.06265746093070346    0.05967470453658671    0.052006220299823575    
  0.04250816980424045    0.033777548829260214    0.02711874153110841    0.022695123443210428    0.02010394869784681    
  0.018812840299543897    0.01842973191099422    0.018812847250635298    0.02010393530154823    0.022695137560582453    
  0.027118747201170204    0.0337775381650018    0.04250817645610033    0.05200622674280596    0.0596747013514384    
  0.06265746093070346    0.09013947022366615    0.08509300262489679    0.0722101194710074    0.05654375922575152    
  0.042508155593619326    0.0320982672127112    0.025355755459511038    0.021430792673977503    0.019452303739409673    
  0.01885744058234505    0.019452294346104404    0.02143078528551428    0.025355758485320113    0.0320982682264153    
  0.04250815167757341    0.05654375446853264    0.07221011948212509    0.0850930166667141    0.09013947022366615    
  0.1221319979612509    0.11453476275065885    0.09526252807142406    0.07221013426674794    0.05200623176887863    
  0.03739548480068279    0.028158836649289944    0.02287895630553351    0.02023855299296425    0.01944639380709006    
  0.020238553100200406    0.022878951823320542    0.028158843065588274    0.03739549424596115    0.052006215616834474    
  0.07221014329482228    0.09526250797324241    0.11453476059609649    0.1221319979612509    0.14931036678738302    
  0.13942580930033074    0.11453474667952702    0.08509301379523848    0.059674707941915275    0.04160379674732198    
  0.03036881561738701    0.024025981634351226    0.020884197975169244    0.019945703540660102    0.02088418676183303    
  0.024025972316535804    0.030368821403377672    0.0416037886932092    0.05967469581514522    0.08509302023805648    
  0.11453476716066008    0.13942580918687725    0.14931036678738302    0.16012898002752093    0.14931038424036489    
  0.12213200204968933    0.09013949073401138    0.06265745724595469    0.04323626675992806    0.031224435029014258    
  0.024471198959758775    0.02113092200591663    0.02013406549975441    0.021130906930320978    0.024471198351163036    
  0.031224436989287944    0.04323627719468975    0.0626574595964533    0.09013951336952263    0.12213199761892192    
  0.14931036238960263    0.16012898002752093    0.23863362222078688    0.22160902938084417    0.17840495874791354    
  0.12724815256058292    0.08393977472992743    0.05431800041004156    0.03672423981623601    0.02727599855693098    
  0.022752928055365194    0.021407868498818722    0.022752908379289366    0.0272760019670908    0.036724237335887436    
  0.05431802359437121    0.08393977495410321    0.12724817613998188    0.17840495170770462    0.22160901086514131    
  0.23863362222078688    0.22160904947481563    0.20595897639154884    0.16626589597505728    0.11924260632377012    
  0.07934639582229504    0.05195331119704251    0.0355843059464193    0.02673901793909396    0.022486370891062354    
  0.021218731647757637    0.022486367893642188    0.026739007614721744    0.0355843164919737    0.05195331465032633    
  0.07934637839196981    0.11924261794935148    0.16626587585212899    0.20595897894153914    0.22160904947481563    
  0.1784049389757245    0.16626588558475194    0.1355232952310368    0.09899225781634119    0.06769581526801866    
  0.04590124303051898    0.0326521515456758    0.025361496052004565    0.021818281767764014    0.020757921102140767    
  0.021818268500376874    0.02536149378936835    0.032652155389005094    0.04590125670822107    0.06769579868027052    
  0.0989922736550322    0.13552331277832558    0.16626588905060435    0.1784049389757245    0.12724812864701018    
  0.11924259942383383    0.09899226607242713    0.07476582972330968    0.053596197836441345    0.038465226656635675    
  0.02902704105699673    0.023709500086207102    0.021096196373383135    0.020318800899560847    0.021096187746544093    
  0.023709497617395978    0.02902704798512081    0.038465242283965674    0.05359620920282073    0.07476582707945852    
  0.09899226257951602    0.11924261397359692    0.12724812864701018    0.08393977184366627    0.07934638861368196    
  0.06769581644300544    0.05359620810070872    0.04096937027486061    0.03167412453349797    0.025743698982605808    
  0.022351333804262383    0.020696565700463    0.020220062208400395    0.020696565812048432    0.02235132704985434    
  0.02574370440981429    0.03167413079433574    0.040969356973417165    0.05359621979526305    0.0676958259443564    
  0.07934638377734486    0.08393977184366627    0.0543180181114134    0.051953312500278355    0.045901249105405655    
  0.03846523586515274    0.03167412497706234    0.026594374041417148    0.02337226371453212    0.021608738553251725    
  0.020828467662018416    0.020630632709600215    0.02082846161424341    0.021608735454116377    0.023372275443955523    
  0.026594372247750284    0.031674130570383666    0.038465243894938536    0.04590124599665621    0.051953317990650005    
  0.0543180181114134    0.03672423503506746    0.03558429267900246    0.03265215010155763    0.02902704155132607    
  0.025743686922920395    0.023372270386954826    0.022044742494271727    0.02154399474278717    0.02148426159868017    
  0.021518400634323916    0.021484254601158072    0.02154399153049081    0.022044748379630726    0.02337227230718859    
  0.025743693712051798    0.02902705065395241    0.03265215377729239    0.035584293785838696    0.03672423503506746    
  0.027276006560612517    0.026739022245472997    0.025361485856516718    0.023709503711988378    0.022351337364845125    
  0.021608745051614708    0.021544004063910473    0.021946571938040525    0.022422884151345888    0.02262714988153965    
  0.022422898703881367    0.02194657040907654    0.021543994900114456    0.02160874871533335    0.0223513405366856    
  0.023709510102533138    0.02536149577264769    0.0267390256490419    0.027276006560612517    0.02275292490427681    
  0.022486362407144814    0.021818261763865626    0.021096196262541844    0.020696573693239233    0.020828462603344877    
  0.021484259511004966    0.02242287030754339    0.023241064989970906    0.02356766176897575    0.023241070403813097    
  0.022422887227025536    0.02148426051062848    0.020828455558051222    0.020696568003554645    0.02109619360964352    
  0.021818262830919425    0.022486373775213907    0.02275292490427681    0.02140787050125274    0.021218729057447486    
  0.020757914082445143    0.020318807020806528    0.020220058906773964    0.020630635661022145    0.02151841056475275    
  0.022627157548095755    0.02356765808465656    0.023945023791429987    0.023567650680287038    0.02262715400384073    
  0.02151839828805162    0.02063064020676398    0.020220063217981362    0.02031880479532567    0.020757911871058625    
  0.02121873643163016    0.02140787050125274    0.022752925749089044    0.022486354419332763    0.021818267616771844    
  0.02109618895722697    0.020696563358283623    0.020828455113570215    0.0214842688661461    0.02242288609375462    
  0.02324106938743234    0.023567653561202953    0.0232410744501539    0.022422880295190198    0.02148426098380909    
  0.02082846495190394    0.020696564682405664    0.02109619207942882    0.0218182649879109    0.022486369141237156    
  0.022752925749089044    0.027276005794517416    0.026739012110572606    0.02536148814169032    0.02370951048665204    
  0.02235134172901439    0.02160873398678159    0.021544000397854174    0.02194657527139118    0.022422885084384777    
  0.022627155448367776    0.022422891787143105    0.021946575487204297    0.02154399490386291    0.02160873488144961    
  0.022351338581106137    0.023709511894421487    0.02536148929822951    0.02673902580570505    0.027276005794517416    
  0.036724215928910585    0.03558429333588239    0.032652143927491564    0.029027051173812858    0.025743686058745673    
  0.023372265349591758    0.02204473791540283    0.02154400427672318    0.021484258705088733    0.0215183969811579    
  0.02148426235618614    0.021544004770349883    0.022044744284328573    0.02337227114821168    0.025743698905622534    
  0.029027043617265845    0.03265213674822263    0.03558429759304975    0.036724215928910585    0.05431802123632538    
  0.05195331890909063    0.04590125314153529    0.03846522364166808    0.03167413625763403    0.026594376823992925    
  0.023372270603788745    0.02160874412772711    0.020828463203161365    0.020630626238548208    0.02082846465481257    
  0.0216087359406977    0.023372276749966954    0.026594380028529464    0.03167413017699451    0.038465233339068844    
  0.045901257451925914    0.05195331780047493    0.05431802123632538    0.08393977891590004    0.07934639598389114    
  0.06769580778856654    0.05359621952481556    0.04096936395430566    0.031674128469230386    0.025743693746785937    
  0.022351342904948324    0.020696556310640445    0.020220067654023267    0.02069656478321932    0.022351332671149245    
  0.02574369748630144    0.03167413220252883    0.04096935844234938    0.053596217148256894    0.06769583014335445    
  0.07934639712705564    0.08393977891590004    0.12724813362028664    0.11924261175927131    0.09899225264823511    
  0.0747658200814631    0.05359619288048506    0.03846522971258389    0.02902704115757253    0.02370950152973735    
  0.021096198640782795    0.020318806290129447    0.021096181376722725    0.02370949627815492    0.029027044838296576    
  0.038465232056565365    0.05359620347261626    0.0747658235553929    0.09899226182148342    0.11924261412059342    
  0.12724813362028664    0.17840495709041404    0.1662659233462802    0.1355232964540048    0.09899226561338009    
  0.06769582635480664    0.04590124682639557    0.03265215148329414    0.025361490378211622    0.021818277322222156    
  0.02075792217544339    0.02181827720743375    0.02536148772444362    0.03265216649012814    0.04590126549418677    
  0.06769581004793945    0.09899226739901737    0.13552330576339652    0.16626588465562087    0.17840495709041404    
  0.2216090251356179    0.20595900645585502    0.16626588089972025    0.11924262625047266    0.07934639517762997    
  0.05195331894292778    0.0355842986947306    0.026739014674328012    0.02248636990495633    0.021218732705284658    
  0.022486363897628852    0.026739002141336857    0.03558430919306881    0.05195330501244039    0.07934638949324742    
  0.11924260545444967    0.1662658789740039    0.20595899339033802    0.2216090251356179    0.23863362222078688    
  0.22160902938084417    0.17840495874791354    0.12724815256058292    0.08393977472992743    0.05431800041004156    
  0.03672423981623601    0.02727599855693098    0.022752928055365194    0.021407868498818722    0.022752908379289366    
  0.0272760019670908    0.036724237335887436    0.05431802359437121    0.08393977495410321    0.12724817613998188    
  0.17840495170770462    0.22160901086514131    0.23863362222078688    0.3632734849074952    0.34164003184498604    
  0.27906324479360234    0.19560279812676667    0.12239203952676912    0.07362234682636226    0.045966129766828505    
  0.03180994214301635    0.02533206146711194    0.023458315998036734    0.025332037922809695    0.031809943613283584    
  0.04596613247781688    0.07362235827302208    0.12239202711343813    0.19560281756755993    0.27906323792682725    
  0.34163997394045625    0.3632734849074952    0.3416400259650768    0.320006605762857    0.25980974819610125    
  0.18216541218563068    0.11488212935403516    0.0699999228536494    0.04437385885397828    0.031151511941927154    
  0.025065405857862686    0.02329841855347937    0.02506540072852671    0.031151506947662878    0.0443738736682758    
  0.06999991968627767    0.11488210177076087    0.18216542752808246    0.25980975890295027    0.32000653504380644    
  0.3416400259650768    0.27906322712308596    0.25980975874671747    0.20946819982398804    0.14809706963100866    
  0.0958643065991207    0.06072147001894548    0.04027331819518048    0.029506010691859604    0.024477772890323424    
  0.02300831204657917    0.02447775877656705    0.029506006098151544    0.04027331372791041    0.060721468525391    
  0.09586427407128557    0.14809707078039155    0.20946819026060456    0.2598097400621668    0.27906322712308596    
  0.1956027982533967    0.1821653991277252    0.14809707056650842    0.10767439572330299    0.07322797089106577    
  0.0495149672155004    0.03533630054383152    0.027682708964513875    0.02405717707170852    0.022997159455374432    
  0.02405717050159551    0.02768269448973809    0.03533630360505013    0.04951498720536424    0.07322797520826582    
  0.1076743846378902    0.14809705306334656    0.1821654059811586    0.1956027982533967    0.12239202389476518    
  0.11488212222343569    0.09586429536853658    0.07322799100589965    0.053570249174162816    0.03964071120356889    
  0.03113392445970461    0.026494120429678254    0.02431029851683009    0.023690768501898312    0.02431029117780272    
  0.026494123221266368    0.03113392572987209    0.03964070497850904    0.05357024570452019    0.07322799946597548    
  0.09586429924723842    0.11488210718013903    0.12239202389476518    0.07362234501199495    0.06999991926668374    
  0.06072147500534998    0.049514990706998316    0.039640707573500994    0.0326000430268158    0.028424149162960575    
  0.026341177299887154    0.02552793074612609    0.02535212502484086    0.025527936071545812    0.026341172583998547    
  0.028424154307506472    0.03260004310273569    0.03964070490307408    0.049514984402982166    0.06072148098771501    
  0.06999993839560607    0.07362234501199495    0.04596611708436764    0.04437385099512452    0.040273301100926015    
  0.035336307100608026    0.031133921766423017    0.028424150267128644    0.027264526785280196    0.027233500579430216    
  0.02765272065576332    0.02788863471049948    0.027652713103900516    0.027233499381660947    0.02726452701735401    