#     DFTpy    
  CRYSTAL 
    
  PRIMVEC    
  3.111310344827586    0.0    0.0    
  0.0    3.111310344827586    0.0    
  0.0    0.0    3.111310344827586    
  PRIMCOORD    
  2    1    
  Si    0.0    0.0    0.0    
  Si    1.555655172413793    1.555655172413793    1.555655172413793    
  BEGIN_BLOCK_DATAGRID_3D    
  3d_datagrid_density    
  BEGIN_DATAGRID_3D#0    
  15    15    15    
  0.0    0.0    0.0    
  3.111310344827586    0.0    0.0    
  0.0    3.111310344827586    0.0    
  0.0    0.0    3.111310344827586    
  0.05395850862806048    0.09293046963269828    0.2309321814383325    0.3683352973894527    0.3490265144107131    
  0.2576564409347139    0.19334150808671471    0.17274538630814143    0.1933414896733894    0.25765643951572753    
  0.3490265361592667    0.36833535475908025    0.23093217946466996    0.09293050564852287    0.05395850862806048    
  0.09293050116030982    0.13855221710912066    0.2740087683881947    0.38026776513926547    0.34336266820627315    
  0.2532835374765092    0.1920963554272229    0.17250209424332955    0.19209629820483032    0.25328351069042965    
  0.34336272754893205    0.3802677436456123    0.27400874086561594    0.13855224691202672    0.09293050116030982    
  0.23093219974917553    0.27400872617362054    0.36288771440579015    0.38834979538608005    0.32276552968530814    
  0.24111194646967518    0.1888166956356576    0.1719057041190973    0.1888166281126884    0.2411119472887092    
  0.3227655738264707    0.388349813602637    0.36288771272636605    0.27400876399084745    0.23093219974917553    
  0.3683353467526447    0.38026773738873765    0.38834991332638824    0.35258342631519984    0.28518685189585424    
  0.2232325934520872    0.1843184496635799    0.17137116218708828    0.18431844151543594    0.22323262623586615    
  0.2851868752295792    0.3525834071565399    0.38834981670794305    0.38026775697390264    0.3683353467526447    
  0.34902649293091914    0.3433627254566957    0.32276560187884096    0.28518683688942226    0.24090520696797962    
  0.20358947613996642    0.1796580306772812    0.1713711486214051    0.17965800146485542    0.20358946944072367    
  0.240905248372573    0.28518684677443157    0.32276555428988996    0.34336276207150657    0.34902649293091914    
  0.2576564932535225    0.25328349509256937    0.24111194569203787    0.2232326027333963    0.20358945368995549    
  0.1869445191097544    0.17588165785836402    0.17190576752116743    0.17588156887373202    0.18694455877288838    
  0.20358944746362057    0.22323257756815063    0.24111195693502235    0.25328353609125387    0.2576564932535225    
  0.19334149656538274    0.19209635257296898    0.18881665286883045    0.18431846417697037    0.1796579892137    
  0.1758816202289779    0.17341098892266726    0.17250205301528512    0.17341096297291514    0.17588161092412108    
  0.17965801561813527    0.18431843735400705    0.1888166732589657    0.19209635886526738    0.19334149656538274    
  0.17274534012404    0.17250200626569479    0.1719057275369695    0.17137115349271773    0.17137112591315165    
  0.1719057530785845    0.17250201618357502    0.17274538235114478    0.17250200073792435    0.17190573812699067    
  0.17137113798050865    0.17137117084196898    0.17190574389651953    0.17250203202549452    0.17274534012404    
  0.19334149107501042    0.1920963244705838    0.18881668012461952    0.18431845903598817    0.17965801416998697    
  0.17588161089699378    0.17341099471056148    0.17250203963598065    0.17341092612239922    0.1758816311772729    
  0.17965799946820138    0.1843184521696292    0.188816653438553    0.19209633277512939    0.19334149107501042    
  0.25765649830048415    0.25328348380702725    0.24111199560125215    0.22323257648810368    0.20358942812215922    
  0.186944529059468    0.17588161260813487    0.17190574294330377    0.17588157105266258    0.1869445742036902    
  0.20358946909894576    0.2232326253569802    0.24111196062179938    0.2532835404655698    0.25765649830048415    
  0.3490264973080153    0.34336272229393955    0.32276564701974275    0.28518681700850596    0.2409051981154275    
  0.20358947780656653    0.17965805756339318    0.17137116075007522    0.1796580138502588    0.20358946266953756    
  0.240905218858593    0.2851868553336355    0.3227655939696164    0.34336274246411025    0.3490264973080153    
  0.36833531678073894    0.38026772606217396    0.38834990747436654    0.35258336569206566    0.28518685579084063    
  0.22323260951700633    0.18431848430299386    0.17137118575962879    0.18431844052883442    0.2232326459174332    
  0.28518684709409114    0.3525834155150924    0.3883498088533486    0.3802677825868456    0.36833531678073894    
  0.23093220143220639    0.27400875250082396    0.36288771647335366    0.38834979667232905    0.32276554325228135    
  0.24111193846769408    0.18881669382793162    0.17190574331503136    0.1888166330654458    0.2411119271447915    
  0.3227656218935446    0.3883498115656605    0.36288763937234864    0.2740087956651697    0.23093220143220639    
  0.09293049660182064    0.1385522331363688    0.2740087559071444    0.38026776896371445    0.34336268128805475    
  0.25328352139309357    0.19209632434677312    0.17250209697267788    0.1920963233333922    0.25328351878897354    
  0.34336267563075634    0.3802677651208021    0.2740087527633053    0.13855226870012366    0.09293049660182064    
  0.05395850862806048    0.09293046963269828    0.2309321814383325    0.3683352973894527    0.3490265144107131    
  0.2576564409347139    0.19334150808671471    0.17274538630814143    0.1933414896733894    0.25765643951572753    
  0.3490265361592667    0.36833535475908025    0.23093217946466996    0.09293050564852287    0.05395850862806048    
  0.09293050140807242    0.13855221273225624    0.2740087818496159    0.38026773822857424    0.34336275961297763    
  0.253283530815368    0.19209632145821162    0.17250207769962095    0.19209631698187413    0.25328354013803595    
  0.3433627321522908    0.3802677968045393    0.27400875496663324    0.1385522617692906    0.09293050140807242    
  0.13855224782908845    0.1868123841753172    0.31150425379023383    0.3879366570639242    0.3380245628103853    
  0.25016858395385627    0.1920484086947014    0.17341098485435938    0.19204835473566484    0.25016856955570493    
  0.33802461279283835    0.38793664353325236    0.3115042333592467    0.18681238239172535    0.13855224782908845    
  0.2740088021391433    0.3115042051745106    0.38133617501515643    0.38822388034130184    0.319428429435216    
  0.24145161027606593    0.19194951965027043    0.17588162330098298    0.19194948873488882    0.2414516269074044    
  0.31942847471633584    0.3882238569859358    0.38133616385350805    0.3115042542336529    0.2740088021391433    
  0.3802677829184817    0.3879366577114235    0.3882239347744346    0.3501782096161264    0.2863015467976114    
  0.22840534864994694    0.1918788198007493    0.17965799897860685    0.1918787548290295    0.22840537903547423    
  0.2863015803093052    0.35017824209739434    0.38822381993016825    0.3879366450476684    0.3802677829184817    
  0.34336275363159047    0.3380245844388122    0.31942852025357654    0.2863015530481385    0.24711484933587763    
  0.21360470121385663    0.19187877159968494    0.1843184728309593    0.1918787438850027    0.2136047248084497    
  0.2471149201510214    0.2863015378332153    0.31942844873533144    0.3380246121701366    0.34336275363159047    
  0.2532835557455781    0.2501685426964589    0.24145162001416598    0.22840535136435716    0.21360472706734565    
  0.20066815806222726    0.19194957579584834    0.18881665840159564    0.1919494815991144    0.2006681829870521    
  0.213604722734017    0.22840535469990014    0.24145160210466365    0.2501685944859826    0.2532835557455781    
  0.19209632948075273    0.19204838968063673    0.19194950297728525    0.1918788098653958    0.19187874502399666    
  0.19194952147639693    0.19204839271624383    0.19209639683923688    0.1920483414476827    0.19194952603659454    
  0.1918787606019835    0.19187874475945021    0.1919495221773445    0.1920483956501556    0.19209632948075273    
  0.17250206273361154    0.17341092689857524    0.1758816334403646    0.1796579860849616    0.18431848107385632    
  0.18881661574576594    0.19209640248016369    0.1933415044268145    0.19209636465106242    0.18881664032285586    
  0.18431845101300937    0.1796580185792808    0.1758816445838973    0.17341094374807542    0.17250206273361154    
  0.19209635503451492    0.19204836666344494    0.19194949958771731    0.19187877170453513    0.19187872042780796    
  0.19194952350893052    0.19204836326402303    0.19209637210857494    0.19204834626378894    0.1919495344571081    
  0.19187876573632612    0.1918787766899341    0.19194950541910635    0.1920483933837199    0.19209635503451492    
  0.2532835317333363    0.25016856946830435    0.2414516558872042    0.22840534197655724    0.2136046900252448    
  0.2006681628366169    0.1919495530263282    0.18881663510102392    0.19194947615157829    0.20066823070103182    
  0.21360474178659036    0.2284053741490343    0.2414516276574232    0.25016858421916327    0.2532835317333363    
  0.3433627293032053    0.33802462703506936    0.3194285542030192    0.28630151674354737    0.2471148559501578    
  0.2136047306892358    0.1918787538804619    0.18431848803149564    0.1918787477831174    0.21360471131282893    
  0.24711485066794203    0.28630151363194156    0.3194284953899604    0.338024627566487    0.3433627293032053    
  0.38026776457922945    0.38793662203780094    0.38822392059941074    0.3501782309387357    0.2863015460810879    
  0.22840536234728864    0.19187881595732947    0.17965800398160012    0.19187875267804713    0.22840539466589488    
  0.2863015846860216    0.3501782801245637    0.38822380748296365    0.38793668100884304    0.38026776457922945    
  0.2740088054719451    0.3115042082821251    0.3813362039027117    0.3882238441269664    0.3194284484720261    
  0.24145159942387484    0.19194953233783502    0.17588165685113347    0.1919494497940405    0.2414516400834183    
  0.31942847764032967    0.38822383178067443    0.3813361616911709    0.311504251455748    0.2740088054719451    
  0.13855225239834013    0.18681237963608444    0.3115042548847196    0.38793670454343065    0.33802457726940044    
  0.25016857231938194    0.1920484111289382    0.17341099193495071    0.19204837109050502    0.2501685303560534    
  0.33802461091598873    0.387936665104097    0.3115042318250304    0.18681241527930575    0.13855225239834013    
  0.09293050140807242    0.13855221273225624    0.2740087818496159    0.38026773822857424    0.34336275961297763    
  0.253283530815368    0.19209632145821162    0.17250207769962095    0.19209631698187413    0.25328354013803595    
  0.3433627321522908    0.3802677968045393    0.27400875496663324    0.1385522617692906    0.09293050140807242    
  0.2309321920142781    0.2740087267925148    0.36288768342326155    0.3883498608845107    0.3227655935425743    
  0.24111197452199656    0.1888166518515617    0.17190575501519356    0.18881663955169883    0.2411119525616848    
  0.3227656001088815    0.38834982142318886    0.3628877287922994    0.27400879665623723    0.2309321920142781    
  0.27400878158070396    0.31150424112656094    0.3813361987777581    0.38822388375003947    0.3194284493350647    
  0.24145161719939792    0.1919495199955479    0.17588166033774272    0.19194945588810053    0.24145161699119155    
  0.319428452154809    0.3882238496177605    0.38133618203531994    0.31150424506101104    0.27400878158070396    
  0.36288773605739777    0.3813361667958705    0.40345930295950644    0.37634421038100996    0.3081744394917674    
  0.24225094563688912    0.2006682524129747    0.18694448208449876    0.20066817090668387    0.2422509504933884    
  0.30817447840915885    0.3763442341095196    0.4034593091152242    0.3813362132330838    0.36288773605739777    
  0.388349866110453    0.38822386072861864    0.37634431195409396    0.33945899426645454    0.2883088701097088    
  0.24290199473390245    0.21360472206656958    0.20358950510206592    0.21360468636322708    0.24290199547801977    
  0.2883088696742253    0.33945898376025574    0.37634423980569187    0.38822388071620506    0.388349866110453    
  0.32276559134066163    0.31942843671451887    0.3081744754410227    0.2883088709052831    0.2642994638171184    
  0.24290193628061502    0.2284054147217107    0.2232325948685057    0.22840538499250043    0.24290198104857919    
  0.264299548128895    0.28830886995697375    0.30817443815040596    0.3194285240544314    0.32276559134066163    
  0.24111200067331712    0.2414515878063636    0.24225095483596804    0.24290198248989114    0.24290197210048145    
  0.2422509267940341    0.2414516591619576    0.2411120244315126    0.24145155235246932    0.24225100046599193    
  0.24290194615216004    0.2429019809343172    0.2422509129299802    0.24145161952563937    0.24111200067331712    
  0.18881664040928264    0.19194950831262134    0.20066821998430723    0.21360471478787213    0.2284053732991002    
  0.24145160166677956    0.2501686066428609    0.253283537158144    0.25016858385144836    0.2414515966710737    
  0.2284053979022826    0.21360467903842606    0.20066823462485603    0.19194950131535063    0.18881664040928264    
  0.17190574033903266    0.17588159544168921    0.1869445133051416    0.2035894725025823    0.2232325944536331    
  0.24111197017202657    0.2532834632437866    0.2576565148246954    0.25328345192850593    0.2411120019945827    
  0.22323258367113474    0.20358947779122344    0.18694451364957648    0.1758816579624281    0.17190574033903266    
  0.1888166432912527    0.1919494868616943    0.20066823557364405    0.21360467836024202    0.22840537915915124    
  0.24145159478249587    0.2501686217627756    0.25328348801123507    0.250168548280238    0.24145160952285816    
  0.22840541641567674    0.2136047195259965    0.20066820676002656    0.19194949914713852    0.1888166432912527    
  0.24111198803196818    0.24145160356103348    0.24225096505318536    0.24290196479777135    0.24290192998926044    
  0.2422509607933112    0.24145160689819128    0.24111200918149958    0.24145153992659296    0.24225100225764892    
  0.24290196884899287    0.24290195586395494    0.24225094489712676    0.24145167120465355    0.24111198803196818    
  0.3227655812474043    0.31942847929377605    0.3081745447209276    0.28830883162565535    0.2642994893304933    
  0.24290195260639538    0.22840541929088745    0.22323260545363438    0.22840539357388726    0.24290194941913212    
  0.26429948600072184    0.28830884227276604    0.30817446523824826    0.31942842811188576    0.3227655812474043    
  0.3883498364837727    0.3882238488935249    0.37634427247037816    0.3394589866289425    0.2883088573411143    
  0.24290196760519345    0.21360474197353735    0.20358952278916587    0.21360469720560993    0.24290200039198287    
  0.2883088785768249    0.3394590217889154    0.3763442118537182    0.3882238492968047    0.3883498364837727    
  0.3628877371995065    0.3813361365026536    0.40345933511188753    0.3763441780619795    0.3081744499619738    
  0.24225092084300917    0.20066825788959997    0.1869445304566392    0.20066818273433457    0.24225093238370043    
  0.30817446971947426    0.37634421680012503    0.40345926141709726    0.38133619590926415    0.3628877371995065    
  0.27400877222048503    0.31150420831775977    0.3813362272518884    0.3882238942284317    0.3194284534010617    
  0.24145159790506035    0.19194950330441427    0.17588165752373383    0.19194950220483042    0.24145162851814198    
  0.3194284506387724    0.3882238826879242    0.3813361945266685    0.31150424564471335    0.27400877222048503    
  0.2309321920142781    0.2740087267925148    0.36288768342326155    0.3883498608845107    0.3227655935425743    
  0.24111197452199656    0.1888166518515617    0.17190575501519356    0.18881663955169883    0.2411119525616848    
  0.3227656001088815    0.38834982142318886    0.3628877287922994    0.27400879665623723    0.2309321920142781    
  0.36833535362233694    0.38026776724072525    0.38834983141169876    0.35258340445912845    0.28518684134730343    
  0.22323262476419087    0.184318447741459    0.1713712163723135    0.18431842858416    0.22323261010216092    
  0.28518682411726654    0.35258341196773124    0.3883498360326116    0.3802678249144076    0.36833535362233694    
  0.3802678054876239    0.3879366583732145    0.3882238572443959    0.3501782143609797    0.28630151471576193    
  0.22840536562668234    0.19187879416352252    0.1796579987105604    0.19187873695543856    0.22840537880037617    
  0.286301562003074    0.35017821156058987    0.3882238768882042    0.3879366558498471    0.3802678054876239    
  0.3883498569659838    0.3882238213510083    0.37634420111179523    0.3394589844486269    0.2883088315994134    
  0.24290195791305014    0.2136047260154648    0.20358948476678507    0.21360467837796515    0.24290199443811003    
  0.2883088540781844    0.33945900691022995    0.3763442622019239    0.38822388396418667    0.3883498569659838    
  0.3525833849687639    0.3501781856378325    0.33945906066615866    0.3172224531524987    0.28930828827506117    
  0.2642994487199985    0.2471149377362822    0.24090519914653682    0.24711486868359364    0.264299485462817    
  0.28930824802016697    0.3172224814509431    0.3394589767586382    0.35017825002677716    0.3525833849687639    
  0.28518684384712184    0.28630152113959567    0.2883088846966574    0.28930825644381397    0.28930820987644706    
  0.28830885672104495    0.28630156047948613    0.28518687646688234    0.2863014983546036    0.28830892374740597    
  0.2893082436434774    0.2893082819062612    0.28830885196471573    0.2863015491766798    0.28518684384712184    
  0.22323267097466623    0.22840533234179242    0.24290200428639735    0.2642994178443521    0.2883089024013454    
  0.3081744102049721    0.31942853866211757    0.3227655843326835    0.31942846837138456    0.30817443782859244    
  0.288308895588456    0.2642994294263796    0.2429019838201076    0.22840535586428282    0.22323267097466623    
  0.18431842087987432    0.19187880204754662    0.21360469708155883    0.24711489073530232    0.2863014855998264    
  0.31942850686654783    0.33802457777624134    0.3433628263066778    0.3380245412738449    0.3194285214436758    
  0.2863015101268672    0.24711489144799145    0.2136047272984532    0.1918787912140342    0.18431842087987432    
  0.17137120063316738    0.1796579741664635    0.2035895094734535    0.24090516268856602    0.2851869011786045    
  0.32276555223050724    0.3433627634431493    0.349026500317347    0.3433627398485004    0.32276555201402474    
  0.285186871624172    0.24090518876806458    0.20358948751228312    0.1796580107708766    0.17137120063316738    
  0.18431844234865707    0.19187875851842534    0.21360470497900183    0.24711489471242773    0.2863014701965279    
  0.3194285382580091    0.33802457719285933    0.3433627833684717    0.33802451893098223    0.31942851170287606    
  0.28630151873055987    0.24711486411743755    0.2136047016259055    0.19187878876566064    0.18431844234865707    
  0.22323263231978968    0.22840535373131324    0.24290201428183453    0.26429940170591104    0.28830888987963094    
  0.3081743868743646    0.31942852855404974    0.3227655482862812    0.3194284760650272    0.30817446665544385    
  0.28830889618338534    0.2642994720990046    0.2429019788053432    0.2284054033100676    0.22323263231978968    
  0.2851868434429779    0.28630154079918774    0.28830894436737337    0.28930823078480755    0.2893082183173082    
  0.2883088954217468    0.2863015006344206    0.28518686918005337    0.28630149319581766    0.28830886775031955    
  0.2893082198958718    0.28930822423592667    0.28830886268628986    0.28630151539474635    0.2851868434429779    
  0.35258339225677016    0.35017820208385836    0.33945907650334156    0.317222491949863    0.28930828050818885    
  0.26429945739826116    0.24711492713025993    0.24090522382722238    0.24711489312871923    0.26429948561413036    
  0.2893082716069548    0.31722251398670925    0.33945897922070756    0.35017824042055506    0.35258339225677016    
  0.3883498687886306    0.38822382024145746    0.37634423696560804    0.3394589664648641    0.28830882603967545    
  0.24290196368067865    0.213604762252029    0.20358949617708202    0.21360467137896766    0.24290199514303915    
  0.28830888674460337    0.33945899374269667    0.3763442136955613    0.3882239048183201    0.3883498687886306    
  0.3802677826419159    0.38793663638047043    0.3882238798571242    0.3501782240694255    0.28630148778010095    
  0.22840537940526875    0.19187876747748964    0.17965802014096402    0.19187876985823493    0.2284053580193938    
  0.2863015309370006    0.35017823496680534    0.38822384094199425    0.38793669631640276    0.3802677826419159    
  0.36833535362233694    0.38026776724072525    0.38834983141169876    0.35258340445912845    0.28518684134730343    
  0.22323262476419087    0.184318447741459    0.1713712163723135    0.18431842858416    0.22323261010216092    
  0.28518682411726654    0.35258341196773124    0.3883498360326116    0.3802678249144076    0.36833535362233694    
  0.3490265170936349    0.34336268866240754    0.3227655982357232    0.28518683043841325    0.24090521597905154    
  0.20358949209599647    0.17965801616586255    0.17137117983238212    0.17965801568442616    0.20358947157686047    
  0.24090523872883365    0.28518684206125094    0.3227655720763742    0.3433627683144047    0.3490265170936349    
  0.3433627491462563    0.3380246216103347    0.31942847840085764    0.2863015424833824    0.24711483685505317    
  0.21360473560345264    0.19187876265408269    0.18431848550306815    0.19187871518872526    0.2136047414772411    
  0.24711486940489819    0.2863015100703576    0.3194284903501216    0.3380245705448207    0.3433627491462563    
  0.322765593077258    0.3194284427108086    0.3081744578854056    0.28830884309646715    0.26429945568696406    
  0.2429019308631711    0.22840542638204542    0.2232325763417531    0.22840538490205745    0.24290196367579195    
  0.26429949460467206    0.28830886597797944    0.30817448722787444    0.3194284818207675    0.322765593077258    
  0.2851868517704706    0.28630151200732856    0.2883088914779313    0.28930823805639044    0.2893082379917811    
  0.28830887893887314    0.28630155580071825    0.28518687496394873    0.28630149162454593    0.28830892297097943    
  0.2893082168989123    0.28930825929009835    0.28830882965224097    0.2863015558043078    0.2851868517704706    
  0.24090522788029334    0.24711482657017952    0.2642995179624466    0.28930820454715755    0.31722251990909395    
  0.3394589341658431    0.3501783266011014    0.35258335930377965    0.3501782613787161    0.3394589498918324    
  0.31722255585757636    0.28930823837051184    0.2642995007680345    0.24711486780328507    0.24090522788029334    
  0.2035894868175853    0.21360471651921464    0.24290194617807506    0.2883088603290352    0.33945896661461855    
  0.37634422932097106    0.38822386525363034    0.38834990504386874    0.3882237714953771    0.3763443044184039    
  0.3394589160303055    0.2883088708253807    0.24290194450026537    0.2136047283814358    0.2035894868175853    
  0.17965800308647112    0.1918787666534541    0.2284054047416305    0.2863015013167328    0.35017825227601423    
  0.38822384453522973    0.38793672002162627    0.3802678098458134    0.3879367070903304    0.38822381431068026    
  0.3501782767841939    0.2863015035361469    0.22840543225823629    0.19187874976296562    0.17965800308647112    
  0.17137116789858786    0.18431847484986025    0.22323258641385715    0.285186860825723    0.35258338884002    
  0.38834987636728285    0.38026774230448124    0.3683354257883708    0.3802677097920854    0.3883498797721577    
  0.3525833474198115    0.2851868819540045    0.2232325709029447    0.18431850305701128    0.17137116789858786    
  0.17965803452705895    0.19187872949916673    0.22840540982111257    0.2863014844823185    0.3501782319352281    
  0.38822384796735104    0.38793671220820675    0.3802677796221692    0.38793667034169244    0.388223808989805    
  0.3501782879541776    0.2863014908496898    0.22840540298898795    0.1918787556223443    0.17965803452705895    
  0.20358948021271683    0.21360471805530618    0.2429019768384189    0.28830887890864193    0.3394589416229701    
  0.37634422443627935    0.3882238671657775    0.3883498730330844    0.38822378007955544    0.3763442988496737    
  0.3394589701723831    0.2883089048448703    0.24290194138892043    0.21360477987446366    0.20358948021271683    
  0.24090521919097596    0.2471148411592408    0.2642995741898473    0.28930819947471764    0.31722251432732335    
  0.3394589603963778    0.3501782604964461    0.3525833418988429    0.35017825232938676    0.33945892989773063    
  0.31722253208443063    0.28930818054251173    0.2642994826929731    0.24711485105342476    0.24090521919097596    
  0.2851868400577123    0.28630150987855896    0.2883089234392881    0.2893082548809165    0.28930824865848664    
  0.28830887865953486    0.2863015228451211    0.2851869254231809    0.2863014871818159    0.28830892656523655    
  0.28930821171509763    0.2893082654000294    0.28830881990263363    0.28630155142994784    0.2851868400577123    
  0.32276561396787834    0.31942844615119065    0.30817447407926296    0.2883088416530786    0.26429946772397617    
  0.24290193406115207    0.22840545753841612    0.223232587735185    0.22840537733024494    0.24290194338604715    
  0.264299518994569    0.2883088534006758    0.308174434200248    0.3194285113985803    0.32276561396787834    
  0.3433627262323832    0.338024575291925    0.31942850572373005    0.2863015314844856    0.24711482623887432    
  0.2136047263689814    0.19187873940822786    0.18431851256196555    0.19187874356709925    0.21360473247799802    
  0.24711483983040053    0.286301552556078    0.3194284755209696    0.33802462708505143    0.3433627262323832    
  0.3490265170936349    0.34336268866240754    0.3227655982357232    0.28518683043841325    0.24090521597905154    
  0.20358949209599647    0.17965801616586255    0.17137117983238212    0.17965801568442616    0.20358947157686047    
  0.24090523872883365    0.28518684206125094    0.3227655720763742    0.3433627683144047    0.3490265170936349    
  0.2576564581419527    0.2532834753687716    0.24111194245510598    0.22323261943998304    0.20358946229375754    
  0.1869445538999452    0.17588159037211099    0.17190579646186807    0.17588159142587392    0.18694457104251355    
  0.20358946184667281    0.22323261821665477    0.24111196209495744    0.25328353147733146    0.2576564581419527    
  0.2532835224829838    0.2501685634844542    0.24145167676325457    0.22840535575997645    0.2136047166025677    
  0.20066818161804378    0.19194954450630164    0.18881661363118826    0.1919494874504423    0.20066816372426682    
  0.2136047398657352    0.22840536382614066    0.24145163878784887    0.2501685789134086    0.2532835224829838    
  0.24111197010966842    0.24145162587617422    0.2422509510183572    0.24290200244761728    0.24290193289124745    
  0.2422509901743164    0.24145161004959692    0.24111195902772586    0.24145152404819012    0.2422509797385455    
  0.2429019485155992    0.24290201229435515    0.24225093817733953    0.24145165318094503    0.24111197010966842    
  0.2232326442019982    0.22840534730691678    0.24290206897051386    0.2642994322840778    0.28830888963878337    
  0.30817441077932006    0.3194285318084407    0.3227655626490258    0.3194285029632975    0.3081743985957202    
  0.2883089316172277    0.2642994470723267    0.24290199836214021    0.22840538092388052    0.2232326442019982    
  0.20358945323683242    0.21360472042008113    0.24290197589304607    0.2883089175425735    0.3394589464911516    
  0.376344226283991    0.3882238454105683    0.3883498631174516    0.3882238153264075    0.37634431013238423    
  0.339459006773785    0.2883088991699182    0.2429019362107074    0.21360477549535567    0.20358945323683242    
  0.18694460008122024    0.20066816126326878    0.24225098165706047    0.3081744230904044    0.376344257940054    
  0.4034591986985161    0.3813362665569143    0.3628877269286938    0.38133618276216547    0.4034592537161943    
  0.37634428034859535    0.3081743886821847    0.24225097249942415    0.2006681770411598    0.18694460008122024    
  0.17588161181716652    0.19194954472916573    0.24145159273130687    0.31942852755291323    0.3882237912574546    
  0.38133622938854383    0.31150420486544045    0.2740088625571959    0.3115041680716582    0.3813362445730836    
  0.38822379455456857    0.319428510047552    0.2414516122120894    0.19194953650856644    0.17588161181716652    
  0.1719057654020726    0.1888165959814466    0.2411119847139507    0.3227655258893301    0.38834990799261254    
  0.36288766013863905    0.27400879437340153    0.23093217122689036    0.27400878174142684    0.3628876700212961    
  0.38834989657405544    0.32276553594035917    0.24111198699617392    0.18881663282602204    0.1719057654020726    
  0.17588159091241254    0.19194952355138412    0.24145160048806413    0.31942851859766996    0.3882237698911351    
  0.3813362240086673    0.31150421868329276    0.2740088117276291    0.31150412316305087    0.38133626313729846    
  0.38822383594017107    0.31942853120937503    0.24145157020852703    0.19194953386948704    0.17588159091241254    
  0.1869445793963317    0.20066815954379003    0.24225102242134355    0.3081743724857552    0.3763442567958285    
  0.4034592207535207    0.3813362557531411    0.362887682825988    0.38133615540108556    0.4034592846493826    