#     DFTpy    
  CRYSTAL 
    
  PRIMVEC    
  1.4548530800024064    -2.5198794521122365    0.0    
  1.4548530800024064    2.5198794521122365    0.0    
  0.0    0.0    2.7385038399310337    
  PRIMCOORD    
  1    1    
  Si    0.0    0.0    0.0    
  BEGIN_BLOCK_DATAGRID_3D    
  3d_datagrid_density    
  BEGIN_DATAGRID_3D#0    
  13    13    13    
  0.0    0.0    0.0    
  1.4548530800024064    -2.5198794521122365    0.0    
  1.4548530800024064    2.5198794521122365    0.0    
  0.0    0.0    2.7385038399310337    
  0.060441133186869236    0.11092971916618442    0.2763427345531024    0.38687580400223825    0.3212980787218547    
  0.23586467048939166    0.20541560480234536    0.23586467832910343    0.3212980797958306    0.38687581354607675    
  0.2763427263603657    0.11092971933123003    0.060441133186869236    0.1109297138653363    0.1108324956249352    
  0.22506885992250264    0.369984456434392    0.3574379538869064    0.2631175822153267    0.2058816224852853    
  0.20584842506575796    0.26315721249894125    0.35740732756432386    0.3699124729296653    0.22509051431611374    
  0.1109297138653363    0.27634271480210654    0.2250688594469394    0.2765574350174859    0.3698916323933153    
  0.3671434467252981    0.2788976197892968    0.2064859950159172    0.18205863518698961    0.20648667405747237    
  0.27887905658287865    0.36725321951822554    0.3699124621473475    0.27634271480210654    0.386875766244607    
  0.36998443643295564    0.3698915817486253    0.3867442429661492    0.3573873646756359    0.27899466956120617    
  0.20664094090676036    0.16932664893317703    0.1693026349849944    0.20668025349930158    0.27887907026992625    
  0.3574073465812068    0.386875766244607    0.32129807247531345    0.3574379715864134    0.36714344790517034    
  0.35738738865413155    0.3214569303728817    0.26314374194249823    0.20641407744382476    0.16931317361060988    
  0.15689288126260817    0.16930263989279004    0.20648667419176459    0.26315722294143934    0.32129807247531345    
  0.23586467737819095    0.2631175778631572    0.278897585395218    0.27899469338382626    0.26314374561124865    
  0.23572684679682282    0.20586014320115859    0.18213008138164208    0.1693131817429135    0.16932665313474615    
  0.1820586473853621    0.20584843903248012    0.23586467737819095    0.20541560498193376    0.2058816231954336    
  0.20648600394004624    0.20664095159497106    0.20641408824397117    0.20586013110093446    0.2055492530308762    
  0.20586013763178201    0.20641407758670802    0.20664095123270207    0.20648599916004087    0.20588161814578826    
  0.20541560498193376    0.23586467969943847    0.20584843848135073    0.1820586467565244    0.16932665247281217    
  0.16931315938158845    0.18213008021777696    0.20586014499971883    0.2357268481434511    0.26314375646535504    
  0.27899467840845416    0.27889761505222144    0.2631175964880475    0.23586467969943847    0.32129805791935373    
  0.2631572119572959    0.20648666167779817    0.16930266749909045    0.15689288251500022    0.16931317677387833    
  0.20641406857439792    0.2631437410493002    0.32145694365313715    0.35738737261273595    0.3671434623390662    
  0.3574379706689891    0.32129805791935373    0.3868757963021178    0.3574073213661133    0.27887904374883327    
  0.20668026622470806    0.16930263798381856    0.16932666217638326    0.2066409410120882    0.2789946767654943    
  0.35738736872233146    0.3867442170868125    0.36989162004611703    0.3699844480813496    0.3868757963021178    
  0.2763427463970094    0.3699124708380721    0.3672532285188269    0.27887906016154235    0.20648668037037388    
  0.18205864805945465    0.20648599741803642    0.27889760824122695    0.36714345319809916    0.36989162251721974    
  0.27655743522093074    0.22506886437377072    0.2763427463970094    0.1109297289622982    0.22509050286709237    
  0.3699124553805413    0.3574073222750036    0.26315720956791877    0.20584842183996083    0.20588162128619858    
  0.26311757436761585    0.3574379882084245    0.36998443779643875    0.22506886445285038    0.11083248389339491    
  0.1109297289622982    0.060441133186869236    0.11092971916618442    0.2763427345531024    0.38687580400223825    
  0.3212980787218547    0.23586467048939166    0.20541560480234536    0.23586467832910343    0.3212980797958306    
  0.38687581354607675    0.2763427263603657    0.11092971933123003    0.060441133186869236    0.10545146553936872    
  0.16255666065332813    0.3138429195426475    0.3827465454079665    0.3046939045879764    0.2225682537376469    
  0.19412889926576588    0.22256824810906845    0.30469392234997345    0.3827465410983151    0.3138429199668812    
  0.16255666068960703    0.10545146553936872    0.16255664551284413    0.162431696656701    0.27122651865750846    
  0.3791918689257353    0.34238321167473756    0.2485123382888414    0.1946391384257882    0.19460754515041107    
  0.24854787355464875    0.34235149352342037    0.37915006236851234    0.27122401522415124    0.16255664551284413    
  0.31384288537065486    0.2712265118444155    0.3140484388419115    0.37911655948408024    0.3538052798862474    
  0.2639914568198232    0.19538005729975413    0.17257012638145763    0.19538110155378416    0.2639815191667618    
  0.3538777490812962    0.3791500507440432    0.31384288537065486    0.3827465245899716    0.3791918558013517    
  0.3791165299215149    0.3826261550028886    0.3423464251952891    0.26406141913959474    0.19563784765734368    
  0.16068412731651682    0.16066796374374745    0.19566259826511684    0.2639815148723869    0.3423514797046257    
  0.3827465245899716    0.304693921445934    0.34238322918315955    0.3538052783235432    0.3423464414755935    
  0.3048274044721835    0.24853212250348683    0.1953292584128738    0.16067441501108498    0.14903229414117058    
  0.1606679612493499    0.19538109133524073    0.2485478875839299    0.304693921445934    0.2225682599909021    
  0.2485123176389173    0.2639914374881628    0.26406141639878034    0.24853212969192007    0.22245473043971692    
  0.1946203609209193    0.17262136826199184    0.1606744322278233    0.16068412199172497    0.1725701226396824    
  0.1946075454968605    0.2225682599909021    0.19412889928851793    0.19463914483974415    0.19538007532369686    
  0.19563787337290775    0.1953292590001632    0.19462038213716737    0.1942381549662355    0.1946203698236811    
  0.1953292624386948    0.19563786825100016    0.1953800703395412    0.19463914064137    0.19412889928851793    
  0.22256824278547171    0.19460754853580456    0.17257011181919593    0.16068412634718524    0.16067442167250862    
  0.1726213674984013    0.19462037166230062    0.2224547225469782    0.24853213286723425    0.26406140443526677    
  0.2639914434946997    0.2485123301975685    0.22256824278547171    0.3046939084041154    0.24854787878364054    
  0.1953810990760266    0.16066797753443388    0.1490322932833562    0.16067442933593518    0.1953292537535818    
  0.24853212245152856    0.3048274023985519    0.34234644946961124    0.35380528854770615    0.3423832240838161    
  0.3046939084041154    0.3827465284971909    0.3423514751665596    0.26398147572542807    0.19566262486016614    
  0.1606679670008096    0.16068412213619485    0.19563786213800127    0.26406139720389693    0.3423464422710936    
  0.38262612279437885    0.3791165471184164    0.37919189209648857    0.3827465284971909    0.31384291308622425    
  0.3791500721776702    0.35387772344856466    0.26398150292222167    0.19538110934736871    0.17257012556854398    
  0.19538006925157067    0.26399142451854096    0.3538052921674788    0.37911652540760854    0.31404844633234813    
  0.2712265173135234    0.31384291308622425    0.1625566550487751    0.2712240081354855    0.3791500374330148    
  0.34235146991029675    0.24854787449061383    0.19460754393198132    0.19463914177283614    0.24851233705402143    
  0.342383241147288    0.3791918769469467    0.271226505402867    0.16243168934968627    0.1625566550487751    
  0.10545146553936872    0.16255666065332813    0.3138429195426475    0.3827465454079665    0.3046939045879764    
  0.2225682537376469    0.19412889926576588    0.22256824810906845    0.30469392234997345    0.3827465410983151    
  0.3138429199668812    0.16255666068960703    0.10545146553936872    0.2618479380169769    0.307273405123292    
  0.3783958316128424    0.3540186344723121    0.2602332029625328    0.18909622764041253    0.16578647784892256    
  0.18909621919612746    0.26023321795675913    0.3540186379379158    0.3783958428770393    0.3072733997720745    
  0.2618479380169769    0.3072733798783253    0.3071704147236606    0.36488984277569897    0.37550591760821334    
  0.2974983828833017    0.21106129830566672    0.16624667817453573    0.16623324114860547    0.211076488798398    
  0.29748157365853545    0.37549953792663604    0.36486914082228594    0.3072733798783253    0.37839581137434547    
  0.364889847098523    0.37850841212927855    0.37547053987997525    0.31070719813717307    0.22475188681649774    
  0.1671368873858263    0.14845933858154658    0.16713543154081179    0.22475407828457802    0.3107234078413447    
  0.375499535910623    0.37839581137434547    0.3540185952008563    0.37550589877931945    0.3754704938248041    
  0.35396378249644    0.29748700129289213    0.2247771890659215    0.16757449023843443    0.1388714869603277    
  0.13886991010825053    0.16757819396008952    0.22475409172562189    0.2974815946985908    0.3540185952008563    
  0.26023321242023517    0.2974983899869725    0.31070719133717795    0.29748701833097335    0.26028781956647523    
  0.21106706014374405    0.16711810544140868    0.138871812676336    0.12932759840551108    0.13886991761571466    
  0.16713543667846747    0.21107647899046705    0.26023321242023517    0.18909623755440735    0.21106129703131982    
  0.22475185873383732    0.22477720279781524    0.21106707131640048    0.18905018338395171    0.16624247121894367    
  0.1484731010830424    0.1388718305007203    0.13887148281042666    0.14845933427524266    0.16623323931915177    
  0.18909623755440735    0.16578646220980223    0.16624667522332312    0.16713690101404627    0.16757450412543495    
  0.16711810480057837    0.16624248149648757    0.16582529541921676    0.16624248130009467    0.1671181096485366    
  0.16757449400618513    0.16713689885140928    0.16624667047456226    0.16578646220980223    0.1890962181036833    
  0.1662332437166989    0.1484593309626751    0.1388714818295933    0.13887182090600383    0.14847309199051884    
  0.1662424755273086    0.18905018022862752    0.21106706004713804    0.22477718717809428    0.2247518720055379    
  0.21106130987252386    0.1890962181036833    0.26023319559162056    0.21107650339134518    0.16713542910095058    
  0.13886993796091446    0.12932761561326078    0.1388718247987209    0.16711809679051634    0.21106705804201575    
  0.2602878257451562    0.2974870157935279    0.3107072001519062    0.2974983941043177    0.26023319559162056    
  0.35401861289460657    0.29748156785705365    0.22475405667867393    0.167578209965741    0.138869919065297    
  0.13887147793676982    0.16757449615969067    0.22477718864329016    0.2974870148808083    0.3539637475037462    
  0.37547052372957573    0.3755059314892989    0.35401861289460657    0.37839583957470896    0.3754995450420977    
  0.3107234035934031    0.2247540821096385    0.1671354324553523    0.14845934208088954    0.1671368936208951    
  0.22475186286645737    0.31070717856921887    0.37547051419262684    0.3785084350300441    0.36488985954143804    
  0.37839583957470896    0.3072734085694254    0.3648691315902791    0.37549950873941024    0.2974815842772817    
  0.2110764730618522    0.1662332384442194    0.1662466687787528    0.21106130192760095    0.29749840755767704    
  0.37550591069095507    0.3648898407380231    0.3071703922295911    0.3072734085694254    0.2618479380169769    
  0.307273405123292    0.3783958316128424    0.3540186344723121    0.2602332029625328    0.18909622764041253    
  0.16578647784892256    0.18909621919612746    0.26023321795675913    0.3540186379379158    0.3783958428770393    
  0.3072733997720745    0.2618479380169769    0.4062268914187427    0.40526449408781484    0.3723630259799132    
  0.2906186780437311    0.20408197201077266    0.14955263426241872    0.132203848832923    0.1495526314761353    
  0.20408198879730435    0.2906186771876797    0.3723630339934539    0.40526451049627543    0.4062268914187427    
  0.40526449369266143    0.4052474371526604    0.3865559016593644    0.32267581119011385    0.23482917630051325    
  0.16609665331985643    0.1325513582360137    0.1325520690170111    0.1660983620592805    0.23482744255157165    
  0.32267545874407133    0.38654963826555294    0.40526449369266143    0.37236300424720065    0.38655587969163474    
  0.37237873127051513    0.32266777147897    0.24652765242254376    0.17658502493467995    0.13342396610825538    
  0.11952764144659224    0.13342102708905595    0.17658629105599624    0.24652645872028786    0.32267543960303047    
  0.37236300424720065    0.29061864189376774    0.3226757944257655    0.32266772396132476    0.2906173573427919    
  0.23482772114990993    0.176588307581704    0.13393945869706889    0.11266783760766713    0.11266859748380677    
  0.1339417733717463    0.17658629032452416    0.23482744491296564    0.29061864189376774    0.20408196873630977    
  0.234829188363472    0.24652765350846495    0.2348277450843351    0.2040859618306096    0.16609686772705246    
  0.13342151417303771    0.11266932051467396    0.10564382471122899    0.1126685941776745    0.13342102512579906    
  0.16609834766374573    0.20408196873630977    0.1495526346915298    0.16609664572874172    0.17658499394900148    
  0.1765883159060391    0.16609687290294867    0.14954880334381443    0.1325524228952917    0.11952702603230458    
  0.11266932670451006    0.11266783732954995    0.11952763483902214    0.13255207782297512    0.1495526346915298    
  0.13220384277916242    0.13255135685343822    0.13342398385611431    0.13393947428502145    0.13342153749433658    
  0.1325524229932483    0.13220660890499966    0.13255241369133647    0.13342152285635686    0.13393946993971023    
  0.13342397103090456    0.13255136021947767    0.13220384277916242    0.14955263304126137    0.13255207598996624    
  0.11952763940708781    0.11266783889683966    0.11266932585028056    0.11952703482581595    0.13255242443150822    
  0.14954879591621406    0.16609687510843807    0.17658831049448095    0.17658501250933975    0.16609665167699478    
  0.14955263304126137    0.20408196595592154    0.16609835788033178    0.13342102443235782    0.11266861502609422    
  0.10564382772431584    0.11266931977628458    0.1334215113036172    0.16609686640716437    0.20408596748639288    
  0.2348277429110572    0.24652765513188604    0.23482919484624196    0.20408196595592154    0.29061866404060566    
  0.23482743595581182    0.17658627467025964    0.13394178058440184    0.112668600589458    0.11266784677903358    
  0.13393946155724004    0.17658829924561892    0.23482772237890118    0.2906173419496611    0.32266776370452954    
  0.32267581903723097    0.29061866404060566    0.372363044597494    0.3226754537358994    0.24652645177123514    
  0.17658629456144906    0.13342103222314233    0.11952764388345838    0.13342397208523551    0.1765850015264335    
  0.24652764948701741    0.32266775288733224    0.37237873372756836    0.3865559034458275    0.372363044597494    
  0.40526452562156573    0.38654962831986045    0.32267543150955835    0.234827423325754    0.16609835397996142    
  0.13255206952790485    0.13255134738809915    0.16609664637938065    0.23482920466515422    0.3226758035118633    
  0.38655589977684834    0.4052474246011401    0.40526452562156573    0.4062268914187427    0.40526449408781484    
  0.3723630259799132    0.2906186780437311    0.20408197201077266    0.14955263426241872    0.132203848832923    
  0.1495526314761353    0.20408198879730435    0.2906186771876797    0.3723630339934539    0.40526451049627543    
  0.4062268914187427    0.3854299875264549    0.3625247474594054    0.299466960412647    0.22046383383056983    
  0.15504238673230894    0.11614004080602262    0.10369838647196974    0.11614003507564497    0.15504239753809715    
  0.2204638220332964    0.29946697583415693    0.36252476473677714    0.3854299875264549    0.3625247450757602    
  0.36252974190938103    0.31924226269467015    0.24796448960952988    0.17744480781565733    0.12795115721117456    
  0.10402275306332816    0.10402459966679767    0.12795122025177247    0.17744582339061404    0.24796337189051856    
  0.319243916045914    0.3625247450757602    0.29946693972489213    0.31924225554156244    0.29946418146700016    
  0.24796435028154382    0.18619095065968538    0.13543869448095036    0.1048022671136004    0.09483536467425195    
  0.10480027049767318    0.13543785840875036    0.1861904271495028    0.24796334955452778    0.29946693972489213    
  0.22046379874366964    0.24796447144155864    0.24796431698343296    0.2204670032931519    0.17744411980375951    
  0.13543737980230255    0.10525145519791802    0.09007179128662256    0.09007164307196078    0.10525416984363771    
  0.1354378535756793    0.17744581505224002    0.22046379874366964    0.1550423896011226    0.1774448108118809    
  0.18619094777296902    0.1774441294341193    0.15504104648292946    0.12795256839676591    0.10480275079263021    
  0.09007217304951581    0.08506513951703525    0.09007164159291148    0.10480026414472393    0.12795123149023238    
  0.1550423896011226    0.11614003871250289    0.1279511394820103    0.13543868035363016    0.13543737486575783    
  0.12795257499301135    0.11613932509666419    0.10402300657075593    0.09483390480451934    0.09007218010199206    
  0.09007178940235387    0.09483536754070013    0.10402460144997042    0.11614003871250289    0.10369838988341869    
  0.10402275323249031    0.10480228681415615    0.10525147173118639    0.10480275713288618    0.104023023452234    
  0.10370003342092038    0.10402301502639397    0.10480275561317222    0.10525146651420844    0.10480228055091936    
  0.10402274576957128    0.10369838988341869    0.11614003320052715    0.10402460371567632    0.09483536244476284    
  0.0900717949349317    0.09007217586319136    0.09483390260403159    0.10402301304829854    0.11613931647865154    
  0.12795257268841317    0.1354373649334496    0.13543869058629276    0.12795115250734684    0.11614003320052715    
  0.1550423836056333    0.12795122209525195    0.10480026866097623    0.09007165816062969    0.0850651449300418    
  0.09007218247715469    0.1048027558175497    0.12795256862138824    0.15504104516002204    0.17744413855400723    
  0.1861909597567039    0.1774448243906527    0.1550423836056333    0.2204638124329611    0.17744581254764882    
  0.13543783695146097    0.10525419282806057    0.09007164051440306    0.09007178875349346    0.10525145559264773    
  0.13543736134345694    0.17744412921632124    0.22046697255679684    0.24796435086740495    0.2479645009527758    
  0.2204638124329611    0.2994669535802609    0.24796337909572783    0.18619041312348958    0.1354378519794778    
  0.10480027345331687    0.09483536849146079    0.1048022702918866    0.13543867948445784    0.18619095877208441    
  0.24796433079187588    0.2994641998703699    0.3192422751735134    0.2994669535802609    0.3625247545282867    
  0.3192439082344682    0.2479633449735434    0.17744581498580309    0.12795122136109638    0.10402459607843148    
  0.10402275155386592    0.12795114702015498    0.17744482281961627    0.24796449264178377    0.3192422626894662    
  0.3625297249940367    0.3625247545282867    0.3854299875264549    0.3625247474594054    0.299466960412647    
  0.22046383383056983    0.15504238673230894    0.11614004080602262    0.10369838647196974    0.11614003507564497    
  0.15504239753809715    0.2204638220332964    0.29946697583415693    0.36252476473677714    0.3854299875264549    
  0.31125397641649133    0.2893386144644341    0.2350136633730229    0.17311632524583487    0.1240790595516556    
  0.09514507580344078    0.08579889046520744    0.09514507092502401    0.12407907217660326    0.17311633209890553    
  0.23501368086359478    0.2893386152119037    0.31125397641649133    0.28933858501730947    0.2893384844020861    
  0.25142644858185964    0.1943475158977123    0.1408101069489149    0.10395763096046674    0.08610572666911413    
  0.0861070626061382    0.10395669007070815    0.140810623776252    0.19434758563034674    0.25142600973795776    
  0.28933858501730947    0.23501364455645035    0.25142645142958914    0.23501418876799793    0.1943471657403469    
  0.14744920585324975    0.10946951746181674    0.08668143869913322    0.07926792907565346    0.08668063386409267    
  0.10947052865726399    0.1474480842817154    0.19434757917605006    0.23501364455645035    0.17311629772295697    
  0.19434751134404546    0.19434713706777706    0.1731160805677089    0.1408103276339133    0.10947043126420473    
  0.086947218314173    0.07566723978945167    0.07566818559432847    0.08694669652554361    0.10947052754043542    
  0.14081062252303547    0.17311629772295697    0.12407906411790627    0.14081011363256846    0.14744920042753182    
  0.14081034414209187    0.12407968299088874    0.10395694775307239    0.08668055311163182    0.07566824640252098    
  0.07192578977557187    0.0756681888265234    0.08668062705336241    0.10395668525267578    0.12407906411790627    
  0.09514508072838002    0.10395762529732372    0.10946949780898443    0.10947043581976683    0.10395695675971275    
  0.0951446696537526    0.08610707337600662    0.0792673976799302    0.07566825612739074    0.07566724185528513    
  0.07926792963378966    0.08610705906780328    0.09514508072838002    0.0857988786644757    0.08610572691566981    
  0.0866814463916989    0.08694724139713443    0.08668055931297211    0.08610708825164136    0.08579827521325167    
  0.08610707988694384    0.08668056390041443    0.08694723038626072    0.0866814427350499    0.08610572845826202    
  0.0857988786644757    0.09514507345815931    0.08610706379970895    0.07926792243072979    0.07566723476806501    
  0.07566825595068265    0.0792673960623339    0.08610707547130417    0.09514466072985957    0.10395695240181486    
  0.10947043208189827    0.10946950985541043    0.10395763121436762    0.09514507345815931    0.12407905413864141    
  0.10395669613663917    0.08668062466406103    0.07566820404595938    0.0719257981384334    0.07566826031441261    
  0.0866805508697626    0.10395694777579197    0.1240796873758572    0.1408103413053108    0.14744921312968381    
  0.1408101121322898    0.12407905413864141    0.17311631356691126    0.14081061520161095    0.10947051181032712    
  0.08694670481273958    0.0756681896374472    0.0756672398231293    0.08694722142244671    0.1094704246378417    
  0.14081033782084565    0.1731160681893151    0.19434716297487636    0.19434752182587078    0.17311631356691126    
  0.23501367039688234    0.19434758259885698    0.1474480728170853    0.10947052853983204    0.0866806321085439    
  0.07926792915040906    0.08668144332115538    0.10946949495462215    0.14744919574278834    0.19434715307731718    
  0.23501420159997008    0.2514264640993486    0.23501367039688234    0.2893386043120531    0.2514259991625816    
  0.19434755764128353    0.14081061947386583    0.10395668853232738    0.086107063186326    0.08610572088295032    
  0.10395763223768448    0.1408101251313114    0.1943475144201575    0.2514264592967176    0.2893384859894444    
  0.2893386043120531    0.31125397641649133    0.2893386144644341    0.2350136633730229    0.17311632524583487    
  0.1240790595516556    0.09514507580344078    0.08579889046520744    0.09514507092502401    0.12407907217660326    
  0.17311633209890553    0.23501368086359478    0.2893386152119037    0.31125397641649133    0.280892853661008    
  0.2609560298836515    0.21231349728255863    0.15733380339569863    0.11382436255622928    0.08816800537239519    
  0.07986284660036265    0.08816800772580738    0.11382435874353412    0.15733381001519703    0.21231349669093336    
  0.26095604092154245    0.280892853661008    0.26095602925351885    0.2609627734808419    0.22695954619132444    
  0.17624677722368745    0.1286772329443632    0.09596157858978387    0.08015073531544865    0.08014991995401022    
  0.09596106112562329    0.12867801024845354    0.17624446949096792    0.22696408980569466    0.26095602925351885    
  0.2123134862414605    0.2269595473628113    0.21231073995011238    0.17624862554955564    0.13460081668404103    
  0.10077420447971659    0.0805948076237298    0.07407362056839363    0.08059680115883124    0.10077256654184269    
  0.13460423169744018    0.17624446548820877    0.2123134862414605    0.1573337754823082    0.17624676592575972    
  0.17624859175902516    0.1573324504058417    0.12867755395137168    0.10077470194136187    0.08075400461102393    
  0.07083388017700519    0.07083161727692211    0.08075464177656634    0.100772571430814    0.12867801244682786    
  0.1573337754823082    0.11382435849342148    0.12867724468778166    0.13460081629528944    0.12867756413076262    
  0.11382497618118216    0.09596060182845983    0.08059550014541894    0.07083106870092158    0.06753900879847749    
  0.07083162392013115    0.08059679740307484    0.09596106312799853    0.11382435849342148    0.0881680000704716    
  0.09596157218944217    0.1007741808428992    0.10077471625052595    0.09596060654146836    0.0881695793213377    
  0.08014850021303033    0.07407727427799468    0.07083107347495023    0.07083388169820277    0.074073624977327    
  0.08014992957805714    0.0881680000704716    0.07986284296303811    0.08015073335047025    0.08059481509989268    
  0.08075401606828803    0.08059551331075207    0.08014849536369487    0.07986468637605844    0.08014849612603556    
  0.08059550442666598    0.08075401732425085    0.08059481406262602    0.08015073370561591    0.07986284296303811    
  0.08816800156840657    0.08014992709968849    0.07407362428171328    0.07083388282136535    0.07083106123407645    
  0.07407727510129236    0.08014849862692665    0.08816957804262704    0.09596061660417507    0.10077471051180992    
  0.10077420260297239    0.09596158160829013    0.08816800156840657    0.11382434638934624    0.09596105673287507    
  0.08059679022520784    0.0708316351918227    0.06753900796429102    0.07083106908147371    0.08059549811159514    
  0.09596060263007543    0.11382497793252849    0.12867756015490678    0.1346008232569999    0.12867724442630793    
  0.11382434638934624    0.157333790377844    0.12867799544610217    0.10077255302993918    0.08075464507377136    
  0.0708316205273013    0.07083388678718174    0.08075400270765845    0.10077470328214783    0.1286775522397722    
  0.15733243987086337    0.17624862103760075    0.17624676824580499    0.157333790377844    0.2123135041584205    
  0.17624446410177877    0.13460423493494722    0.10077256738821004    0.0805968042144    0.07407362677571175    
  0.08059480915435685    0.10077419522301287    0.1346008221533517    0.17624862452728057    0.21231073530695735    
  0.22695955938692086    0.2123135041584205    0.2609560445615474    0.22696407145660763    0.17624444902387787    
  0.12867799737781402    0.09596105770386937    0.08014992127033009    0.08015073371972703    0.0959615717402583    
  0.12867725324033646    0.17624677005005202    0.226959554134939    0.2609627709474851    0.2609560445615474    
  0.280892853661008    0.2609560298836515    0.21231349728255863    0.15733380339569863    0.11382436255622928    
  0.08816800537239519    0.07986284660036265    0.08816800772580738    0.11382435874353412    0.15733381001519703    
  0.21231349669093336    0.26095604092154245    0.280892853661008    0.3112539781558086    0.28933860637225367    
  0.23501367289508895    0.17311632433970126    0.12407906435253646    0.09514508441151978    0.08579888238545427    
  0.09514507899287562    0.12407906874027752    0.1731163217446535    0.23501368184199156    0.2893386206953222    
  0.3112539781558086    0.28933858985110966    0.2893384819246559    0.2514264611793169    0.1943475146740845    
  0.14081010178224687    0.10395763499185987    0.08610572579169196    0.08610706338572348    0.10395668945589687    
  0.14081063060173563    0.19434758563871127    0.25142601023819117    0.28933858985110966    0.2350136520694508    
  0.251426455409322    0.23501418929164972    0.1943471586720607    0.14744920399938438    0.10946951401455804    
  0.08668143278410971    0.07926793304296141    0.08668062624522126    0.10947054313695563    0.1474480824221073    
  0.19434757606000808    0.2350136520694508    0.17311630734350575    0.19434750133701845    0.19434714016720786    
  0.17311608782132712    0.14081032545987948    0.10947043544849538    0.08694721528918699    0.0756672457500522    
  0.07566818957175693    0.08694669537649499    0.10947053795021469    0.1408106185292472    0.17311630734350575    
  0.12407906789036709    0.14081011264481208    0.1474492032768947    0.14081033587152839    0.1240796854326701    
  0.10395694511717024    0.08668055232581541    0.07566824707245459    0.07192579225524486    0.07566818937139133    
  0.0866806184463853    0.10395669638543578    0.12407906789036709    0.09514508161054275    0.10395762074186944    
  0.10946950258633353    0.10947043272155718    0.10395695254853114    0.0951446748497256    0.0861070713402297    
  0.07926739826511876    0.07566825786323822    0.07566724607406342    0.07926792963484415    0.08610706284453871    
  0.09514508161054275    0.08579888088732293    0.08610572713065534    0.08668144239708143    0.08694723564635783    