#     DFTpy    
  CRYSTAL 
    
  PRIMVEC    
  1.4006349527973478    -2.4259709011018424    0.0    
  1.4006349527973478    2.4259709011018424    0.0    
  0.0    0.0    2.636447796206896    
  PRIMCOORD    
  1    1    
  Si    0.0    0.0    0.0    
  BEGIN_BLOCK_DATAGRID_3D    
  3d_datagrid_density    
  BEGIN_DATAGRID_3D#0    
  13    13    13    
  0.0    0.0    0.0    
  1.4006349527973478    -2.4259709011018424    0.0    
  1.4006349527973478    2.4259709011018424    0.0    
  0.0    0.0    2.636447796206896    
  0.05743360368059604    0.10201420779687366    0.25473065111568427    0.3839134162000512    0.34963255061493753    
  0.27457446229403504    0.24534643508575493    0.2745744695035991    0.3496325554491109    0.383913384229541    
  0.2547306790190371    0.1020142087229876    0.05743360368059604    0.10201420268801133    0.10198725164415046    
  0.2056525728495358    0.35604588492743555    0.3757370263076607    0.29954421569488376    0.24554588536106833    
  0.24553199694109912    0.2995624124418456    0.3757300095592983    0.35598349351904063    0.20569079629772657    
  0.10201420268801133    0.2547306611206222    0.20565254800352686    0.25482027958057724    0.35599572563648013    
  0.38105516785654936    0.31287843800261084    0.2454279956954788    0.22131621891292644    0.24542857269196403    
  0.3128597043798821    0.38113840700898177    0.35598353916274783    0.2547306611206222    0.3839134470010573    
  0.35604596229913527    0.3559957841863944    0.38386380642717866    0.3757023950726952    0.3129437380078646    
  0.24509119068740132    0.20795853341994766    0.20794007608746645    0.2451238028215809    0.3128597270257191    
  0.37573008335767555    0.3839134470010573    0.34963252666823535    0.3757370236029835    0.38105522009041914    
  0.37570237608033413    0.34971095679815195    0.2995630260961944    0.24537586089924412    0.20794985936413232    
  0.19524434755031517    0.2079400476499774    0.24542857308644553    0.29956243782695835    0.34963252666823535    
  0.2745744144795601    0.29954423018001247    0.3128784280028135    0.31294372002978854    0.2995630272762047    
  0.2744988981609632    0.2455357406607438    0.2213659943010999    0.2079498120682389    0.2079585016467982    
  0.22131623085338437    0.24553200776514    0.2745744144795601    0.2453464078622944    0.24554592047544652    
  0.24542799791751657    0.24509115769267806    0.2453758862904076    0.24553570453970422    0.2454191923971243    
  0.2455357149876067    0.24537588102391603    0.24509118030119487    0.24542801346219678    0.24554590564699455    
  0.2453464078622944    0.2745744135687255    0.24553195363996205    0.22131628357761976    0.20795849049745482    
  0.207949794594258    0.22136597591997828    0.24553572532134008    0.2744989051341694    0.29956301523282336    
  0.31294373929138436    0.31287838311993244    0.2995442619141477    0.2745744135687255    0.3496325203801304    
  0.2995624194289721    0.2454285846417584    0.20794003733524272    0.19524435667659498    0.2079498275144833    
  0.24537585657185124    0.2995629990483349    0.3497109411027374    0.37570242521227465    0.3810551246614492    
  0.3757370799874414    0.3496325203801304    0.38391343757929147    0.37573010389073297    0.3128597386734897    
  0.24512378491828896    0.2079400619902474    0.20795851769616017    0.24509120353452338    0.31294380010085904    
  0.37570244832720284    0.38386385464511974    0.35599577200994886    0.3560459263358147    0.38391343757929147    
  0.254730630744979    0.35598345487620464    0.3811384923887702    0.3128597111528246    0.24542854312207796    
  0.22131622997854875    0.24542798934462584    0.3128784438128953    0.381055135195234    0.355995778911674    
  0.25482025721749685    0.2056525703576075    0.254730630744979    0.1020141933762766    0.20569079746100166    
  0.3559835455821285    0.37573006189788494    0.2995624127949335    0.24553198158829811    0.24554590933034579    
  0.2995442520081505    0.3757370335181491    0.35604590922473517    0.2056525607686655    0.10198728044731371    
  0.1020141933762766    0.05743360368059604    0.10201420779687366    0.25473065111568427    0.3839134162000512    
  0.34963255061493753    0.27457446229403504    0.24534643508575493    0.2745744695035991    0.3496325554491109    
  0.383913384229541    0.2547306790190371    0.1020142087229876    0.05743360368059604    0.09779314439144862    
  0.14875296023033252    0.2929664636047568    0.3846602948807302    0.3337477060977335    0.2598559508017936    
  0.23223704798039083    0.2598559888226953    0.3337476969335517    0.38466026475839205    0.29296648646680756    
  0.1487529353327639    0.09779314439144862    0.1487529105472035    0.14869853442426048    0.25023755410175774    
  0.3698905599818699    0.3629749810674786    0.28391137503524305    0.23237991993854154    0.23236369765405385    
  0.2839319821262555    0.36296148207896556    0.36985133379193225    0.2502537233582303    0.1487529105472035    
  0.2929664616504764    0.25023754543552595    0.2930696547498326    0.3698447271132372    0.3704959091795239    
  0.29727460604073636    0.23233229336398084    0.2095605844850943    0.23233184701437373    0.29726210723236257    
  0.37055396063748247    0.3698514184837074    0.2929664616504764    0.384660258360827    0.3698906104060606    
  0.36984476301646246    0.38460263723035876    0.36294958154830387    0.2973236433522579    0.23214942476458464    
  0.19705498084453152    0.1970399793846909    0.23217479478261052    0.2972621188223433    0.36296157645515953    
  0.384660258360827    0.3337476932671508    0.3629749865859865    0.370495920807385    0.36294950709130813    
  0.33382329635576863    0.2839258032264646    0.2322947731641877    0.19704653675959607    0.18511532800561908    
  0.19703993749990392    0.23233183316759196    0.28393202782878374    0.3337476932671508    0.25985594857599137    
  0.2839113912184108    0.2972746117435498    0.29732362309270316    0.28392579779057703    0.25978720668993055    
  0.23236796346973848    0.20959914501393662    0.19704652695088856    0.1970549482005042    0.20956057634823627    
  0.23236368067493182    0.25985594857599137    0.23223702129143506    0.23237996261458935    0.23233227322572014    
  0.23214940742563644    0.23229476440068983    0.2323679651634985    0.23230682329393698    0.23236795288468545    
  0.23229476266886104    0.23214940872874285    0.23233227013098046    0.23237996081248702    0.23223702129143506    
  0.259855925725318    0.2323636649386334    0.20956063993804802    0.1970549382421782    0.19704650988493455    
  0.2095991500795842    0.23236796053130562    0.25978722634554147    0.283925768243122    0.2973236404551583    
  0.29727457664574286    0.28391144667582086    0.259855925725318    0.33374774829192444    0.2839319576069324    
  0.2323318713148238    0.19703994119558213    0.18511534186152498    0.1970465348681891    0.23229475849683265    
  0.28392577392494933    0.3338232666222443    0.3629496226081365    0.37049580708405355    0.3629750631145101    
  0.33374774829192444    0.384660259239009    0.36296159186650473    0.2972621355026623    0.23217477378459828    
  0.19703996014496986    0.19705496987983603    0.23214945582702326    0.29732368018436994    0.3629496203086099    
  0.38460270422235604    0.3698446993382705    0.36989054198213456    0.384660259239009    0.292966403050335    
  0.36985134861810137    0.37055409161914055    0.2972620966395332    0.23233183709911506    0.2095606015365289    
  0.23233229143556325    0.29727464295295913    0.3704958295690142    0.3698447488407947    0.2930696167878222    
  0.25023753929056364    0.292966403050335    0.1487529069016156    0.2502536882168429    0.36985140838378483    
  0.36296153875643866    0.283931997752392    0.2323636639129636    0.23237994352067617    0.2839114097514713    
  0.36297498238219666    0.3698905657339417    0.2502375021236924    0.14869857051167104    0.1487529069016156    
  0.09779314439144862    0.14875296023033252    0.2929664636047568    0.3846602948807302    0.3337477060977335    
  0.2598559508017936    0.23223704798039083    0.2598559888226953    0.3337476969335517    0.38466026475839205    
  0.29296648646680756    0.1487529353327639    0.09779314439144862    0.24374003217537268    0.28823191242767215    
  0.3689066178602073    0.3687692952741671    0.2903104026245188    0.22220465617504925    0.19871379391822871    
  0.2222046912117715    0.2903103831540817    0.368769276610109    0.36890666048888976    0.28823193072674863    
  0.24374003217537268    0.2882318786343809    0.28816815577056787    0.3507345647959543    0.38132634310005736    
  0.3232956900905989    0.2435607265802546    0.1988565165424603    0.19884750900466994    0.243572120034267    
  0.323284773083565    0.3813199931875585    0.3507257287912942    0.2882318786343809    0.36890661864415203    
  0.3507345740852939    0.3689781179273112    0.38130560692111015    0.334221302292188    0.25626937911546727    
  0.19912579273966305    0.17982245152188778    0.1991247589949652    0.256267122730746    0.3342375582170562    
  0.38132006701740206    0.36890661864415203    0.36876930124755636    0.38132642463445404    0.38130564005271084    
  0.3687289829008749    0.32328760693593805    0.2562866059139924    0.19927383381881025    0.16952043677877196    
  0.1695152450687789    0.19928222795857264    0.25626712317557127    0.32328484371310495    0.36876930124755636    
  0.29031036802541155    0.3232957296157516    0.33422132025241047    0.32328758855944    0.29035170259830206    
  0.24356452072491752    0.19911414965733845    0.16951664591011575    0.15953189227466702    0.16951520300291661    
  0.1991247228186716    0.2435721781499029    0.29031036802541155    0.22220467563226715    0.2435607512164612    
  0.25626937711363684    0.25628658521446573    0.24356447333531778    0.2221710748289051    0.19885017201657476    
  0.17983601158520157    0.16951663495934408    0.16952039707708821    0.17982245851858805    0.19884749200289367    
  0.22220467563226715    0.19871379776977915    0.19885654359655144    0.1991257896904742    0.19927382187568893    
  0.19911417352768787    0.19885013665473023    0.19874923925164753    0.19885015187227068    0.19911417479300572    
  0.1992738357387083    0.19912576642927782    0.198856517401303    0.19871379776977915    0.2222046808673713    
  0.19884749728573645    0.17982249223696625    0.16952039925337065    0.16951660449862294    0.1798359938947255    
  0.19885011497991129    0.22217109946568298    0.24356448554523563    0.25628660283983634    0.2562693235849142    
  0.24356075349715028    0.2222046808673713    0.29031040146126447    0.24357212152020724    0.19912477161463543    
  0.16951519094916362    0.15953190534715736    0.1695166533650886    0.19911414639654437    0.24356447981502846    
  0.290351702719844    0.32328763460816273    0.33422125030898553    0.3232957517755909    0.29031040146126447    
  0.3687693194646782    0.3232848242668959    0.2562671463230149    0.1992822137055669    0.16951521687003254    
  0.1695204291641132    0.19927384317014557    0.2562866598359455    0.32328761350001767    0.36872901656190665    
  0.3813055903695152    0.3813263673747996    0.3687693194646782    0.36890659137459547    0.3813199693148556    
  0.3342376439893967    0.25626709847954215    0.19912473506868958    0.17982247061748063    0.19912580372098235    
  0.25626937969418817    0.3342212411831351    0.38130561134315355    0.36897808369896196    0.3507345826155688    
  0.36890659137459547    0.28823188309433767    0.35072574573364307    0.3813200570768735    0.3232848096873942    
  0.2435721390176691    0.19884747370715838    0.19885652430108794    0.24356076475829877    0.32329569719818185    
  0.3813263654117491    0.3507345557755641    0.28816824229721155    0.28823188309433767    0.24374003217537268    
  0.28823191242767215    0.3689066178602073    0.3687692952741671    0.2903104026245188    0.22220465617504925    
  0.19871379391822871    0.2222046912117715    0.2903103831540817    0.368769276610109    0.36890666048888976    
  0.28823193072674863    0.24374003217537268    0.4070097840885813    0.4101630381941837    0.38908818741296175    
  0.31776715856215965    0.2333195164433702    0.17702262831839752    0.1586380843185277    0.17702261256880458    
  0.23331949349893416    0.3177671358991953    0.3890882387842613    0.4101630580435142    0.4070097840885813    
  0.41016302003182686    0.41014774578810576    0.3996284516658533    0.34687893764673183    0.2639943841634716    
  0.19428077702234692    0.1588885648412743    0.15888705485237434    0.19428150780416487    0.2639930891422158    
  0.3468805527680043    0.39962378476207033    0.41016302003182686    0.38908822025611434    0.3996284117566978    
  0.389100379649731    0.34687894827019783    0.275340188817383    0.20496670640004971    0.1594627457103418    
  0.14446438549272705    0.15946399438799716    0.20496627665236303    0.2753405350738638    0.34688062691882227    
  0.38908822025611434    0.3177671593484312    0.34687902722720965    0.3468790238998219    0.31775752448868083    
  0.26399393720749614    0.20496736130340684    0.1597957714396395    0.1367006705061313    0.13669848020890582    
  0.15979658996453913    0.20496628993770696    0.2639931648584209    0.3177671593484312    0.23331949330724888    
  0.26399441393076095    0.27534024278783115    0.2639939152010701    0.23332739252054782    0.19428005507055912    
  0.15946365087462233    0.13669803763495966    0.12897969239101886    0.1366984454560242    0.15946399103775352    
  0.19428153313746963    0.23331949330724888    0.17702258319752862    0.19428078659458758    0.20496668583462468    
  0.20496733029919506    0.19428004913053712    0.1770177950097893    0.158886314704412    0.14446699482460668    
  0.13669801400431605    0.1367006318296797    0.1444643823834528    0.15888705109699458    0.17702258319752862    
  0.15863807970054317    0.1588885883452379    0.159462718942424    0.15979573991628504    0.1594636704713409    
  0.15888630109719448    0.15864533313070797    0.15888630687208605    0.15946366956948904    0.1597957469054041    
  0.159462732905135    0.15888857669756934    0.15863807970054317    0.17702257831412055    0.15888703124330297    
  0.1444644310413296    0.13670063344454564    0.13669798904342878    0.14446699399484253    0.15888630045727928    
  0.17701780957238986    0.19428001581531704    0.20496735577827238    0.2049666492717524    0.1942807969298566    
  0.17702257831412055    0.23331948672131025    0.19428150537424932    0.15946400354303458    0.13669843670987641    
  0.12897969248903174    0.13669802819403645    0.15946364742460392    0.19428001805958442    0.23332741160517148    
  0.26399398173926353    0.27534017644958303    0.26399443239131803    0.23331948672131025    0.3177671673598022    
  0.2639931568180387    0.2049663135690995    0.15979658608036804    0.136698478801224    0.1367006572130797    
  0.15979576691366923    0.2049673875143527    0.2639939869574035    0.317757557267569    0.3468789647555597    
  0.3468789636392487    0.3177671673598022    0.38908815859778423    0.34688051166142786    0.2753406406147267    
  0.20496626077770722    0.15946397171456694    0.1444643923863007    0.15946273057491397    0.20496671798546706    
  0.2753401718230763    0.3468789661491897    0.38910032409838097    0.3996284473825342    0.38908815859778423    
  0.4101630262163354    0.3996237849245807    0.34688058193282706    0.2639931337861943    0.1942815313279689    
  0.15888703897714646    0.158888578413123    0.19428082291715307    0.26399441087396763    0.3468789808125506    
  0.3996284129104744    0.4101478269916318    0.4101630262163354    0.4070097840885813    0.4101630381941837    
  0.38908818741296175    0.31776715856215965    0.2333195164433702    0.17702262831839752    0.1586380843185277    
  0.17702261256880458    0.23331949349893416    0.3177671358991953    0.3890882387842613    0.4101630580435142    
  0.4070097840885813    0.4254315594436362    0.402011075192623    0.3368792975385474    0.2532439475750316    
  0.18187031233699866    0.13864935950986612    0.12477477029627197    0.13864937359208102    0.1818702923197242    
  0.25324392540068635    0.3368793190893176    0.4020110642016749    0.4254315594436362    0.4020110203044592    
  0.40201344484880736    0.35739021621625633    0.2825611439924709    0.20649347818527883    0.15178655210910172    
  0.12505862770362142    0.12505752442862872    0.15178708605932106    0.20649285050856706    0.2825622923952605    
  0.3573899857041842    0.4020110203044592    0.336879313224768    0.3573902044783593    0.3368765800525403    
  0.28256461108314357    0.21598678622174017    0.1600058817885074    0.1256440551427641    0.11441244009689304    
  0.12564521218609215    0.16000481704064848    0.21598756184185508    0.2825623588265792    0.336879313224768    
  0.2532439461259761    0.2825611942763724    0.2825646320972098    0.25324196544866    0.20649414963232093    
  0.16000371662188304    0.12595061033026383    0.10866535491070702    0.10866446672211064    0.1259504331727368    
  0.16000482121262896    0.20649290052344704    0.2532439461259761    0.18187028454104204    0.2064934722259178    
  0.21598680488565508    0.20649407903157235    0.1818699163850525    0.15178678837088994    0.12564584969852108    
  0.10866413874021003    0.10285644013649305    0.10866445064329605    0.12564519878040295    0.15178710616092028    
  0.18187028454104204    0.13864934798746906    0.15178654425650853    0.1600058799516736    0.16000367113825303    
  0.15178676430572557    0.13864998813664542    0.1250572902107205    0.11441267892765684    0.10866414069455804    
  0.10866532209213467    0.11441244554637128    0.12505750919611272    0.13864934798746906    0.1247747425037149    
  0.12505864857847446    0.12564405895474973    0.12595062025280537    0.1256458452592321    0.12505729286237485    
  0.12477542419625715    0.12505728077790976    0.12564584578541282    0.1259506111347158    0.1256440468495422    
  0.12505864511447912    0.1247747425037149    0.13864933947350727    0.1250575034509657    0.11441247648143313    
  0.10866532695935782    0.10866412051437616    0.11441268122215854    0.1250572906063339    0.13865001238570934    
  0.15178676776573713    0.16000369431823488    0.16000586320163607    0.1517865749009275    0.13864933947350727    
  0.18187029797795112    0.1517870645893681    0.12564523133260053    0.10866443995460803    0.1028564633103781    
  0.10866416119014115    0.12564584925680305    0.1517867592925377    0.18186991928898066    0.20649415283732558    
  0.21598674978905197    0.20649353122355127    0.18187029797795112    0.253243944898733    0.20649289166005153    
  0.16000481999760455    0.12595041316160105    0.10866445838505673    0.1086653514660916    0.12595063470036894    
  0.16000372160659898    0.20649414827307902    0.2532420063593883    0.2825645953678037    0.28256115591876224    
  0.253243944898733    0.33687923473077325    0.2825622995353553    0.21598764859861094    0.16000479851690427    
  0.12564519234400254    0.11441246092881674    0.12564406113145    0.16000590018606023    0.21598674811517224    
  0.28256459728638234    0.3368765339114085    0.3573902122181214    0.33687923473077325    0.40201101296182123    
  0.35738996307149906    0.2825623411729344    0.20649286577103684    0.1517871013898837    0.12505749990069945    
  0.125058637024137    0.1517865791578989    0.20649349431831376    0.2825611362166951    0.35739018187452004    
  0.4020135481702633    0.40201101296182123    0.4254315594436362    0.402011075192623    0.3368792975385474    
  0.2532439475750316    0.18187031233699866    0.13864935950986612    0.12477477029627197    0.13864937359208102    
  0.1818702923197242    0.25324392540068635    0.3368793190893176    0.4020110642016749    0.4254315594436362    
  0.3696430893969799    0.34373420603169147    0.2795498242091106    0.2066568068759127    0.14870260226553822    
  0.11438836466972228    0.10337115164386995    0.11438837879737185    0.1487026029441767    0.2066567922624029    
  0.2795498466169851    0.343734232915838    0.3696430893969799    0.3437341552423232    0.3437338182482919    
  0.2988875009356949    0.2315659493377551    0.1685013757647623    0.12481508843427674    0.10364463768010691    
  0.10364440186358152    0.12481523569249575    0.16850123264896272    0.23156494973294045    0.29888873859126075    
  0.3437341552423232    0.2795498518476585    0.2988874930675278    0.27955144086071254    0.23156471602981402    
  0.17629034970297855    0.1313568812964117    0.10418589075524208    0.09533440289556683    0.10418583995116508    
  0.13135712468379845    0.17629067601879198    0.2315650151273497    0.2795498518476585    0.2066567832919888    
  0.23156601352282535    0.23156474242273062    0.2066571024003804    0.16850142315488206    0.1313572010683455    
  0.10445393871008189    0.09088475347807122    0.09088551950682273    0.10445316250691412    0.13135712293763788    
  0.1685012535044742    0.2066567832919888    0.14870257441917334    0.1685013771894891    0.17629035974382767    
  0.16850138675877946    0.14870219342644467    0.1248155077098855    0.10418514742976014    0.0908856501894431    
  0.08634469183380343    0.09088548432855482    0.1041858256194705    0.124815276407221    0.14870257441917334    
  0.11438835135006614    0.12481510728245937    0.13135688515764235    0.13135717426505739    0.12481547581956727    
  0.11438808969871132    0.10364528947978334    0.09533387168811565    0.09088564372683937    0.09088471832677883    
  0.09533440354529046    0.10364439089588834    0.11438835135006614    0.10337115229547848    0.10364464740070198    
  0.10418590538184418    0.10445394287485738    0.10418514481685101    0.10364527632303433    0.10337003970538984    
  0.10364526804891783    0.10418515206097245    0.1044539408678738    0.10418589155523088    0.10364464059297689    
  0.10337115229547848    0.11438836325203623    0.10364438168398156    0.09533442942844919    0.09088473099830156    
  0.09088562487723638    0.09533387310600085    0.10364526959796627    0.11438811071862283    0.12481548171068317    
  0.13135720084830574    0.1313568612678445    0.124815121361127    0.11438836325203623    0.1487025933589689    
  0.12481523462767768    0.10418585437050235    0.09088548136957698    0.08634469158925723    0.09088566361903908    
  0.10418512985059464    0.12481548082056927    0.1487022034157519    0.16850143683141466    0.17629028764190735    
  0.16850140252185855    0.1487025933589689    0.206656804034194    0.1685012475051914    0.13135715094257522    
  0.10445315527737015    0.09088550034718444    0.09088475469892036    0.1044539519214469    0.13135721923219804    
  0.16850141173045768    0.20665713316996148    0.2315647070784483    0.23156596071941557    0.206656804034194    
  0.27954981059141604    0.23156495799938187    0.17629074738380401    0.13135711469610234    0.10418582535283846    
  0.09533441357833178    0.10418589161132238    0.13135688161575282    0.17629030511755867    0.23156471363603673    
  0.2795513692768395    0.2988875121955408    0.27954981059141604    0.34373418304255027    0.2988887514359475    
  0.23156500520591144    0.16850125019476964    0.1248152381564418    0.10364437663651495    0.10364463517723932    
  0.12481510940125683    0.16850137083437897    0.23156595082175663    0.2988874685057973    0.343733896822562    
  0.34373418304255027    0.3696430893969799    0.34373420603169147    0.2795498242091106    0.2066568068759127    
  0.14870260226553822    0.11438836466972228    0.10337115164386995    0.11438837879737185    0.1487026029441767    
  0.2066567922624029    0.2795498466169851    0.343734232915838    0.3696430893969799    0.34275952693352124    
  0.3180475850230907    0.25780884276016264    0.1905551361079253    0.1375663586614617    0.10623541792025988    
  0.09616129602620443    0.10623541732165599    0.13756636745519962    0.1905551100872124    0.257808862337256    
  0.3180476073142972    0.34275952693352124    0.31804757755456503    0.3180453733639385    0.2758648079830291    
  0.2135253321397383    0.15568829993362768    0.1157734396207844    0.09643432636424072    0.09643590157990865    
  0.11577221651785899    0.15568935985659982    0.21352278038663008    0.27586661197933227    0.31804757755456503    
  0.25780884787561054    0.2758647733568982    0.2578134215029987    0.2135204352777199    0.16287770866324516    
  0.1217728536050742    0.09698110006326159    0.08892013231911637    0.09698028174751319    0.12177382835088382    
  0.16287759713918049    0.21352283054878965    0.25780884787561054    0.19055515074318763    0.21352538667175577    
  0.21352047360568813    0.19055670170695094    0.15568891644285263    0.12177517490197608    0.0972480053447894    
  0.08493674576158687    0.08493717049336517    0.09724812556213824    0.12177383976933102    0.1556893996897654    
  0.19055515074318763    0.13756634148382005    0.15568830809841072    0.16287775189510523    0.15568889428028512    
  0.13756590135824132    0.11577216323294579    0.0969796806205749    0.08493718592441163    0.08084514974870431    
  0.08493715351792824    0.09698027816367392    0.11577223019750191    0.13756634148382005    0.10623538732125914    
  0.11577344025851483    0.1217728421108805    0.1217751583698074    0.11577214770282707    0.10623663163026685    
  0.09643543286260357    0.08892077786168648    0.08493716449611508    0.08493672489660013    0.08892013754904396    
  0.09643590877094046    0.10623538732125914    0.0961612846193972    0.0964343425276309    0.09698110899481124    
  0.09724799003251312    0.09697970109571644    0.09643541252011652    0.09615989169345254    0.09643541307625797    
  0.09697969525529697    0.09724800458249774    0.09698111781348573    0.09643433808610875    0.0961612846193972    
  0.10623538073712468    0.09643587670820608    0.08892016715374171    0.08493672457299915    0.08493714762279456    
  0.08892077807548557    0.09643542171702714    0.10623662917110716    0.11577214895751713    0.12177516591898523    
  0.12177282012437261    0.11577346560313713    0.10623538073712468    0.13756634101211637    0.11577221489278998    
  0.09698028530589213    0.08493714498470414    0.08084515372983661    0.08493717555026559    0.09697968036599411    
  0.11577213928841568    0.13756589796649396    0.15568893762537722    0.1628776969697445    0.15568834210140464    
  0.13756634101211637    0.19055514788399283    0.15568939838608517    0.12177385359320614    0.09724811370602104    
  0.08493716090215377    0.08493674501385003    0.09724801661879932    0.1217751972421631    0.15568895259706206    
  0.19055672713891247    0.21352047586100853    0.21352536567286373    0.19055514788399283    0.25780882133086397    
  0.21352276274828505    0.1628776569156195    0.12177382666303492    0.09698025962864523    0.08892014618564552    
  0.09698110246907386    0.12177284838521416    0.16287769292349946    0.21352047038566843    0.25781339051800223    
  0.27586480275731273    0.25780882133086397    0.31804757465148903    0.2758666013536123    0.21352281863912245    
  0.15568936103095968    0.11577221643002977    0.09643589859281937    0.09643433908012547    0.11577345658092594    
  0.1556883249688993    0.21352534027220962    0.2758647827142133    0.3180454439666487    0.31804757465148903    
  0.34275952693352124    0.3180475850230907    0.25780884276016264    0.1905551361079253    0.1375663586614617    
  0.10623541792025988    0.09616129602620443    0.10623541732165599    0.13756636745519962    0.1905551100872124    
  0.257808862337256    0.3180476073142972    0.34275952693352124    0.3696430947209838    0.34373422778281737    
  0.27954984573950753    0.20665680389270577    0.1487025978925191    0.11438837147532115    0.10337116559799676    
  0.11438838921721443    0.1487025871994781    0.20665678767842996    0.2795498620544577    0.34373422600528103    
  0.3696430947209838    0.3437341697075917    0.34373380678702703    0.2988875107093032    0.23156594522463314    
  0.16850135971100297    0.12481510196138185    0.10364462877634863    0.1036443991495407    0.12481525364084331    
  0.1685012174491181    0.23156494169666605    0.2988887586887897    0.3437341697075917    0.27954984829497953    
  0.2988875098261726    0.27955142401663147    0.23156471978715734    0.17629035552018424    0.13135687333569532    
  0.10418589322923619    0.09533440047939934    0.10418583297780984    0.13135712917339548    0.17629066710771638    
  0.231565020322578    0.27954984829497953    0.206656790010045    0.23156599565206726    0.23156474498361643    
  0.20665709118170816    0.1685014251155446    0.13135720439777873    0.10445394136699139    0.0908847482462444    
  0.09088551256258524    0.10445317957746325    0.1313571379442177    0.16850127105473198    0.206656790010045    
  0.1487025820673122    0.16850136849075142    0.1762903627468578    0.16850136257968237    0.1487021981434694    
  0.12481550215090627    0.10418515779915459    0.0908856430465435    0.0863446938029695    0.09088548190510956    
  0.10418582415178902    0.12481528606049443    0.1487025820673122    0.11438835983511031    0.12481509891943575    
  0.1313568704355532    0.13135717967810953    0.12481547742880966    0.11438808977962099    0.10364527611313697    
  0.0953338721163777    0.09088564415234875    0.09088472508278166    0.09533439292152597    0.10364439095417176    
  0.11438835983511031    0.10337114543434266    0.10364465816387271    0.10418588962890417    0.10445393544661506    
  0.10418515113449212    0.10364528058125141    0.10337003183888109    0.1036452660112425    0.10418515249967089    