#     DFTpy    
  CRYSTAL 
    
  PRIMVEC    
  1.5090712072074648    -2.61378800312263    0.0    
  1.5090712072074648    2.61378800312263    0.0    
  0.0    0.0    2.8405598836551715    
  PRIMCOORD    
  1    1    
  Si    0.0    0.0    0.0    
  BEGIN_BLOCK_DATAGRID_3D    
  3d_datagrid_density    
  BEGIN_DATAGRID_3D#0    
  13    13    13    
  0.0    0.0    0.0    
  1.5090712072074648    -2.61378800312263    0.0    
  1.5090712072074648    2.61378800312263    0.0    
  0.0    0.0    2.8405598836551715    
  0.06322994444819884    0.12007670027037169    0.29812116730519855    0.38728892783184915    0.29387666638108334    
  0.2021087630239014    0.17145058698038024    0.20210877508996977    0.2938766725476333    0.3872889089074407    
  0.29812114148942614    0.12007669603628182    0.06322994444819884    0.12007667231807317    0.11988281998108598    
  0.24516468839673017    0.38243596625994475    0.3383738774620941    0.2304402324739966    0.17221203610718747    
  0.17215992938598193    0.23050760229225403    0.3383070479487308    0.38236793592000773    0.24515216411524132    
  0.12007667231807317    0.29812110509209466    0.24516471049936123    0.29850111109421895    0.38230619814425676    
  0.3524062454499    0.24798626225399745    0.1735516563294261    0.14968320568604576    0.17354693227804094    
  0.24797023565979426    0.35254120171052145    0.38236794280283043    0.29812110509209466    0.38728892061457026    
  0.3824359890302813    0.38230621994678954    0.38704682127004747    0.3383021149708275    0.2481140355227343    
  0.174187520780555    0.1380646538645591    0.13803840128472955    0.17423468251938748    0.2479702197919435    
  0.33830706814536476    0.38728892061457026    0.2938766515409296    0.33837387374507444    0.352406230423824    
  0.3383020756784765    0.29413242267087963    0.23047545202090783    0.17346149081239357    0.13804946938373838    
  0.12634932973867583    0.13803838330349347    0.1735469250731135    0.23050761322943175    0.2938766515409296    
  0.20210876508998674    0.2304402290898098    0.24798625742309874    0.24811402320646517    0.23047542972549806    
  0.20190109197331935    0.17217954688987513    0.14977095778694413    0.13804945458357804    0.13806464756092354    
  0.14968320756984177    0.17215994162712853    0.20210876508998674    0.17145059254483605    0.17221206469356923    
  0.17355167025099927    0.17418752406641838    0.17346151408376287    0.1721795619277451    0.17165106754324708    
  0.17217957620312652    0.17346151545266125    0.17418750935336202    0.1735516713163894    0.1722120570661083    
  0.17145059254483605    0.20210874735819864    0.17215994247890903    0.14968321466555878    0.13806464719396921    
  0.13804944500997945    0.14977097369425216    0.1721795446710285    0.20190107252553735    0.2304754542102686    
  0.24811403421808612    0.2479862385331588    0.23044023402875402    0.20210874735819864    0.2938766266705974    
  0.230507611084022    0.17354693251324044    0.1380383935959083    0.12634932876036373    0.13804946402428353    
  0.17346149054774923    0.23047543708984905    0.2941324362289422    0.33830207820621705    0.3524061996873951    
  0.33837388113725797    0.2938766266705974    0.38728890498454926    0.3383070831927169    0.2479702452976073    
  0.17423468998319552    0.13803838761804577    0.13806466226277586    0.17418752036470755    0.24811403455061995    
  0.338302090724399    0.387046806504793    0.3823061718287659    0.38243599805297834    0.38728890498454926    
  0.2981211233265944    0.3823679386744369    0.35254118143539875    0.24797021780897388    0.1735469368067099    
  0.14968321026010498    0.17355166924211846    0.24798625500700688    0.3524062434094144    0.3823061679458125    
  0.2985011020726323    0.24516468282456147    0.2981211233265944    0.12007667016016825    0.24515215877992225    
  0.38236792325277147    0.3383070579921434    0.23050759124839368    0.172159933201753    0.17221204250302916    
  0.23044022127236458    0.3383738631136328    0.38243593979893276    0.24516468143098064    0.11988283997225381    
  0.12007667016016825    0.06322994444819884    0.12007670027037169    0.29812116730519855    0.38728892783184915    
  0.29387666638108334    0.2021087630239014    0.17145058698038024    0.20210877508996977    0.2938766725476333    
  0.3872889089074407    0.29812114148942614    0.12007669603628182    0.06322994444819884    0.11318812667459392    
  0.17690696921779003    0.33446729450711743    0.3784486140329314    0.2771417696208611    0.19040175986000088    
  0.16190332117425138    0.19040175754056443    0.2771417534108152    0.37844862409545055    0.3344672865008078    
  0.17690698090221482    0.11318812667459392    0.17690694424191755    0.17667860591243023    0.292626965129991    
  0.3864713466314331    0.3212355055567695    0.2170279176006168    0.16272308961226706    0.16268216942058827    
  0.2170826943361009    0.32117584926386195    0.38644447804187043    0.29257990334924794    0.17690694424191755    
  0.33446724432809144    0.29262696661471305    0.3348058350535813    0.3863675025375428    0.3360187073624236    
  0.23364584204586414    0.16416417662017857    0.14204085041567774    0.16415653340152112    0.23364250396300687    
  0.3360956834032487    0.3864444883481281    0.33446724432809144    0.3784486006225373    0.38647137035413914    
  0.38636750708986667    0.3782504952508403    0.32118965467721133    0.2337336541433255    0.16484760292341125    
  0.13131648367632873    0.13130192025720486    0.16487697031999762    0.23364250842651985    0.3211758723164064    
  0.3784486006225373    0.2771417322808242    0.321235503583144    0.3360187262299466    0.3211896270299874    
  0.2773386082815557    0.2170497013772336    0.16410372403252194    0.13130777620368536    0.12042769855008506    
  0.13130190606740455    0.1641565226950334    0.2170826967327076    0.2771417322808242    0.19040174121956896    
  0.21702790952866602    0.23364581868982265    0.23373366736314613    0.21704967809493897    0.19024600128526026    
  0.16269898510414488    0.14209846633368345    0.13130776734743643    0.13131648341441582    0.14204084320236163    
  0.16268218034902487    0.19040174121956896    0.16190331262411392    0.16272311914161217    0.16416419896784898    
  0.16484760093064785    0.16410374293619517    0.16269900292537404    0.16205417550135712    0.16269900502915213    
  0.16410375845648448    0.1648475787259982    0.1641642126349922    0.16272311265833903    0.16190331262411392    
  0.1904017391300473    0.16268215446926423    0.14204085303236236    0.13131648351915617    0.13130776179711112    
  0.14209848087950075    0.16269900133489723    0.19024597989402867    0.21704969708135097    0.23373365197970983    
  0.23364583037578085    0.21702791042832748    0.1904017391300473    0.2771417252995062    0.21708268904247038    
  0.16415653354738005    0.13130190754578558    0.12042769269011241    0.13130777987004663    0.16410372977167262    
  0.21704968081872023    0.27733859854850895    0.32118962751667435    0.3360186966976132    0.32123550497972037    
  0.2771417252995062    0.37844862358986364    0.32117587196500147    0.2336425374169019    0.16487697123709932    
  0.13130191016584747    0.13131650070632545    0.1648475897830478    0.2337336566619279    0.3211896587098    
  0.37825047893628333    0.3863675165179682    0.38647137160590017    0.37844862358986364    0.3344672718621    
  0.3864445197965163    0.3360956773887984    0.23364250585313615    0.16415653699975621    0.14204085760409488    
  0.16416418942470792    0.23364584370127547    0.3360187173060962    0.38636749442140284    0.3348058274981244    
  0.2926269482573018    0.3344672718621    0.17690695001751475    0.29257990962426367    0.3864444894842678    
  0.32117586060372955    0.21708269507198893    0.16268216658091234    0.16272307624830074    0.21702790238159456    
  0.32123548787160716    0.3864713217070777    0.2926269311027303    0.17667860493512816    0.17690695001751475    
  0.11318812667459392    0.17690696921779003    0.33446729450711743    0.3784486140329314    0.2771417696208611    
  0.19040175986000088    0.16190332117425138    0.19040175754056443    0.2771417534108152    0.37844862409545055    
  0.3344672865008078    0.17690698090221482    0.11318812667459392    0.27988043495392095    0.32566407643847844    
  0.3857591537680399    0.3378799626455049    0.23276979963884342    0.1610480734271399    0.1382423593576928    
  0.16104808327338807    0.23276980507314113    0.3378799534427804    0.3857591234575834    0.3256640747107139    
  0.27988043495392095    0.32566404057786724    0.32552203164539206    0.377287015820021    0.36745470961933074    
  0.27244508855025024    0.1828017189685726    0.13897109569990634    0.13896035164596648    0.1828209639265002    
  0.27242078931888    0.3674559507593938    0.3772474038220273    0.32566404057786724    0.38575908231741945    
  0.3772870137724656    0.38590621336608294    0.3674154383593084    0.28717363223251247    0.1965879800676907    
  0.14034819581263658    0.12263140287718312    0.14034034764020667    0.19659231042148662    0.287188808886991    
  0.3674559264976372    0.38575908231741945    0.33787995511346725    0.36745473706991033    0.36741545372013956    
  0.33780693973850273    0.272435339862702    0.19661462511144503    0.14101862328721074    0.11408620968963354    
  0.11408600892220341    0.14102594466672438    0.19659230875739392    0.2724208189442444    0.33787995511346725    
  0.23276980075976628    0.27244508813320095    0.28717363483408903    0.2724353208590969    0.23283402763285424    
  0.1828061059835674    0.1403289009970195    0.11408693553169497    0.10529711043796375    0.11408600333446438    
  0.14034033790732373    0.18282095286533767    0.23276980075976628    0.1610480675853884    0.18280170029623202    
  0.19658796846485446    0.19661462170214003    0.18280607993437428    0.16099790734977332    0.13896564386544014    
  0.12264594130742774    0.11408692268521566    0.11408620154402906    0.12263138839099538    0.13896036100324372    
  0.1610480675853884    0.13824235705552804    0.1389711152962796    0.14034821414000698    0.14101862692812492    
  0.14032891815769083    0.13896566397592144    0.13829074713554645    0.13896565969119204    0.14032892874538858    
  0.14101862138414129    0.14034821925806257    0.13897112792251784    0.13824235705552804    0.1610480669403721    
  0.13896034218139944    0.12263140582235481    0.11408620598394616    0.11408692162186525    0.12264595172494686    
  0.13896564944322698    0.16099788449490254    0.18280609859598965    0.19661461857963028    0.1965879771112049    
  0.18280172239096315    0.1610480669403721    0.2327697758520989    0.18282097456092639    0.1403403480816201    
  0.11408599905074565    0.1052971062208824    0.11408693353250798    0.14032889875621796    0.18280609619806418    
  0.23283401586751326    0.2724353183886398    0.2871736276058278    0.27244509479330364    0.2327697758520989    
  0.33787995516543523    0.2724208126850005    0.19659233769184223    0.14102594923389192    0.11408600235628691    
  0.1140862193123921    0.1410186147810914    0.19661461082119966    0.27243534247003265    0.3378069145011541    
  0.36741544114809715    0.36745471959236714    0.33787995516543523    0.3857591320596225    0.3674559700008471    
  0.2871887877684241    0.19659231003722874    0.14034035644778672    0.12263139379116718    0.1403482104500266    
  0.19658797402256162    0.2871736299866478    0.3674154346092626    0.38590618893568424    0.3772870020534936    
  0.3857591320596225    0.3256640290901842    0.377247394473039    0.36745592192355736    0.2724207804273246    
  0.18282095057597164    0.13896036114276555    0.13897109221728499    0.18280171089131608    0.27244508085325764    
  0.3674546877619626    0.3772869982442696    0.32552203649728045    0.3256640290901842    0.27988043495392095    
  0.32566407643847844    0.3857591537680399    0.3378799626455049    0.23276979963884342    0.1610480734271399    
  0.1382423593576928    0.16104808327338807    0.23276980507314113    0.3378799534427804    0.3857591234575834    
  0.3256640747107139    0.27988043495392095    0.40389488997579465    0.3980779882535183    0.354055215326194    
  0.26451446515097515    0.17820642101232595    0.1264811334452889    0.11023756722402242    0.12648113978776754    
  0.17820644523815202    0.26451445609045027    0.3540552043091215    0.39807797270010564    0.40389488997579465    
  0.39807794206477465    0.3980552800447047    0.371476868728165    0.29872545039812687    0.2083150036496459    
  0.14209021236258265    0.11076752012178091    0.11076843180686755    0.14209347773049516    0.2083112447225082    
  0.2987263646204547    0.37146582353173035    0.39807794206477465    0.35405515947614297    0.3714769079430594    
  0.3540738730573702    0.2987168162672607    0.2201833370808802    0.15209040895864104    0.11187281299339794    
  0.09915643486333596    0.111868541090158    0.1520911123526202    0.2201835304216219    0.29872637986374767    
  0.35405515947614297    0.26451445370120513    0.2987254731093318    0.29871682439127933    0.2645124082036143    
  0.20831499615697946    0.1520932970449778    0.11244397375485474    0.09313668286923675    0.09313686142056558    
  0.11244786028570265    0.15209111598792335    0.20831125667717176    0.26451445370120513    0.1782064067352762    
  0.20831500710407003    0.220183328749605    0.2083149757582086    0.17820832084192814    0.14209108491032515    
  0.11187018895702795    0.09313692161622752    0.08683213559986773    0.09313685358276778    0.11186853323279697    
  0.14209349190406909    0.1782064067352762    0.12648114163462396    0.142090205708402    0.15209040052788866    
  0.15209328620482282    0.14209106301273397    0.12647910074889684    0.11076629831347706    0.09915840794397508    
  0.09313691823975996    0.09313667710373537    0.09915643774768008    0.11076843854189153    0.12648114163462396    
  0.1102375747439262    0.11076753135644789    0.11187282943432396    0.11244397735336349    0.11187020429619185    
  0.11076631611129442    0.11024302810713757    0.1107663174339135    0.11187021136749975    0.11244396603363627    
  0.1118728260901916    0.11076753538186083    0.1102375747439262    0.12648112829218142    0.1107684263807793    
  0.09915644441594881    0.09313667825585631    0.09313691181323286    0.09915841742204559    0.11076630924803989    
  0.12647910565145443    0.1420910708752281    0.15209329868690036    0.15209039084274492    0.1420902148806308    
  0.12648112829218142    0.17820639259947266    0.14209348208015488    0.11186854848654625    0.09313685491313844    
  0.08683213022533245    0.09313692474436228    0.11187018086978669    0.14209107483749867    0.178208332198595    
  0.2083149690557994    0.22018331541609695    0.20831499941425866    0.17820639259947266    0.2645144542933433    
  0.20831125994454647    0.1520911338875568    0.11244786134516362    0.09313685405837943    0.09313668630733261    
  0.1124439708677782    0.1520933088642861    0.20831499123727873    0.26451239381521496    0.2987167991982546    
  0.2987254704904813    0.2645144542933433    0.35405516624585365    0.2987263703457018    0.22018353727752235    
  0.1520911071874002    0.11186855308605817    0.09915644396661975    0.11187282797308888    0.15209040304852567    
  0.22018332924932285    0.2987168083758082    0.3540738473566483    0.3714768759610123    0.35405516624585365    
  0.3980779295030421    0.37146581220814967    0.2987263627516519    0.2083112376936237    0.14209347295468872    
  0.11076843302516146    0.11076752511316158    0.14209021204400715    0.208314985094573    0.2987254248895522    
  0.3714768734446743    0.39805528663242307    0.3980779295030421    0.40389488997579465    0.3980779882535183    
  0.354055215326194    0.26451446515097515    0.17820642101232595    0.1264811334452889    0.11023756722402242    
  0.12648113978776754    0.17820644523815202    0.26451445609045027    0.3540552043091215    0.39807797270010564    
  0.40389488997579465    0.3485596887317045    0.3257607467495802    0.2651116951906625    0.19147871067553535    
  0.13214132772488446    0.09754552426288624    0.08652476053626978    0.09754553284655365    0.13214131407696061    
  0.19147871334103406    0.2651116843970549    0.3257607284019797    0.3485596887317045    0.32576068671987185    
  0.3257601273353231    0.2839573215832205    0.21702760672906948    0.15235832805451208    0.1080482370089992    
  0.08691156684767243    0.08691194918755926    0.10804986034545995    0.15235779591925847    0.21702568492677862    
  0.28395845716773005    0.32576068671987185    0.2651116525832018    0.28395732661306655    0.2651136517747679    
  0.21702663167654945    0.16038441356997576    0.11472938615622974    0.08773494441167685    0.07903992569131002    
  0.08773347091487149    0.11472736206282914    0.16038722193547017    0.2170256776920707    0.2651116525832018    
  0.19147868292148512    0.21702763063074276    0.21702662783185783    0.19147881368341738    0.15235805087166082    
  0.11472856412789242    0.08817101604954951    0.07505267974566221    0.0750517215873939    0.08817431801838713    
  0.11472737514909645    0.1523578076296036    0.19147868292148512    0.13214130295939663    0.1523583469465702    
  0.16038441369344403    0.1523580431995029    0.13214096966916403    0.1080503639571923    0.08773473399502629    
  0.07505196111235268    0.07080898206845625    0.07505170969465268    0.08773346435071823    0.10804985409694105    
  0.13214130295939663    0.09754552316992675    0.1080482387684055    0.11472937066566216    0.11472857667616258    
  0.1080503488992556    0.09754416312335124    0.08690988774247188    0.07904109884709365    0.07505195645848597    
  0.07505267790755613    0.07903992062832714    0.08691195355267883    0.09754552316992675    0.08652475254979583    
  0.08691158328836157    0.08773495611082892    0.08817101573651194    0.08773475072049629    0.08690989700005351    
  0.08652916676899897    0.08690989471583739    0.08773476147315727    0.08817099860665187    0.08773496196185954    
  0.08691158404927952    0.08652475254979583    0.097545519292961    0.08691194265486869    0.07903992849745081    
  0.07505268273925371    0.07505195024142025    0.07904111014312631    0.08690989985293843    0.09754415181490682    
  0.1080503688776293    0.11472856096300041    0.11472937950822268    0.108048240456112    0.097545519292961    
  0.1321412978872516    0.10804985743601034    0.08773346305481287    0.07505170836488258    0.07080897568049914    
  0.07505196451682702    0.08773474188890693    0.10805035467245147    0.1321409503849957    0.15235804093088037    
  0.16038442478800027    0.15235833403811813    0.1321412978872516    0.1914786976689146    0.1523578001001684    
  0.11472737600008645    0.08817431811036361    0.0750517135860152    0.07505269143183547    0.08817100431824285    
  0.11472856902454863    0.15235806702254223    0.19147880142010804    0.21702663477882286    0.21702761660750394    
  0.1914786976689146    0.26511167063264895    0.21702569703273797    0.1603872132118881    0.11472736584552924    
  0.08773347428865491    0.07903992625643305    0.0877349485948945    0.11472938597350771    0.16038441693156755    
  0.2170266246884369    0.26511364972636414    0.2839573061595367    0.26511167063264895    0.3257607002717681    
  0.28395843642861873    0.21702567043502402    0.15235778531163033    0.10804985248855338    0.08691194483377834    
  0.08691156201273649    0.10804823137033012    0.15235832594382062    0.21702758849340448    0.28395729847480944    
  0.3257601419582388    0.3257607002717681    0.3485596887317045    0.3257607467495802    0.2651116951906625    
  0.19147871067553535    0.13214132772488446    0.09754552426288624    0.08652476053626978    0.09754553284655365    
  0.13214131407696061    0.19147871334103406    0.2651116843970549    0.3257607284019797    0.3485596887317045    
  0.26113271036528257    0.2426713343766356    0.19700324817357473    0.14496700072172589    0.10371880691992941    
  0.07949667619433799    0.07173490082966384    0.07949667825002171    0.10371881021755812    0.14496699494040155    
  0.19700323385643054    0.2426713339645717    0.26113271036528257    0.24267130137759213    0.24267016923637919    
  0.21074513164580272    0.16269496765596297    0.11774261793944735    0.08688811970150244    0.07200843363579723    
  0.07200946427652934    0.08688719870114926    0.11774372848396636    0.16269208476559305    0.21074830879490267    
  0.24267130137759213    0.19700321159496423    0.21074514985465706    0.19700748189794584    0.1626923250021121    
  0.1232239953646102    0.09151449806231018    0.07254218881095148    0.06638239093324384    0.07254198940146535    
  0.09151425839191044    0.12322534595501584    0.1626920647547622    0.19700321159496423    0.14496699622131926    
  0.16269499207217974    0.16269232747852902    0.14496629946456788    0.11774239538786951    0.09151644392102015    
  0.07280112139406306    0.06352154171494272    0.063521082776578    0.07280224963396942    0.0915142595622169    
  0.11774372691150345    0.14496699622131926    0.10371880768549131    0.11774263191598902    0.1232240032389276    
  0.11774238907020672    0.10372087729346355    0.08688735249055472    0.0725411160989934    0.06352156093144178    
  0.060545160350128704    0.06352107777293309    0.07254198508037507    0.08688719277507057    0.10371880768549131    
  0.07949667374951631    0.08688810587797623    0.09151448611668236    0.09151644831449374    0.08688733034742309    
  0.07949535455915105    0.07200937581061044    0.06638278668317875    0.06352155397041012    0.06352154198842551    
  0.06638238481467916    0.07200946348895668    0.07949667374951631    0.07173489641211943    0.07200844282399418    
  0.07254220952294153    0.07280112182798676    0.07254111924729154    0.07200938155608672    0.07173546538014798    
  0.07200938484333297    0.07254113430979914    0.07280112014339724    0.07254221109355295    0.07200844812356612    
  0.07173489641211943    0.0794966722936767    0.07200945860740605    0.06638239255706799    0.06352154668262112    
  0.063521553891437    0.06638279359437875    0.07200938153014304    0.07949535327206993    0.08688734143039588    
  0.09151644224372912    0.09151449868821322    0.08688811960142138    0.0794966722936767    0.10371878636842385    
  0.08688720397651276    0.07254198553452261    0.0635210788873318    0.06054515629749083    0.06352155850200203    
  0.07254111483251297    0.08688734017859699    0.10372087024660451    0.11774239067425579    0.12322400366692253    
  0.1177426296259787    0.10371878636842385    0.14496699798436397    0.11774372705576888    0.09151427196301803    
  0.07280225191246575    0.06352107839097473    0.06352155558514236    0.0728011116875643    0.09151643789233921    
  0.11774240549378844    0.14496627549509428    0.16269233249611545    0.16269497440308042    0.14496699798436397    
  0.19700323685692964    0.1626920875847747    0.12322534648221828    0.0915142622122961    0.07254199061508719    
  0.06638239131471123    0.0725422087156591    0.09151449788240514    0.12322401374967609    0.16269232244709803    
  0.19700748210946328    0.21074512726908318    0.19700323685692964    0.24267128922293163    0.2107483075917676    
  0.1626920753254005    0.11774371858903959    0.08688718845681706    0.07200946394063124    0.07200842766987095    
  0.08688811332761347    0.11774262432374487    0.16269495750571233    0.21074511929218928    0.24267015865203553    
  0.24267128922293163    0.26113271036528257    0.2426713343766356    0.19700324817357473    0.14496700072172589    
  0.10371880691992941    0.07949667619433799    0.07173490082966384    0.07949667825002171    0.10371881021755812    
  0.14496699494040155    0.19700323385643054    0.2426713339645717    0.26113271036528257    0.2290408536274708    
  0.2132279961820312    0.174328828162069    0.12990928753411407    0.09438393165630451    0.07347998923664494    
  0.06681941202614736    0.07347999418050638    0.09438393677791639    0.12990928428351106    0.17432880978226792    
  0.21322798592877595    0.2290408536274708    0.2132279577480856    0.21322804624721098    0.18599987084882713    
  0.14504333894458887    0.10648708614074569    0.07986213407139557    0.06704796240279395    0.06704965757522226    
  0.07986031562081901    0.1064881305564191    0.14504145693466963    0.18600255933048251    0.2132279577480856    
  0.17432878820839137    0.1859998960775887    0.17433141289425924    0.1450415864534422    0.11118868437425077    
  0.08383900565353915    0.06745176146405014    0.0621517074135801    0.0674516532714586    0.0838400252155322    
  0.11118863960491511    0.1450414496813568    0.17432878820839137    0.12990928476643276    0.14504334813404648    
  0.14504160120812626    0.12990877840857212    0.10648765896731882    0.08384110325342653    0.06762528543013002    
  0.0596214506990547    0.05962050864026189    0.06762546441924747    0.08384001669017452    0.10648812634476791    
  0.12990928476643276    0.09438392666774256    0.10648709044008114    0.11118867970656414    0.10648764846706518    
  0.09438467114604178    0.07985978446337018    0.06745181181353951    0.059619744398531196    0.057058972930253436    
  0.05962050177057918    0.067451647709564    0.07986032098452596    0.09438392666774256    0.0734799913221684    
  0.07986213509282654    0.08383900366743069    0.08384109646958769    0.07985977539585239    0.07348203265142231    
  0.06704754723673688    0.062154144786340584    0.0596197349699497    0.05962144866092497    0.06215171141766199    
  0.06704966614455023    0.0734799913221684    0.06681941495769424    0.0670479755660396    0.0674517700866173    
  0.06762528622948988    0.06745181987155847    0.06704755350693542    0.0668200628167925    0.067047561899874    
  0.06745182295925208    0.06762527819472014    0.0674517683296732    0.06704796958461126    0.06681941495769424    
  0.07347998291764897    0.06704966511789094    0.06215171382685617    0.05962145395411089    0.059619731330783146    
  0.062154154334696204    0.0670475508889351    0.07348202079480165    0.0798597871265501    0.08384111080281738    
  0.08383899628639761    0.07986213579032436    0.07347998291764897    0.09438390645252456    0.07986032147481664    
  0.06745164923508416    0.059620505659631194    0.057058966022833606    0.05961974093816964    0.06745180944896573    
  0.07985978028057542    0.09438467736705959    0.10648764005003092    0.11118866675584553    0.10648708578460093    
  0.09438390645252456    0.12990927313928555    0.10648813802368656    0.0838400258531792    0.06762546717261302    
  0.0596205023695481    0.0596214591454784    0.06762528444863893    0.08384110229824014    0.1064876506223344    
  0.12990877419214428    0.14504158455181224    0.14504334956769904    0.12990927313928555    0.1743287982963888    
  0.14504144928179374    0.11118863322801179    0.08384001561994556    0.06745165143940177    0.062151714478732696    
  0.06745177178919398    0.08383900236613531    0.11118868854593494    0.14504158982425797    0.1743314072735375    
  0.1859998720984999    0.1743287982963888    0.2132279443609706    0.18600255011545977    0.14504143334236816    
  0.10648812468290583    0.07986030840666974    0.0670496588082932    0.0670479633694827    0.07986213085057156    
  0.10648708339606218    0.14504331708818838    0.1859998667277797    0.21322806618697995    0.2132279443609706    
  0.2290408536274708    0.2132279961820312    0.174328828162069    0.12990928753411407    0.09438393165630451    
  0.07347998923664494    0.06681941202614736    0.07347999418050638    0.09438393677791639    0.12990928428351106    
  0.17432880978226792    0.21322798592877595    0.2290408536274708    0.2611327160928295    0.24267132826965265    
  0.19700325254350293    0.14496699270042504    0.1037188181215838    0.07949668161432008    0.0717348950321539    
  0.07949668176550324    0.1037188126953474    0.14496699724816967    0.1970032499068588    0.24267133104014552    
  0.2611327160928295    0.2426712957280554    0.24267017066024604    0.2107451393071242    0.1626949724897066    
  0.1177426199580659    0.08688811928667652    0.07200842825362057    0.07200946663654591    0.08688719099092053    
  0.11774372478218179    0.16269207359266166    0.21074830405630848    0.2426712957280554    0.1970032158431104    
  0.2107451440215281    0.1970074868385185    0.1626923282867094    0.12322399231147699    0.09151449884664382    
  0.07254219560053142    0.06638238770458241    0.07254199049105045    0.09151426065734229    0.12322535015920348    
  0.16269206530164165    0.1970032158431104    0.144966986402348    0.16269498873220412    0.16269232808053571    
  0.14496628995696    0.11774240004670307    0.09151643563607964    0.07280112312702786    0.06352154314916451    
  0.06352108357002363    0.07280224832352301    0.0915142667230046    0.11774372819240117    0.144966986402348    
  0.103718802054757    0.11774261946107781    0.1232240092332291    0.11774239497726563    0.10372088031429691    
  0.08688735165160195    0.07254111250607519    0.06352155971168459    0.060545161375360895    0.0635210799645198    
  0.07254198834945058    0.0868871902778052    0.103718802054757    0.0794966733168177    0.08688811593322487    
  0.09151448123384474    0.09151644598024188    0.08688733420558555    0.07949536244270168    0.07200937079720249    
  0.06638278777324738    0.06352155567154712    0.06352154438495634    0.06638238382785142    0.0720094712538015    
  0.0794966733168177    0.07173489213901059    0.07200844372145816    0.07254220827171094    0.07280112478253473    