#     DFTpy    
  CRYSTAL 
    
  PRIMVEC    
  2.9392826487199826    -1.6148991999999998e-10    3.0609249103448273e-10    
  -1.6148991999999998e-10    2.939282648549189    1.4749016275862068e-10    
  5.593454344827587e-10    2.695644689655173e-10    5.384822777609428    
  PRIMCOORD    
  4    1    
  Si    1.4696413243039916    1.4696413250833846    1.654725074304808    
  Si    5.449809220190125e-10    -5.043725794269159e-10    1.0376863126897888    
  Si    8.358726389981358e-11    3.8092174423077573e-10    4.3471364618653245    
  Si    1.4696413247446234    1.469641323966894    3.730097706812514    
  BEGIN_BLOCK_DATAGRID_3D    
  3d_datagrid_density    
  BEGIN_DATAGRID_3D#0    
  13    13    23    
  0.0    0.0    0.0    
  2.9392826487199826    -1.6148991999999998e-10    3.0609249103448273e-10    
  -1.6148991999999998e-10    2.939282648549189    1.4749016275862068e-10    
  5.593454344827587e-10    2.695644689655173e-10    5.384822777609428    
  0.8243775619244068    0.7431151184060383    0.5542958607350484    0.3600222117831529    0.22354718949841945    
  0.15195431342363055    0.13055609809625535    0.15195432790156874    0.22354712253057554    0.3600222229114512    
  0.554295817854486    0.7431152649479892    0.8243775619244068    0.7431152620378947    0.6735041955699764    
  0.5095201302317569    0.3381347518434139    0.2161144457243141    0.15099152737992327    0.13118719923365574    
  0.15099149711925175    0.21611434705467597    0.3381347768313994    0.5095201879301549    0.6735042346641719    
  0.7431152620378947    0.5542958817489176    0.5095201855105569    0.4018301573123665    0.28488609241121415    
  0.19761686803026118    0.14838061031410282    0.1326930002118896    0.14838061964666552    0.19761693510219663    
  0.28488610187851043    0.4018301852518124    0.5095202140980192    0.5542958817489176    0.36002213518855064    
  0.33813486005105486    0.284886107564923    0.22404497578352062    0.17492451972733522    0.14506031804394595    
  0.13503586098344988    0.1450603111643049    0.17492450609953422    0.22404503698123765    0.28488617104654096    
  0.3381347887578458    0.36002213518855064    0.22354712668916535    0.21611437239307674    0.1976169036055932    
  0.17492448823891293    0.15495183184113281    0.14217996714250136    0.1378267395829293    0.14217996869067692    
  0.1549517854121263    0.17492448090250332    0.19761689573161975    0.21611444372886776    0.22354712668916535    
  0.15195426498972706    0.15099147137758098    0.14838059803405462    0.1450603068608814    0.1421800218956587    
  0.14040357774979997    0.13983460071726034    0.14040354243193495    0.1421799888664828    0.14506028807946697    
  0.1483806386682179    0.150991493938807    0.15195426498972706    0.1305561109416806    0.1311871876070455    
  0.13269290971674833    0.135035887753035    0.1378266977937173    0.13983462435639266    0.14053528327746753    
  0.13983464383082464    0.1378266951413637    0.13503590952703892    0.1326929382636694    0.1311872116452412    
  0.1305561109416806    0.15195430131301338    0.15099154800309159    0.14838056835378025    0.14506032094865215    
  0.14218000699198813    0.1404035991345348    0.13983460530772582    0.14040357381516683    0.1421799647506752    
  0.1450603400164101    0.14838065228999978    0.15099147918304512    0.15195430131301338    0.22354718690957473    
  0.2161143726786612    0.19761685348141544    0.17492449207121502    0.15495176643305786    0.1421799716674794    
  0.1378266802444252    0.14218002258896748    0.15495177631587184    0.17492448199628075    0.19761685549987412    
  0.2161144027244875    0.22354718690957473    0.3600221877235488    0.33813483618787643    0.28488612515284395    
  0.22404503044941623    0.17492451986833876    0.145060324573363    0.13503589255185733    0.14506032537935903    
  0.1749245530155195    0.22404506309802327    0.284886224019563    0.3381348010622989    0.3600221877235488    
  0.554295884031977    0.5095200752433434    0.4018301725809021    0.2848861312310228    0.19761694517105202    
  0.14838067775350636    0.13269301165627076    0.14838059166526107    0.1976169484241217    0.2848861301239307    
  0.40183019138875503    0.5095200821043118    0.554295884031977    0.7431151144674536    0.6735040901696693    
  0.5095201233032279    0.3381348236938514    0.21611444622032447    0.1509914628656694    0.13118714411703833    
  0.1509914731801926    0.216114404582821    0.3381347699836958    0.5095201581002874    0.6735041460654021    
  0.7431151144674536    0.8243775619244068    0.7431151184060383    0.5542958607350484    0.3600222117831529    
  0.22354718949841945    0.15195431342363055    0.13055609809625535    0.15195432790156874    0.22354712253057554    
  0.3600222229114512    0.554295817854486    0.7431152649479892    0.8243775619244068    0.7375232463751422    
  0.6859830853036972    0.5446706211223377    0.3721094812945901    0.23827919022064561    0.16510401447358442    
  0.1429525175998839    0.16510401762267188    0.23827912124307568    0.37210948277625705    0.5446705182931181    
  0.6859831979872251    0.7375232463751422    0.6859831639986635    0.6375038172558366    0.5077387943477587    
  0.3522256056999399    0.23173820967541567    0.1649563865254506    0.14445028619705225    0.16495636427742374    
  0.2317381813129531    0.35222560984020246    0.5077387873335156    0.6375038225339904    0.6859831639986635    
  0.5446706321280831    0.5077388157475472    0.4131190183310405    0.3024620846974366    0.2150847931482514    
  0.16438551222390263    0.1481713318288712    0.1643855626423648    0.2150848386889558    0.30246211752606345    
  0.41311902948602863    0.507738890679402    0.5446706321280831    0.3721093992768162    0.352225654917988    
  0.3024621529263401    0.24354486515706028    0.19426144623843344    0.16353738761769118    0.15318499338494646    
  0.16353742095277427    0.1942614179042725    0.243544814787252    0.3024622042584984    0.3522256083372178    
  0.3721093992768162    0.2382791886190966    0.2317381657805298    0.2150848014824145    0.1942614064437675    
  0.17535917436321452    0.16270804475203038    0.15826964724137263    0.1627080800896843    0.17535913312035928    
  0.19426143790904205    0.2150848335166915    0.2317382298688586    0.2382791886190966    0.1651039248974561    
  0.1649563552380372    0.16438552134186904    0.163537398559181    0.16270807708503357    0.16210353998503627    
  0.16191410671434905    0.162103539222831    0.16270808077318133    0.1635373690762625    0.16438554311701598    
  0.16495635245613555    0.1651039248974561    0.14295249654945175    0.1444502626667343    0.14817126418856086    
  0.15318502080129393    0.15826963775365932    0.16191408550356995    0.1632763186522167    0.1619141751412316    
  0.15826957553408327    0.15318506864088588    0.14817123893376216    0.14445028520797873    0.14295249654945175    
  0.165103982253143    0.16495638789423722    0.1643854988318594    0.16353739924478752    0.16270809354334148    
  0.16210357658101157    0.16191411630515734    0.1621035265470411    0.1627080568406539    0.16353743817293265    
  0.16438557144758906    0.16495633223816455    0.165103982253143    0.2382791901591246    0.23173820137335396    
  0.2150848031060773    0.1942614272134649    0.17535914610183584    0.16270805231743302    0.1582696090564465    
  0.16270812514527827    0.1753590975737182    0.19426142621642484    0.21508478382943771    0.23173822503691424    
  0.2382791901591246    0.3721094850864412    0.35222564886448415    0.3024621192485317    0.24354480481841873    
  0.194261417161914    0.1635373976630301    0.1531850351465447    0.16353742523105705    0.19426146077334014    
  0.2435448333766918    0.3024622562614919    0.3522255726558631    0.3721094850864412    0.5446706540011437    
  0.5077387701799025    0.413118980228204    0.30246207764738614    0.21508489736824118    0.1643855367879665    
  0.14817132142722594    0.1643855220249    0.2150848316748739    0.3024621529683024    0.4131190402084814    
  0.5077387496481612    0.5446706540011437    0.6859830558531582    0.6375038134935297    0.5077388208555959    
  0.35222559753807636    0.23173823700646612    0.16495633412297242    0.14445021261960267    0.1649563759561693    
  0.2317382222911046    0.352225606488215    0.5077388805436631    0.6375037584809233    0.6859830558531582    
  0.7375232463751422    0.6859830853036972    0.5446706211223377    0.3721094812945901    0.23827919022064561    
  0.16510401447358442    0.1429525175998839    0.16510401762267188    0.23827912124307568    0.37210948277625705    
  0.5446705182931181    0.6859831979872251    0.7375232463751422    0.44006056686303313    0.46657555642325604    
  0.4780560869299833    0.39622122266015647    0.2811883689721888    0.20523447252048616    0.18094094994288776    
  0.20523453739162115    0.2811883110173634    0.3962212115241445    0.4780560028849534    0.4665756371996908    
  0.44006056686303313    0.4665755711589982    0.4816930298861292    0.4724309153196574    0.3860475103254508    
  0.2782841374437239    0.2078374938582138    0.18517178938536794    0.20783744348078814    0.27828407248358206    
  0.38604758410671286    0.47243087732805783    0.4816930804281608    0.4665755711589982    0.47805608090638974    
  0.4724309149704688    0.4337961278312897    0.3532127628440482    0.2690760702065767    0.21431248174319725    
  0.1963571419027533    0.21431257666376322    0.26907606736644685    0.35321286388002776    0.4337961686338155    
  0.4724309515298576    0.47805608090638974    0.3962210944004352    0.3860475822645813    0.3532128345509923    
  0.3036986358592969    0.25509803255291214    0.22213998933768317    0.21085186312971432    0.22214003699416007    
  0.25509804855177914    0.30369870802269194    0.3532129000630599    0.38604754266957775    0.3962210944004352    
  0.2811884229907039    0.2782840373191597    0.26907607338276257    0.25509806084146164    0.24026834212637824    
  0.2287032928101766    0.2242762669216121    0.228703303938442    0.24026833802758082    0.2550980037483543    
  0.26907605431253456    0.27828415209477175    0.2811884229907039    0.20523444844038669    0.20783745641073664    
  0.2143124731286876    0.22214000327470226    0.22870332603310073    0.2324404778862648    0.23356872330041012    
  0.2324403946617018    0.22870329237262338    0.22213997182016396    0.21431248952887091    0.20783741541404008    
  0.20523444844038669    0.180940938873307    0.1851717792207447    0.1963570882440155    0.21085185231418616    
  0.22427622034902997    0.23356874150255963    0.23699158474969992    0.23356875507152972    0.22427620296770098    
  0.21085196566791076    0.19635708301528015    0.18517179382961224    0.180940938873307    0.20523451846321158    
  0.20783748634013385    0.21431248417590823    0.2221400228457077    0.22870333383337318    0.23244051357639478    
  0.2335687473488837    0.23244040792457976    0.22870329169028925    0.22213999159167697    0.2143125286047625    
  0.20783742228451435    0.20523451846321158    0.2811883812445574    0.2782840882412801    0.2690760895806761    
  0.2550980537355276    0.2402683266866266    0.22870326064626412    0.22427617998470536    0.2287033874907142    
  0.2402683181233933    0.2550980858092471    0.2690760184414129    0.27828412986944606    0.2811883812445574    
  0.3962211802104138    0.38604755533343366    0.3532128184858073    0.3036986327835418    0.2550980343127557    
  0.22214004231552625    0.21085187658239768    0.2221400827945311    0.2550980753784701    0.3036987023501445    
  0.35321290151171936    0.386047529078288    0.3962211802104138    0.47805606680168033    0.47243090476620153    
  0.4337962231121822    0.3532128108549715    0.2690761197534975    0.214312509870227    0.19635710690991148    
  0.2143125284126582    0.26907608602051014    0.35321283916348006    0.4337961365418167    0.4724308451431033    
  0.47805606680168033    0.4665755201762986    0.48169301416599863    0.4724309096483439    0.38604752563663586    
  0.2782841564484845    0.20783742664045188    0.18517170591975957    0.20783744578745939    0.2782841053732624    
  0.3860475352231674    0.47243095139932617    0.48169307654955845    0.4665755201762986    0.44006056686303313    
  0.46657555642325604    0.4780560869299833    0.39622122266015647    0.2811883689721888    0.20523447252048616    
  0.18094094994288776    0.20523453739162115    0.2811883110173634    0.3962212115241445    0.4780560028849534    
  0.4665756371996908    0.44006056686303313    0.14592567113349272    0.20681869650268844    0.35515166246630625    
  0.4171076004721887    0.3467250544681198    0.27013290602603973    0.24294240505551062    0.27013287915012046    
  0.3467249386113284    0.4171076243971034    0.35515161504629766    0.2068187087013242    0.14592567113349272    
  0.20681872661621817    0.26642291164072585    0.39208975768564136    0.4256061066675996    0.3510436594490667    
  0.2779421081267139    0.25218442121811757    0.2779420090776726    0.35104360223626435    0.42560611193742975    
  0.3920897207022679    0.26642290042067923    0.20681872661621817    0.35515160067600177    0.3920897090967869    
  0.44608194498731707    0.4283523280710839    0.35752913676304815    0.2983578448435396    0.27769902490195786    
  0.2983578628924645    0.3575290934482933    0.428352337104372    0.44608195963166297    0.39208973786902274    
  0.35515160067600177    0.41710756535184573    0.42560616187967615    0.42835237006968363    0.40148938089133773    
  0.35827399035035445    0.32322636973966573    0.31047813336045743    0.32322640743650566    0.358273929689712    
  0.4014893567499233    0.4283524111220396    0.42560612911321777    0.41710756535184573    0.34672505555786387    
  0.35104356923516894    0.3575291503889722    0.358273976873529    0.3520393848908637    0.34197340428458295    
  0.3367657983612915    0.34197339662342224    0.3520392712787931    0.3582739856318649    0.35752912806197634    
  0.3510436420866167    0.34672505555786387    0.27013285234451534    0.2779420525062036    0.2983577998849881    
  0.32322638637066137    0.3419734254620736    0.3485128598438067    0.3485670108249706    0.34851277343153225    
  0.34197342957729443    0.32322639663530994    0.2983577778854007    0.277941985854919    0.27013285234451534    
  0.24294247700869984    0.2521844223965841    0.2776989282516459    0.31047820825413924    0.3367657798716689    
  0.3485669998290441    0.35055159950081394    0.3485670280965594    0.33676569680360424    0.31047829016705036    
  0.27769892327828183    0.252184449174562    0.24294247700869984    0.27013290450676924    0.27794205241539943    
  0.2983577738418106    0.3232264022667727    0.3419734475979016    0.348512970293524    0.3485670398189029    
  0.3485128169436534    0.341973439338718    0.3232264003966274    0.2983578638383569    0.27794202779464283    
  0.27013290450676924    0.34672501959824964    0.35104362889637286    0.3575291294097423    0.3582739686366652    
  0.35203929822221863    0.3419734063261261    0.3367657203164633    0.3419734982423783    0.35203927545874164    
  0.358274001260735    0.3575290665937325    0.3510436360182723    0.34672501959824964    0.417107585959232    
  0.4256061470577054    0.4283523526897322    0.401489338568979    0.35827395942169454    0.32322638113879193    
  0.31047821294727795    0.3232264438588547    0.3582740285292173    0.40148937087014075    0.4283524155560609    
  0.4256061877013104    0.417107585959232    0.3551516397978414    0.392089648436915    0.44608197596150384    
  0.4283523257868969    0.3575291665937505    0.2983578591514679    0.27769900499251443    0.29835780431262526    
  0.35752915479157515    0.4283523703188016    0.44608192384790873    0.39208971641909374    0.3551516397978414    
  0.20681867002594492    0.26642293106192916    0.3920897194141009    0.42560614444054123    0.35104361620307206    
  0.2779420059070909    0.25218437621882134    0.2779420496762251    0.3510436961761588    0.42560612153521843    
  0.3920896829261593    0.2664229497621671    0.20681867002594492    0.14592567113349272    0.20681869650268844    
  0.35515166246630625    0.4171076004721887    0.3467250544681198    0.27013290602603973    0.24294240505551062    
  0.27013287915012046    0.3467249386113284    0.4171076243971034    0.35515161504629766    0.2068187087013242    
  0.14592567113349272    0.053749885966220344    0.10402124353084782    0.2865115400688776    0.4461758786291985    
  0.4187994759884221    0.34343294180638023    0.31416131669363945    0.34343297400838246    0.4187994738166766    
  0.4461758672165788    0.286511468255551    0.10402124201468209    0.053749885966220344    0.10402123535909677    
  0.16583525506594132    0.34690472324598226    0.4717914299531786    0.4319509197396626    0.3588021721729904    
  0.33083329974286124    0.35880208351792403    0.4319508174893703    0.4717914141478657    0.34690467892881427    
  0.16583530703051108    0.10402123535909677    0.2865114641281684    0.3469047278856098    0.4689288197040793    
  0.5123889994122521    0.46033130390975274    0.3996109526908119    0.3767613126794418    0.39961098024667246    
  0.460331254747749    0.5123890601718314    0.4689288292311475    0.34690472029540714    0.2865114641281684    
  0.44617581393729017    0.4717914558505742    0.5123889276979536    0.5156741634872088    0.48275285611125246    
  0.4448346631993133    0.42889961561268813    0.4448347011295202    0.4827528506100588    0.5156739956057613    
  0.5123890018138815    0.4717915171507504    0.44617581393729017    0.41879949974999076    0.43195083773319193    
  0.4603312990614218    0.4827528374711774    0.4822618923884539    0.45907156425706747    0.44389874688014286    
  0.4590715542862432    0.48226171594781436    0.4827529342900762    0.46033126154699927    0.4319509610489648    
  0.41879949974999076    0.34343292928886476    0.35880209839395855    0.39961093840478784    0.44483466744615524    
  0.4590715532200935    0.4314935026201956    0.41021303927936126    0.4314934085807013    0.4590715381191147    
  0.4448346361116183    0.39961092283863026    0.3588020765181674    0.34343292928886476    0.3141613327367479    
  0.3308333067227232    0.37676121713542027    0.4288996879329298    0.443898692316897    0.4102130117331159    
  0.38538728232747615    0.41021302601203563    0.443898649149025    0.4288998055829208    0.3767611996266307    
  0.3308333405023763    0.3141613327367479    0.34343294190525175    0.3588021429140469    0.39961095523717705    
  0.44483470193715785    0.45907152754219943    0.4314935213039383    0.4102130550973597    0.4314933825062931    
  0.45907151965241777    0.4448346459830252    0.39961097958915465    0.35880206808972925    0.34343294190525175    
  0.41879947571296045    0.43195087771885143    0.46033126125110246    0.48275283032436944    0.4822618233877895    
  0.4590715200706535    0.4438986186391454    0.4590716444531414    0.48226183415483165    0.48275288017267864    
  0.46033118353621877    0.43195090435127853    0.41879947571296045    0.4461759332887128    0.4717914986009377    
  0.5123889379803872    0.5156739954819809    0.4827528715829348    0.44483463008562485    0.42889967498317283    
  0.44483465682816714    0.48275280413681254    0.5156740592015441    0.5123890395488211    0.47179137131922416    
  0.4461759332887128    0.28651151443729883    0.3469046831532933    0.4689288218883345    0.5123889512521305    
  0.46033140694045305    0.399611011307224    0.37676130629854476    0.39961088607276235    0.4603313806133622    
  0.5123889973198583    0.46892862552823433    0.346904640563035    0.28651151443729883    0.10402119788412784    
  0.16583524040870978    0.3469047016809636    0.4717914055942002    0.4319510031313968    0.35880204239981256    
  0.3308332157359343    0.35880208748447084    0.43195100749368753    0.4717914453938042    0.34690469099540433    
  0.16583527679279889    0.10402119788412784    0.053749885966220344    0.10402124353084782    0.2865115400688776    
  0.4461758786291985    0.4187994759884221    0.34343294180638023    0.31416131669363945    0.34343297400838246    
  0.4187994738166766    0.4461758672165788    0.286511468255551    0.10402124201468209    0.053749885966220344    
  0.07719602251263294    0.135787329678893    0.3297501551976032    0.49025061820688826    0.4658414546716805    
  0.3926109450751    0.3637580265220969    0.3926109859492912    0.4658414787908607    0.49025059286551603    
  0.3297500672315045    0.1357873387816786    0.07719602251263294    0.1357873199966321    0.20423155842836457    
  0.39333889123906157    0.5207955690478002    0.48601692688493575    0.4156541095307373    0.3881773932221651    
  0.4156541029563947    0.48601692354471715    0.5207955390448791    0.3933387946777197    0.20423153560422846    
  0.1357873199966321    0.3297501113944608    0.3933388768948323    0.5227916112493526    0.5772037890115532    
  0.534230509917295    0.4759167070262971    0.4527547886477318    0.4759167242017771    0.5342305572893568    
  0.5772038346602005    0.5227915976796339    0.39333882775568    0.3297501113944608    0.4902505466872901    
  0.5207955003790957    0.5772037738165172    0.5997822366272091    0.5728929438463132    0.5248726794094665    
  0.5012308861025409    0.5248726559090297    0.5728928527353515    0.5997822607163511    0.5772038945746876    
  0.5207955972313806    0.4902505466872901    0.465841500516364    0.4860169208489214    0.5342304814311869    
  0.5728929111402628    0.551949800916405    0.47572299229840626    0.4328317201595326    0.4757228481355988    
  0.5519496753989769    0.572892949134082    0.5342305688266011    0.4860169929760113    0.465841500516364    
  0.3926108586156059    0.4156541103782371    0.47591663408190804    0.524872689221547    0.47572296799407343    
  0.3490232621138422    0.2871578324242397    0.3490232072116443    0.4757229277466353    0.5248726718771886    
  0.47591664494824965    0.415654058257248    0.3926108586156059    0.3637580081928252    0.3881773459555621    
  0.45275469867915596    0.5012308572049178    0.43283162744845766    0.28715783390478816    0.22223838762788461    
  0.2871578797282357    0.43283155376208693    0.5012309563608024    0.45275457412640224    0.38817743862862314    
  0.3637580081928252    0.39261088143021744    0.4156541360147379    0.4759166934526474    0.5248727968602265    
  0.4757229244660854    0.3490233579493052    0.28715784766918095    0.34902318420854794    0.47572289469975226    
  0.52487279925689    0.4759167728994207    0.41565408386781705    0.39261088143021744    0.46584149203093245    
  0.486016917418632    0.5342305073579606    0.5728929221721345    0.551949758192572    0.47572283990664066    
  0.43283162092271754    0.475723006610211    0.5519497042513671    0.5728930143441684    0.5342305681772759    
  0.4860169181775969    0.46584149203093245    0.4902505076638206    0.5207954883159963    0.5772037629427296    
  0.5997822204030678    0.5728928267658655    0.5248727722771334    0.5012308669900227    0.524872709746891    
  0.5728929439185756    0.5997822804821316    0.5772038060709648    0.5207956242573409    0.4902505076638206    
  0.3297501221240741    0.3933388128348183    0.5227917315634896    0.5772037208574662    0.5342307111259295    
  0.475916762255444    0.4527547896985139    0.4759166023895585    0.5342306454654927    0.5772037635872742    
  0.5227916007456129    0.393338853484038    0.3297501221240741    0.1357872846534906    0.20423154191612974    
  0.39333887573410053    0.5207954514355171    0.4860169377791354    0.41565410754029003    0.3881773757469852    
  0.4156540843730878    0.48601711080971405    0.5207954731029255    0.3933388420403477    0.20423158330727145    
  0.1357872846534906    0.07719602251263294    0.135787329678893    0.3297501551976032    0.49025061820688826    
  0.4658414546716805    0.3926109450751    0.3637580265220969    0.3926109859492912    0.4658414787908607    
  0.49025059286551603    0.3297500672315045    0.1357873387816786    0.07719602251263294    0.22223800612965786    
  0.28715826303203484    0.4328310854564185    0.5012314947420556    0.4527541627450567    0.38817786599682685    
  0.3637575150419874    0.3881779665218545    0.4527540873166921    0.5012314170955801    0.4328309775621079    
  0.28715833559397497    0.22223800612965786    0.2871583319055675    0.3490227191692245    0.47572349913511414    
  0.5248721444419444    0.4759172876356134    0.4156535825802526    0.3926114855431344    0.41565360395827927    
  0.47591716751485263    0.5248721794919965    0.475723308125204    0.3490227627672225    0.2871583319055675    
  0.43283103160595193    0.47572346557642836    0.5519490922328416    0.5728934914681761    0.5342299359272128    
  0.4860174797945763    0.46584101516975096    0.48601761911744595    0.5342299637051444    0.5728935194799465    
  0.5519491584422984    0.475723453030483    0.43283103160595193    0.5012313930782207    0.5248721446058678    
  0.5728934475524491    0.5997817288894927    0.5772043703827034    0.520794928081931    0.4902511143409233    
  0.5207948754487086    0.5772043557166052    0.5997816501555275    0.5728935294722987    0.5248721993044864    
  0.5012313930782207    0.4527540842425792    0.4759172071070625    0.5342299769899578    0.5772044080406217    
  0.5227912358559139    0.39333939636806353    0.3297497320655068    0.3933393891461598    0.5227911319885498    
  0.5772044772529233    0.5342299309629788    0.47591726940701673    0.4527540842425792    0.38817783263051614    
  0.41565355468580867    0.4860174244584084    0.5207948710413021    0.39333943374962793    0.20423117230631077    
  0.13578768141486194    0.20423111731182322    0.39333939757771164    0.520794841700895    0.48601746934205736    
  0.41565357187474655    0.38817783263051614    0.36375749261803364    0.3926114459869302    0.4658408967634157    
  0.49025120668508476    0.3297496253911572    0.13578766152627977    0.07719572248806172    0.13578770270665422    
  0.32974958630166984    0.49025123326827535    0.4658408307409063    0.39261157311922057    0.36375749261803364    
  0.388177841967261    0.41565359108643746    0.4860174761990037    0.5207949570432435    0.3933394005287173    
  0.20423118245648594    0.1357876713359388    0.2042310882933371    0.393339393754488    0.5207949071453369    
  0.4860175771056138    0.41565359652932105    0.388177841967261    0.4527540994919076    0.4759171054338611    
  0.5342299986172137    0.5772044106199689    0.5227911392625464    0.39333938138764235    0.32974965974105164    
  0.3933395126676873    0.5227911179643853    0.577204461728723    0.534230002553807    0.47591728232704406    
  0.4527540994919076    0.5012314801399349    0.5248722118380775    0.5728934296851681    0.5997816040364456    
  0.5772043764714203    0.5207950053969153    0.4902511611499504    0.5207948317904763    0.5772044155289782    
  0.599781651150682    0.5728936016126593    0.5248722921664659    0.5012314801399349    0.43283104477700446    
  0.4757233166819634    0.5519491153344492    0.5728934060157859    0.5342301218684953    0.48601755624792586    
  0.46584102647684006    0.48601749230654373    0.5342300983516007    0.5728934538748968    0.5519490210105985    
  0.47572348432902056    0.43283104477700446    0.28715824789974487    0.3490227201766311    0.4757234534162407    
  0.5248721809800795    0.47591726325620354    0.4156535559177683    0.39261144867970155    0.41565357719015483    
  0.47591728682373424    0.5248721465621742    0.47572344916446674    0.3490227946624444    0.28715824789974487    
  0.22223800612965786    0.28715826303203484    0.4328310854564185    0.5012314947420556    0.4527541627450567    
  0.38817786599682685    0.3637575150419874    0.3881779665218545    0.4527540873166921    0.5012314170955801    
  0.4328309775621079    0.28715833559397497    0.22223800612965786    0.38538789447797706    0.4102125044112694    
  0.44389920262346655    0.42889922788135576    0.37676182090548543    0.33083278088109574    0.31416177962910113    
  0.33083283558329196    0.37676180312327073    0.4288992197464979    0.44389911664377457    0.41021254188202466    
  0.38538789447797706    0.41021256484303126    0.43149392105288537    0.4590709594564038    0.44483522698149147    
  0.3996104566334709    0.3588026326595119    0.343432468440395    0.3588025811449088    0.3996103263290325    
  0.4448352041795741    0.45907090929664784    0.43149405849597566    0.41021256484303126    0.443899147597276    
  0.45907096936722847    0.48226234447111616    0.4827522724102603    0.4603318771205569    0.4319503656951064    
  0.418800087172659    0.4319504269635903    0.4603318248506362    0.4827523623546506    0.48226236319449073    
  0.45907101177906295    0.443899147597276    0.4288990695771665    0.4448352409229144    0.48275218934260994    
  0.5156747094919916    0.5123884449028372    0.47179192415770066    0.4461752090509643    0.4717919782764605    
  0.5123883869498539    0.5156746311125875    0.4827524121004439    0.4448352859262803    0.4288990695771665    
  0.3767617722306234    0.39961033888851494    0.460331774869465    0.5123883599588802    0.46892954017157346    
  0.3469042322972944    0.2865120702321873    0.34690424671873754    0.4689292975696    0.5123884775305099    
  0.46033181187902655    0.39961043965391657    0.3767617722306234    0.33083278154525986    0.35880255870635364    
  0.4319503448234506    0.4717919654979103    0.34690423373149604    0.1658356528707763    0.10402089471273362    
  0.1658356006394849    0.346904212863024    0.47179192089828564    0.4319503956884346    0.3588025801170753    