#     DFTpy    
  CRYSTAL 
    
  PRIMVEC    
  5.804482758620689    0.0    0.0    
  0.0    5.804482758620689    0.0    
  0.0    0.0    5.804482758620689    
  PRIMCOORD    
  8    1    
  Si    0.0    0.0    0.0    
  Si    1.4511206896551723    1.4511206896551723    1.4511206896551723    
  Si    0.0    2.9022413793103445    2.9022413793103445    
  Si    1.4511206896551723    4.353362068965517    4.353362068965517    
  Si    2.9022413793103445    0.0    2.9022413793103445    
  Si    4.353362068965517    1.4511206896551723    4.353362068965517    
  Si    2.9022413793103445    2.9022413793103445    0.0    
  Si    4.353362068965517    4.353362068965517    1.4511206896551723    
  BEGIN_BLOCK_DATAGRID_3D    
  3d_datagrid_density    
  BEGIN_DATAGRID_3D#0    
  25    25    25    
  0.0    0.0    0.0    
  5.804482758620689    0.0    0.0    
  0.0    5.804482758620689    0.0    
  0.0    0.0    5.804482758620689    
  0.06772237307225216    0.12333735318060887    0.3035390279600491    0.4112131847598685    0.31443029405318795    
  0.18741127868237048    0.10874736367181188    0.06798815953791032    0.04758048713306119    0.03728587429076368    
  0.032028090062016054    0.029563880612021597    0.028825633060613174    0.02956382314120314    0.03202821448323226    
  0.03728569441317376    0.04758076246945714    0.06798774298312903    0.10874797908526955    0.18741048613052708    
  0.3144312809084976    0.41121217143940747    0.3035397305075916    0.12333709667100884    0.06772237307225216    
  0.12333726182969158    0.1867668001685918    0.35074110376194234    0.4121119529692085    0.3041515071269446    
  0.18324242816546488    0.10863508129463967    0.0692041148452006    0.04899292271339615    0.03851556040254521    
  0.03300522278673403    0.03036645088793061    0.029563864323573517    0.030366498756237592    0.03300514956950331    
  0.03851572324163251    0.0489926481404617    0.06920448439926251    0.10863452615415753    0.1832432494034099    
  0.30415056844408844    0.4121128809297459    0.3507404742229054    0.18676711781667776    0.12333726182969158    
  0.30353913872585    0.3507411598824144    0.42197021249263494    0.38723071488864264    0.27273794212984936    
  0.17174083086693018    0.10853333355858505    0.07291223384106257    0.0533057808859616    0.04233323506848307    
  0.03614393232338738    0.03300523368556092    0.032028081970280606    0.03300518429195602    0.03614402804017912    
  0.042333080271429555    0.05330603498454294    0.07291185711435047    0.10853385341848863    0.17174011893441515    
  0.2727388457912143    0.38722980293818066    0.42197096346535096    0.3507407582239585    0.30353913872585    
  0.4112131093163937    0.4121120614947178    0.3872307969319095    0.31463326099215166    0.22652086127718027    
  0.1557772950522922    0.10855121303018826    0.07900967042635947    0.06080176766304899    0.04937498652744893    
  0.042333244508427535    0.038515542137751796    0.03728590739396409    0.03851554870061985    0.04233316428076195    
  0.0493751420928896    0.06080153388450772    0.07901003200786634    0.10855068950492544    0.15577800110300802    
  0.22652009855573377    0.3146340057206961    0.3872301746586491    0.4121122897760741    0.4112131093163937    
  0.3144302130656691    0.3041516438658255    0.2727378130050595    0.22652090772379496    0.17869347315386844    
  0.13852230133066545    0.10853315171753372    0.08714377658027626    0.07182860403913392    0.06080179746097791    
  0.05330573657454515    0.04899301345742337    0.04758041105104725    0.04899291832850698    0.053305845661959624    
  0.06080164295186136    0.07182885565315503    0.08714342957836987    0.10853366232456237    0.13852175732495153    
  0.17869415117142445    0.22652017652250755    0.27273837864390826    0.3041513219465497    0.3144302130656691    
  0.18741130468684802    0.18324231209733238    0.17174100099244813    0.1557771776726323    0.1385223480554238    
  0.12238976994370139    0.10863538260108316    0.09703469818819588    0.08714380256085122    0.0790096367957688    
  0.07291229408347885    0.06920409072317146    0.06798823842371933    0.06920405704699165    0.07291224226005949    
  0.07900977941258232    0.08714354490278473    0.09703505102481394    0.10863489276315137    0.12239030009385402    
  0.13852178228585113    0.15577761815554014    0.17174062010013671    0.18324250917733642    0.18741130468684802    
  0.10874722184434893    0.10863531639405963    0.10853315947707885    0.10855137764053745    0.10853309392138633    
  0.108635421601393    0.10874707643851955    0.10863532889029998    0.108533219774307    0.10855118657151545    
  0.10853330834590519    0.1086351592817059    0.10874728896573972    0.10863513291570498    0.10853340585075259    
  0.10855104718159615    0.10853348910847814    0.10863500134111671    0.10874745922805103    0.10863496018996655    
  0.10853357420060607    0.10855094621186315    0.10853349460621024    0.1086351264916223    0.10874722184434893    
  0.06798826935963018    0.06920397858663065    0.07291239770524367    0.07900950431941182    0.08714386300416684    
  0.09703462981330682    0.10863533857959326    0.12238989951459513    0.1385221557170276    0.15577743417341597    
  0.17174071659737006    0.18324248535118254    0.18741125816392293    0.18324246583396273    0.1717407249892038    
  0.15577752959595914    0.13852192259928983    0.12239019875163694    0.10863494789499613    0.09703510957551875    
  0.08714348858812748    0.07900984052342098    0.07291216764315743    0.06920410473434879    0.06798826935963018    
  0.04758038734590522    0.04899303838298219    0.05330562470773259    0.060801886351338374    0.07182852728335884    
  0.08714377465218531    0.10853328503321515    0.13852212297707403    0.17869377293558072    0.22652061070702958    
  0.2727381642559812    0.30415140903944826    0.31443037531728557    0.3041513133386052    0.2727382890498385    
  0.22652044050601708    0.17869402120621225    0.13852184033466955    0.10853357794436042    0.0871434421169044    
  0.07182887163546693    0.06080155959900676    0.05330585805307068    0.048992931446313503    0.04758038734590522    
  0.037285901847040726    0.03851549767287588    0.042333309109712766    0.049374944606369556    0.06080181493868783    
  0.07900967907407495    0.10855112880280142    0.15577755761324327    0.22652056855403044    0.3146336741412919    
  0.38723035351750357    0.4121123191786477    0.41121299102692455    0.4121122831884623    0.3872303468936909    
  0.3146337865898198    0.22652029970762308    0.15577783333379716    0.10855079688741602    0.07901004557421476    
  0.06080149523345739    0.04937515180307047    0.04233315275714962    0.03851557328144054    0.037285901847040726    
  0.03202806993292741    0.03300529470660071    0.03614387455573055    0.04233330702724635    0.0533057271544766    
  0.07291220055849318    0.10853346203502338    0.17174060501621    0.2727383218497871    0.38723022802358814    
  0.4219705980163521    0.35074086496874546    0.3035392565337662    0.35074083365236375    0.4219707889617128    
  0.3872300526037736    0.27273859418230223    0.17174027851315507    0.10853377175884994    0.0729118985307121    
  0.05330603893383164    0.04233302459664236    0.03614406373962879    0.033005196425952996    0.03202806993292741    
  0.02956386537898824    0.03036642766520644    0.033005254539281804    0.038515503554371805    0.0489929265900523    
  0.06920415062139644    0.10863498108906416    0.1832427049879441    0.304151063232389    0.41211242933420167    
  0.35074075002578914    0.18676696909436352    0.12333717161032215    0.18676699174150457    0.3507406861569813    
  0.41211255660073    0.30415084777571955    0.183243015132295    0.10863460183663129    0.06920450606575537    
  0.04899263713123768    0.03851572999764964    0.03300510691098946    0.03036650439062128    0.02956386537898824    
  0.028825604644419675    0.029563917223577613    0.032028062537668975    0.037285932522623265    0.04758048003154398    
  0.06798811821686417    0.10874748574179868    0.18741104115703114    0.3144306754058948    0.4112127471449122    
  0.30353941109115096    0.12333720929630133    0.067722400257655    0.12333719239432205    0.30353943625515095    
  0.411212535120361    0.3144309696484958    0.18741067185820773    0.1087478752879572    0.06798780743519658    
  0.04758075878711006    0.037285647323272046    0.032028224258881126    0.02956382650565026    0.028825604644419675    
  0.029563848600238838    0.030366438759379426    0.033005273573319054    0.03851551641592869    0.04899290209954042    
  0.06920415412191437    0.10863497667455314    0.18324270019545147    0.3041510840705734    0.41211238867034383    
  0.35074069713494    0.1867670278603914    0.1233371698600886    0.18676701525868952    0.3507406601933093    
  0.41211260011385714    0.30415076412330805    0.1832430588198884    0.10863455535260114    0.06920452670713947    
  0.04899263357784291    0.03851576692341664    0.03300508634977566    0.030366523760935182    0.029563848600238838    
  0.032028100454200195    0.0330052599494628    0.036143908823424116    0.04233327806370974    0.053305753115769426    
  0.07291220116558424    0.10853350869101488    0.17174060034756658    0.2727383752116032    0.38723018328028225    
  0.4219707208236689    0.350740842806018    0.3035392740293195    0.35074075420301876    0.4219708060502021    
  0.38722990206176344    0.27273869351124747    0.1717402015523688    0.1085338577093447    0.07291182522077756    
  0.05330610722950157    0.04233299524712542    0.03614408349699881    0.03300517209808225    0.032028100454200195    
  0.03728585622522623    0.038515533060455895    0.042333272164489934    0.04937495761479063    0.060801771265529214    
  0.07900968508667033    0.1085510977226964    0.15577756796844058    0.22652050371695515    0.3146336817376014    
  0.38723039428116574    0.4121123345768619    0.4112129069914022    0.41211238214660156    0.3872301741181494    
  0.3146339627728788    0.22652021003780168    0.15577794371923342    0.10855065389711498    0.07901012967611121    
  0.06080140923121563    0.04937527303898855    0.04233306508074094    0.038515653642423035    0.03728585622522623    
  0.047580468443564054    0.04899297009431166    0.05330569658310487    0.06080180900627322    0.07182856732789493    
  0.08714374353040194    0.10853329533949346    0.13852210236674148    0.1786938042684896    0.22652055406650506    
  0.2727382154981537    0.304151328743391    0.3144303961800727    0.3041512462623993    0.27273841502870283    
  0.22652024855277264    0.17869413082082355    0.13852166295026352    0.10853374502597267    0.08714328908318013    
  0.07182899323737382    0.06080146374631503    0.05330594913630447    0.0489928501682273    0.047580468443564054    
  0.06798812281134183    0.06920408464109162    0.07291233059474703    0.07900961709011983    0.08714378284667586    
  0.09703471732525815    0.10863525775574108    0.12238993537754807    0.13852215408318277    0.1557774292444906    
  0.17174070907224814    0.1832425615628473    0.1874111719035913    0.18324260607389267    0.17174055955571949    
  0.15577767608958595    0.13852178082057245    0.1223903635619086    0.10863477877404557    0.09703525282839026    
  0.08714331566444433    0.07901001654064373    0.07291202864257747    0.06920423034323867    0.06798812281134183    
  0.10874737316366534    0.1086351690053376    0.10853324968055297    0.10855127019091568    0.10853316469709329    
  0.10863533827424    0.10874711011083037    0.10863527066449902    0.10853329648396248    0.108551131390561    
  0.10853336392673328    0.10863510022807488    0.10874736962021332    0.10863499159361574    0.10853351812395781    
  0.10855090700135062    0.1085336338760465    0.1086348371152808    0.10874766394829372    0.10863475209957932    
  0.1085337245412731    0.10855075965983518    0.10853365603457994    0.10863494058054878    0.10874737316366534    
  0.18741113478837643    0.183242441541867    0.17174087229724078    0.15577726051475801    0.13852224406677296    
  0.1223898435119552    0.10863527794105486    0.09703477564655695    0.08714373571268959    0.07900969693532377    
  0.07291221241235173    0.06920412601066314    0.06798814532148868    0.06920416825752035    0.07291213670759604    
  0.07900991136623664    0.08714337038232545    0.0970352007760383    0.1086347220244967    0.12239053410466472    
  0.13852158791842673    0.15577787879316993    0.1717403742156803    0.18324268294155993    0.18741113478837643    
  0.3144304694476903    0.30415142421163116    0.27273800862482317    0.22652077325132614    0.178693596707058    
  0.13852219618354897    0.10853323336781437    0.0871437304267351    0.07182865322755426    0.060801718888503574    
  0.053305776545083686    0.048992938516838794    0.04758048094699127    0.04899285128124969    0.05330591628091372    
  0.06080152897764928    0.07182896367145045    0.08714327863893517    0.1085338059017273    0.13852154882343304    
  0.17869433622095493    0.22651997865791162    0.2727386789690496    0.30415105983527885    0.3144304694476903    
  0.4112128696117891    0.41211220871413873    0.3872305604514462    0.3146334132647808    0.22652078337364898    
  0.15577738939150654    0.10855117958216853    0.07900974336797759    0.060801728424330154    0.04937501818356011    
  0.042333235338890426    0.03851557508946779    0.03728584806610987    0.03851563410006589    0.04233310498381467    
  0.049375200825683835    0.060801431045170815    0.07901015169107525    0.10855057418697413    0.15577817845608607    
  0.22651984489768018    0.31463429445691077    0.38722989528746554    0.4121125576476401    0.4112128696117891    
  0.3035393242633115    0.3507410155820433    0.42197032207902063    0.38723061950212867    0.2727380610353017    
  0.17174077666143617    0.10853339166062298    0.07291221235194582    0.05330581292002945    0.042333212985360115    
  0.0361439634490342    0.033005211929326116    0.03202810820153412    0.03300517679766182    0.0361440903235479    
  0.042333013295230565    0.05330610028797918    0.07291175122449307    0.10853397772155855    0.17173998980808844    
  0.27273901832493513    0.3872295652226622    0.42197118351154594    0.35074058504431477    0.3035393242633115    
  0.12333717019529729    0.18676686148281038    0.3507410099669984    0.412112061657846    0.3041514205423989    
  0.18324248198275395    0.10863503835191166    0.06920412803858107    0.04899291862278449    0.03851555544458878    
  0.03300520382586563    0.030366475333688994    0.029563847460781046    0.030366526160102263    0.033005120705444375    
  0.0385157382578272    0.04899264863864469    0.06920455310446726    0.10863444837163405    0.1832433417209795    
  0.30415036182335703    0.4121129659210582    0.35074039187104156    0.18676717703424572    0.12333717019529729    
  0.06772237307225216    0.12333735318060887    0.3035390279600491    0.4112131847598685    0.31443029405318795    
  0.18741127868237048    0.10874736367181188    0.06798815953791032    0.04758048713306119    0.03728587429076368    
  0.032028090062016054    0.029563880612021597    0.028825633060613174    0.02956382314120314    0.03202821448323226    
  0.03728569441317376    0.04758076246945714    0.06798774298312903    0.10874797908526955    0.18741048613052708    
  0.3144312809084976    0.41121217143940747    0.3035397305075916    0.12333709667100884    0.06772237307225216    
  0.1233371411555456    0.1867669179003511    0.35074093378236126    0.41211205868463957    0.30415135768307494    
  0.1832425722286103    0.1086350238971785    0.06920416915691648    0.048992885423273264    0.03851561720781562    
  0.033005188100204516    0.0303665067714533    0.029563816791325238    0.03036653210702761    0.03300507882253029    
  0.03851576713418275    0.04899259392861815    0.06920456840922559    0.10863444144194188    0.18324337570996038    
  0.30415028545851935    0.41211302598797545    0.35074029658537326    0.18676723108487597    0.1233371411555456    
  0.18676698085645632    0.25751637184919923    0.4052773634497521    0.43429179659039335    0.3187234698302642    
  0.19857507302333016    0.12239013868750402    0.08010434969447668    0.057046142996426255    0.044113011505004844    
  0.036631588122153926    0.03243313397089361    0.030366493585028152    0.030077233845295658    0.0316809044938708    
  0.03600188605781829    0.04481315674468967    0.062340965047458015    0.09703547453907799    0.16308992486722865    
  0.27247817394523816    0.3844238854047873    0.36903452520815294    0.24304729355467683    0.18676698085645632    
  0.3507407834004648    0.40527734569382545    0.46740978676753314    0.4257602705297713    0.3115609443670297    
  0.20796728402734338    0.1385220327304724    0.09587390518683847    0.06989335769428563    0.05355830873438827    
  0.043100413781749    0.03663157385764739    0.03300518719805678    0.031680832129189575    0.03252074312554463    
  0.03608417422460423    0.04369747816430623    0.058579443627669356    0.0871431421356083    0.1396971186739149    
  0.22689212068522496    0.3348781506896247    0.39414659175425837    0.36903427449855847    0.3507407834004648    
  0.41211217383480475    0.43429182630040647    0.4257601937602965    0.3662557677418953    0.2841628137129638    
  0.21098668100129092    0.15577740989300864    0.11627313227874853    0.08813376088964472    0.06784936006550482    
  0.05355827980231757    0.04411305329634565    0.038515559607666464    0.03600204178876726    0.036084083372649414    
  0.03895268835406907    0.04538560175022293    0.05738977645085589    0.07901007770237495    0.1162726557432489    
  0.17577043459703393    0.256044677823862    0.3348779035328715    0.3844245590006716    0.41211217383480475    
  0.3041513479659371    0.3187233576234053    0.3115611766311162    0.2841627529236956    0.2468635047201442    
  0.2079670803054391    0.17174092057193172    0.13969639106366383    0.11169359685314464    0.08813373510480418    
  0.06989338706612493    0.057046110619424176    0.04899291620154943    0.044812872528564786    0.0436976595071339    
  0.0453854918442989    0.05005443183572803    0.05857926492090664    0.07291197781715686    0.09587417744947231    
  0.13017358489591963    0.1757701682233139    0.22689253430359657    0.27247746741474405    0.3041513479659371    
  0.18324240259085303    0.19857524309250896    0.2079670820808215    0.21098686360372884    0.20796704430837423    
  0.19857546332370882    0.18324219909287598    0.16309083842770428    0.13969642733847323    0.11627314412771166    
  0.09587382164340652    0.08010439981404116    0.06920408566608456    0.06234137835223896    0.05857914528789776    
  0.057389960970207744    0.05857918582360338    0.06234128523178624    0.06920420302856399    0.08010420886022677    
  0.09587405702667673    0.11627281344181399    0.13969672613979495    0.1630905779228251    0.18324240259085303    
  0.10863509627923601    0.12238997029197801    0.1385221997113203    0.1557772077610177    0.17174105956942173    
  0.18324214177319897    0.18741152973229028    0.18324225998290153    0.1717408397882909    0.15577742335023523    
  0.13852203535768617    0.12239008336046638    0.10863507813490565    0.09703492365768009    0.08714360982045839    
  0.07900976342791546    0.07291217205731325    0.06920417606899582    0.06798808619071733    0.06920424276652981    
  0.07291208131375358    0.07900986041708308    0.08714353127915773    0.09703498269054703    0.10863509627923601    
  0.06920405942355778    0.08010449457618832    0.0958737046425904    0.11627328625157127    0.139696255195208    
  0.16309089044986388    0.18324226481304254    0.1985752551132216    0.2079672467415252    0.21098657122149347    
  0.20796733531404127    0.1985751079204143    0.18324252187102594    0.16309058412601277    0.1396966082771295    
  0.11627298209012354    0.09587396886418469    0.08010427742309154    0.06920421022995082    0.06234129778580762    
  0.058579265323163106    0.057389875353040964    0.05857919613237514    0.062341364911748645    0.06920405942355778    
  0.04899293117379549    0.05704605400400143    0.06989347409934007    0.08813362987709594    0.11169361654660181    
  0.13969637829536924    0.17174082262686455    0.20796730323108717    0.24686318292940992    0.28416307346481734    
  0.31156075771307157    0.318723558836607    0.30415130891999953    0.27247735625378605    0.22689270430076253    
  0.17577005631337914    0.13017369659543818    0.09587407433866861    0.07291202342213868    0.05857931468588406    
  0.050054359272319625    0.045385549074615485    0.043697626557870496    0.04481290115016645    0.04899293117379549    
  0.038515526188686935    0.0441131076017706    0.05355822292304807    0.06784945371224994    0.08813369786020751    
  0.116273086661521    0.15577752258056565    0.21098643261902006    0.28416321100187125    0.36625540293409586    
  0.42576055273831    0.4342916810203382    0.41211223412806586    0.3844246502664106    0.3348776954393147    
  0.25604493244742615    0.17577023157437646    0.11627281443471585    0.0790100304527836    0.057389799260440265    
  0.04538562646323674    0.03895265833875914    0.03608414570206845    0.03600201771454563    0.038515526188686935    
  0.03300520220802587    0.03663156600294028    0.043100467259996215    0.05355828491486996    0.06989336608642013    
  0.09587390862545352    0.1385218888515822    0.20796757459237186    0.3115605732420014    0.42576069666489763    
  0.4674093711619256    0.40527770647577693    0.3507406642320996    0.3690341273925193    0.39414685174860803    
  0.334877811476583    0.22689238166975567    0.1396969383101177    0.0871432308194629    0.058579446246636725    
  0.04369744219703243    0.03608419654151039    0.032520691245984626    0.03168085947045953    0.03300520220802587    
  0.030366488344738724    0.032433137227888306    0.036631542415004915    0.04411303570656828    0.05704611637154292    
  0.08010427977483461    0.12239026538777936    0.19857484000559758    0.31872381897440283    0.4342913365238915    
  0.40527772922224425    0.25751611341036673    0.1867670131198787    0.24304734740292325    0.36903425938390144    
  0.3844242648036038    0.272477891040113    0.1630901169352919    0.09703533330679914    0.06234103174581553    
  0.04481318137374369    0.036001839205725625    0.031680943292173046    0.030077219793331358    0.030366488344738724    
  0.029563807115949005    0.03036648628652615    0.033005204983875394    0.03851558120533835    0.04899286850991284    
  0.06920422547073386    0.10863487426010458    0.18324281778264778    0.3041510368407229    0.41211257202799106    
  0.35074068436480943    0.1867670846158142    0.12333715997610957    0.18676708010706453    0.3507405653677596    
  0.4121126682834504    0.304150729020604    0.18324310965043789    0.10863454810778042    0.06920456546949474    
  0.04899261511691954    0.03851579110314319    0.033005066078252536    0.03036657275564923    0.029563807115949005    
  0.030366490893784508    0.030077282294186686    0.03168078015400936    0.036002075308728745    0.04481290108074893    
  0.062341307963688    0.0970350692139682    0.163090398636648    0.2724776692976394    0.38442443110421753    
  0.36903414947985835    0.24304741413209446    0.18676700016847506    0.25751611130210245    0.40527787907806423    
  0.4342910520719288    0.3187241491519055    0.19857448880524062    0.12239061223877908    0.08010392772599258    
  0.05704647370467582    0.044112762189449296    0.036631745953314324    0.03243302847722232    0.030366490893784508    
  0.03300514806652695    0.03168081397078894    0.03252082903245286    0.036083997157614525    0.04369769246761458    
  0.05857914230799254    0.087143542387853    0.13969667977932684    0.2268925633871414    0.3348777013378991    
  0.39414683301112136    0.3690341469859851    0.35074073412700485    0.4052777531577537    0.4674092649173881    
  0.42576084915458606    0.31156029381152023    0.20796796408668358    0.13852142450774282    0.09587435979733461    
  0.06989299129893918    0.05355856239870693    0.04310022539864281    0.03663169233245208    0.03300514806652695    
  0.0385155953868962    0.036002087134206016    0.0360839841409882    0.03895285395845056    0.04538539497887715    
  0.057390016056598936    0.0790097576563873    0.11627303596491854    0.17576999977258825    0.2560450663113737    
  0.3348776419462717    0.3844246866114328    0.41211231919864916    0.43429147827121434    0.4257608010253493    
  0.36625511367350094    0.2841636223484275    0.21098598083559744    0.15577804399191125    0.11627261948205361    
  0.08813418517045449    0.06784906002093172    0.0535585108765967    0.0441129221188312    0.0385155953868962    
  0.04899286876835887    0.04481288974012631    0.043697743876191214    0.0453853436433385    0.050054632066493535    
  0.05857901544787686    0.07291231160711094    0.09587383973752524    0.13017389278070918    0.17576996658008073    
  0.22689271837825659    0.2724774072060185    0.3041511656561023    0.31872369314566007    0.31156066379234726    
  0.2841633765601213    0.2468627995577147    0.20796777329007246    0.1717402154682869    0.13969700753134753    
  0.11169308338552282    0.0881340963531896    0.06989316504676889    0.05704621663582184    0.04899286876835887    
  0.06920416167191833    0.06234143019465015    0.05857904548400943    0.05739012389791395    0.058578953798275005    
  0.06234156504195875    0.06920395499114873    0.08010448953285783    0.09587382107222389    0.11627307982962877    
  0.13969655325927544    0.1630906194396877    0.18324255511024068    0.19857494211649143    0.20796757746359504    
  0.21098622113008472    0.2079677150618701    0.19857470289034648    0.18324292724227637    0.16309017517885774    
  0.13969693326491833    0.11627269692223642    0.09587414290739642    0.08010420347026932    0.06920416167191833    
  0.10863496440038774    0.09703492801304073    0.08714370729487214    0.07900962433716353    0.07291241668029474    
  0.06920391366905454    0.06798836911333929    0.06920396469652418    0.0729123159129035    0.07900968688805571    
  0.08714361431574907    0.0970349782535766    0.10863500518385252    0.12239017490608133    0.1385218488597022    
  0.1557777316311773    0.1717404199679706    0.1832428459662153    0.18741080208143204    0.18324299523435222    
  0.1717402302495503    0.155777891076093    0.138521685255506    0.12239030705234362    0.10863496440038774    
  0.18324259379643937    0.16309063371061408    0.13969642675397814    0.1162732049048789    0.09587367142926306    
  0.08010455501371065    0.06920393526963213    0.06234152703907515    0.058579041327783965    0.05739004787162902    
  0.05857910674892049    0.06234139248324415    0.06920413995367056    0.08010424424981484    0.09587405704201642    
  0.1162728274428559    0.13969681736972162    0.16309022274861326    0.18324296576235907    0.1985745538851701    
  0.20796792549616996    0.21098598144164246    0.2079677929573681    0.19857478722467709    0.18324259379643937    
  0.3041511505076253    0.27247738159606427    0.22689290934290468    0.17576974605222423    0.13017403520914486    
  0.09587371967308353    0.07291234420671494    0.05857904189148545    0.05005458838371799    0.04538539535104069    
  0.043697691492463366    0.04481291863165688    0.04899287751647936    0.05704617932186006    0.06989323490345087    
  0.08813400397117933    0.11169316644074039    0.1396969633475363    0.1717401257002056    0.2079680015658461    
  0.24686245618538127    0.28416368332560293    0.31156032424083685    0.3187239150992964    0.3041511505076253    
  0.4121123746512647    0.3844248103279811    0.3348773979471546    0.25604540121274605    0.17576983741826036    
  0.11627316206233526    0.07900971116816721    0.05739004578327663    0.04538543161279047    0.038952795775169545    
  0.0360840284699557    0.036002070271431624    0.03851559469854642    0.04411297081697632    0.05355847472043537    
  0.06784911710124315    0.08813416601167595    0.11627253106873219    0.15577816650392906    0.2109857907539438    
  0.28416388576809987    0.36625470075173977    0.4257610840583633    0.434291215176503    0.4121123746512647    
  0.3507406669739031    0.3690340150945876    0.39414708827506245    0.3348774394989294    0.22689286691868943    
  0.13969647624856996    0.08714360920988867    0.058579148965015176    0.043697672048995176    0.03608404856376446    
  0.03252078164886838    0.03168083134878566    0.03300515289317951    0.03663163656203    0.043100301022095756    
  0.053558537548973405    0.06989301150182418    0.09587437798670691    0.13852131560688588    0.2079682430126685    
  0.3115599341803039    0.42576128392636775    0.4674088709178805    0.4052778543380489    0.3507406669739031    
  0.18676700894477    0.2430475506956036    0.3690338378937237    0.38442486256939185    0.27247727738685423    
  0.1630905946405662    0.09703497748360775    0.06234132745454976    0.04481295156982566    0.036002008508921504    
  0.03168080085539519    0.030077263521837865    0.03036650464736392    0.032433058120633886    0.036631712374685425    
  0.0441128103351422    0.057046465898475215    0.08010385448645155    0.12239073459330542    0.19857421273022993    
  0.31872442649796245    0.4342906411655813    0.40527821175651774    0.257515954613486    0.18676700894477    
  0.1233371411555456    0.1867669179003511    0.35074093378236126    0.41211205868463957    0.30415135768307494    
  0.1832425722286103    0.1086350238971785    0.06920416915691648    0.048992885423273264    0.03851561720781562    
  0.033005188100204516    0.0303665067714533    0.029563816791325238    0.03036653210702761    0.03300507882253029    