#     DFTpy    
  CRYSTAL 
    
  PRIMVEC    
  5.141724137931034    0.0    0.0    
  0.0    5.141724137931034    0.0    
  0.0    0.0    2.832758620689655    
  PRIMCOORD    
  4    1    
  Si    0.0    0.0    0.0    
  Si    2.570862068965517    2.570862068965517    1.4163793103448274    
  Si    0.0    2.570862068965517    0.7081896551724137    
  Si    2.570862068965517    0.0    2.1245689655172413    
  BEGIN_BLOCK_DATAGRID_3D    
  3d_datagrid_density    
  BEGIN_DATAGRID_3D#0    
  23    23    13    
  0.0    0.0    0.0    
  5.141724137931034    0.0    0.0    
  0.0    5.141724137931034    0.0    
  0.0    0.0    2.832758620689655    
  0.05783953282272096    0.103672279416832    0.2631512039803046    0.40326103569730776    0.3763140210091762    
  0.30208422234939664    0.2684928008882011    0.28322268911617204    0.3303667308464431    0.3747947419128544    
  0.3871336685344268    0.384325884937963    0.3871336060526733    0.374794853842692    0.33036673359973123    
  0.28322269560763425    0.2684928058484274    0.30208422019827275    0.3763140971581919    0.4032610589680035    
  0.2631511742860233    0.10367228629468367    0.05783953282272096    0.10367229093501822    0.15632881980384888    
  0.3051429029665371    0.40192610515728244    0.3558009676541309    0.28276491347193466    0.2511356717271203    
  0.2648655455582722    0.31039207303139627    0.35800756590125304    0.37892698139008874    0.38095034633112473    
  0.3789269949971042    0.35800752666744384    0.31039205442122975    0.26486551292994476    0.25113563569867625    
  0.28276489514453124    0.3558010138190941    0.4019260838010751    0.30514296277458747    0.15632881785215974    
  0.10367229093501822    0.26315114980982185    0.3051429805476753    0.37881496915473006    0.37499562708009726    
  0.3000648887933167    0.23438980535062576    0.2081317369562635    0.21923677546041317    0.25853287199086883    
  0.3068972903394078    0.340189187164826    0.35053053680310303    0.340189169496359    0.3068973159006264    
  0.25853286000474585    0.2192367475094938    0.20813172955799716    0.23438981215542984    0.3000648822868648    
  0.3749956426754788    0.37881496430278266    0.3051429230513518    0.26315114980982185    0.403261029991151    
  0.4019260497716924    0.3749956274216411    0.3062755857141323    0.2296630978609011    0.17834224649183153    
  0.15870994837889493    0.16659983618210303    0.1960756520382872    0.23581934242879377    0.2690438675435536    
  0.281862236389731    0.2690438744984259    0.23581937076672918    0.19607564140277423    0.16659982277756766    
  0.15870995458236267    0.17834225601287348    0.229663127254008    0.30627563245035266    0.3749956637343948    
  0.401926089550839    0.403261029991151    0.3763140449392579    0.35580097945920125    0.300064880292489    
  0.22966311035702164    0.16979405475947779    0.13268421928289353    0.11841536818174496    0.12353821913303588    
  0.14379735365065904    0.1719609720846665    0.19695471052406224    0.2070907426388103    0.19695471877270884    
  0.17196094677570825    0.14379735096514262    0.12353820818323402    0.11841535265468613    0.13268422606116703    
  0.16979404592036307    0.2296631283632895    0.3000648752052479    0.3558009763193198    0.3763140449392579    
  0.30208419136637005    0.2827649282224945    0.23438980354151528    0.1783422386276103    0.13268421820821336    
  0.10450009819326721    0.0934320489397841    0.09666858107796712    0.11078005521952972    0.13072476384776113    
  0.14849814256403826    0.15562983458787233    0.1484981307132564    0.13072474761252564    0.11078007121222644    
  0.09666855473728342    0.09343204028712157    0.10450010859761785    0.13268420985980875    0.17834225077554886    
  0.23438980616718175    0.28276489997365994    0.30208419136637005    0.2684928043269883    0.25113568817905185    
  0.20813174178251898    0.15870994388541876    0.1184153652319056    0.09343205824557141    0.08335614916197596    
  0.08547180155020122    0.09676052267840811    0.11308102542517469    0.12764476754833437    0.13343658743095124    
  0.1276447672881238    0.11308102438980105    0.09676051784770799    0.08547177597350479    0.08335613973607928    
  0.09343206196868857    0.11841534181559621    0.15870997016648017    0.2081317348758655    0.2511356714215531    
  0.2684928043269883    0.2832227118186588    0.26486552246770106    0.21923677753452595    0.16659984833844432    
  0.12353820909828162    0.09666857974661165    0.08547178298182682    0.08708681434696698    0.09841066328464411    
  0.11499999698172847    0.1298984623025658    0.13591573999368678    0.12989847355988554    0.11500001095707102    
  0.09841063859462186    0.08708680892206559    0.08547177575843538    0.09666856985089159    0.12353822784979718    
  0.16659981438075855    0.21923674720829506    0.26486548795588427    0.2832227118186588    0.33036669780109346    
  0.31039204476841964    0.2585328606841393    0.19607563818243054    0.14379734482505396    0.11078006045355955    
  0.09676052001400542    0.09841064977325191    0.11207040916714688    0.1321238948789023    0.15022431078909318    
  0.1576493371817824    0.15022430230459263    0.13212388152778556    0.11207041863100939    0.09841064311658583    
  0.09676050587514363    0.11078006680105142    0.14379735559947174    0.19607564284537893    0.2585328296343232    
  0.31039208074494384    0.33036669780109346    0.3747948052589413    0.358007554605805    0.30689724769710525    
  0.23581941095408737    0.17196093896638925    0.13072476179004575    0.11308102882720746    0.11500000897788856    
  0.13212390354854467    0.157605987716345    0.18078077615879862    0.19033280994821622    0.18078080242860176    
  0.15760600672375935    0.13212389583674564    0.11500000370742638    0.11308102410059791    0.1307247594890685    
  0.17196095126359934    0.2358194091290006    0.30689728940196925    0.3580075191009535    0.3747948052589413    
  0.3871336101939122    0.37892702697497205    0.3401892046515148    0.26904388853127664    0.1969547434139642    
  0.1484981468157927    0.12764478251042594    0.12989847414296304    0.1502243170334869    0.18078081082266348    
  0.2086542846948928    0.22012657670231323    0.20865423149761528    0.1807808191242432    0.15022428561200318    
  0.12989847173815253    0.1276447652901806    0.14849814237460723    0.19695473601603375    0.26904388141956936    
  0.34018924848184257    0.3789269999212652    0.3871336101939122    0.3843258570380482    0.3809503704343066    
  0.35053055504053154    0.2818622558310923    0.20709072743337786    0.15562981889709537    0.13343659388329485    
  0.13591572294207782    0.15764933353139984    0.19033276368638752    0.22012658129717647    0.23237747951744406    
  0.22012653917318914    0.1903328315631482    0.15764935518931766    0.13591573533038304    0.13343659287365317    
  0.15562983203210368    0.20709078470403766    0.2818622157058173    0.35053055068144706    0.38095029970335065    
  0.3843258570380482    0.38713362970559856    0.378927014548505    0.3401892193016035    0.2690438672722941    
  0.19695476847421411    0.1484981392280423    0.12764479403711862    0.12989848064279186    0.1502243114471259    
  0.18078079366684155    0.20865428537375016    0.22012654430569867    0.20865422564423455    0.18078079394440066    
  0.15022430759027328    0.1298984583831888    0.12764477141435182    0.14849812476938523    0.1969547363683837    
  0.2690438773614262    0.3401892852708205    0.37892698150894155    0.38713362970559856    0.37479481281256793    
  0.35800755907891674    0.3068972325418311    0.23581942438379336    0.1719609377385246    0.13072476304115796    
  0.11308103836520422    0.11500001771729187    0.1321238944925311    0.15760597063266127    0.18078079122787286    
  0.19033281888841502    0.1807807894969008    0.1576059757544762    0.13212391093779532    0.1149999878255642    
  0.1130810401386271    0.13072476797827404    0.17196096405446934    0.2358193906608836    0.3068973305265892    
  0.35800753852026307    0.37479481281256793    0.3303666850612932    0.31039203963330436    0.2585328526223727    
  0.19607562166267858    0.14379734700442942    0.11078005838480248    0.09676050525347808    0.09841063723081593    
  0.11207041759594942    0.13212387334958994    0.15022430316612703    0.15764933958694372    0.1502242785835044    
  0.13212387311668927    0.11207043411370632    0.09841064059908028    0.09676051055592767    0.11078006343360733    
  0.14379734861339644    0.19607564634861385    0.2585328234246409    0.31039207838276667    0.3303666850612932    
  0.28322269286798657    0.2648654919534388    0.2192367498653745    0.1665998233257335    0.1235382154581678    
  0.09666857771752871    0.08547178445720559    0.0870868112954121    0.0984106545769613    0.11500001167017011    
  0.1298984423805301    0.1359157390700237    0.1298984404332659    0.11500000041552313    0.09841064756866683    
  0.08708679508060281    0.0854717712012282    0.0966685719285693    0.12353823277735586    0.1665998207264237    
  0.2192367502947844    0.2648654853984039    0.28322269286798657    0.26849280422525595    0.2511356603345285    
  0.20813172498620494    0.1587099456701625    0.1184153749262114    0.09343205624124425    0.08335614181356558    
  0.08547179791441563    0.09676051636517717    0.11308102709857347    0.1276447962528249    0.13343659879471712    
  0.127644784514992    0.11308101859377036    0.0967605135736885    0.08547177507854692    0.08335614116049993    
  0.09343206169783526    0.11841535472047898    0.15870997822445063    0.20813170815471357    0.2511356276558239    
  0.26849280422525595    0.3020841731816055    0.2827649267890494    0.23438977573611877    0.1783422416701767    
  0.13268421586912896    0.10450010111978711    0.09343204144078966    0.09666858774117768    0.11078005754229764    
  0.130724746049195    0.1484981149528741    0.1556298576497897    0.14849811906700158    0.13072473895232847    
  0.11078006171230653    0.0966685656395913    0.09343203277201372    0.10450011312009541    0.13268420845337978    
  0.17834225358051917    0.2343897866070436    0.2827649063108016    0.3020841731816055    0.37631407996131666    
  0.35580097402031846    0.30006490048026524    0.2296631317865678    0.16979404190591818    0.1326842177134738    
  0.11841537460362442    0.12353820801561834    0.14379735169436628    0.17196093796495548    0.1969547173082636    
  0.2070907313291526    0.196954717924685    0.17196093793073602    0.14379736017809996    0.12353821675567328    
  0.11841535574778712    0.1326842172267783    0.16979406443189773    0.22966311221264876    0.30006486874102895    
  0.3558009684388523    0.37631407996131666    0.40326101451837765    0.40192605711868246    0.37499563625674837    
  0.3062755676637116    0.2296631287906787    0.17834223565291082    0.15870993931412278    0.1665998365708022    
  0.1960756444184181    0.23581937680133053    0.2690438494752271    0.28186220801685496    0.2690438954229367    
  0.23581936393529856    0.1960756311943267    0.16659982083620464    0.15870993801072497    0.1783422606261729    
  0.22966314569631135    0.3062755908972462    0.3749956501942056    0.40192608405357966    0.40326101451837765    
  0.2631511767117792    0.30514295469891317    0.37881494192014337    0.3749956488522131    0.3000648907940599    
  0.23438979433549745    0.20813176163495484    0.2192367363145782    0.258532866499096    0.3068972977913805    
  0.34018921064520197    0.3505305402420368    0.3401892044761404    0.30689731554621186    0.2585328637129449    
  0.21923676287583257    0.2081317464261323    0.23438981886893143    0.30006489628228833    0.3749956492341917    
  0.3788149951600878    0.30514291333517424    0.2631511767117792    0.10367229025932051    0.15632883663140942    
  0.3051429059109142    0.4019260825725569    0.35580097129213306    0.2827648972990756    0.2511356253640434    
  0.26486555405530765    0.31039203048679137    0.3580075364351108    0.37892701009616697    0.38095033204931483    
  0.37892696354662625    0.3580075441939482    0.31039203024011175    0.2648655426358317    0.25113563334874955    
  0.2827648690960968    0.3558010050560719    0.4019260606189784    0.30514295413117715    0.15632882274713764    
  0.10367229025932051    0.05783953282272096    0.103672279416832    0.2631512039803046    0.40326103569730776    
  0.3763140210091762    0.30208422234939664    0.2684928008882011    0.28322268911617204    0.3303667308464431    
  0.3747947419128544    0.3871336685344268    0.384325884937963    0.3871336060526733    0.374794853842692    
  0.33036673359973123    0.28322269560763425    0.2684928058484274    0.30208422019827275    0.3763140971581919    
  0.4032610589680035    0.2631511742860233    0.10367228629468367    0.05783953282272096    0.10380900720983506    
  0.15539027048731024    0.29889153227879506    0.38674559179580303    0.33311667389687494    0.2535923733575877    
  0.21316369031491983    0.21324416865813414    0.24386597651954708    0.28921006584943815    0.32697178853745995    
  0.3410948193088043    0.3269717367161192    0.289210157052633    0.24386596353540332    0.21324417173602397    
  0.21316368989590254    0.2535923790123799    0.33311675150368386    0.3867455886275237    0.29889154337347273    
  0.15539022744977307    0.10380900720983506    0.15742784402517482    0.2098219175105381    0.3326964989141287    
  0.3822698096701748    0.31567619716875667    0.23854704095836587    0.20059013736118073    0.20058462337783575    
  0.22924007886784514    0.2722160132719625    0.3085600807675198    0.32235945683327155    0.3085600319955219    
  0.2722159604879645    0.22924008437017507    0.20058460987375945    0.2005901223260637    0.23854707860187438    
  0.31567620109084804    0.38226975464932034    0.33269657432074473    0.20982190894206088    0.15742784402517482    
  0.3112469332104903    0.3424601186293039    0.38464088193571955    0.35294222217081245    0.2691793811849177    
  0.20101779197019673    0.1693990829405338    0.1692241010042854    0.19271809237956075    0.22860481075713446    
  0.2600204258159335    0.272387746003083    0.26002040195495724    0.22860485395234023    0.19271805231298525    
  0.1692241020672235    0.16939907499290255    0.2010178073535463    0.2691793891274684    0.35294222699777594    
  0.38464092359840196    0.34246010185065434    0.3112469332104903    0.41869979639003313    0.4099051500061793    
  0.36841620675225595    0.2908000806382988    0.21132268972128304    0.15773579056017278    0.13361498034369068    
  0.133239718703067    0.1504943210523831    0.1770193701025425    0.2009960664946112    0.2107794744752102    
  0.20099604703732168    0.17701939876581868    0.15049430492169139    0.1332397249667896    0.13361496194956615    
  0.1577358174233466    0.21132272591395163    0.290800091716339    0.36841623027831527    0.40990515443397463    
  0.41869979639003313    0.3853142367988744    0.3621165955216271    0.30092539938121393    0.22600385349294116    
  0.16298734406032978    0.12293633941913931    0.10485079327340908    0.10423860485205237    0.11633578594425048    
  0.13508682069147357    0.15231956229238328    0.15943324009974824    0.15231956638480215    0.13508680794596364    
  0.11633579139564448    0.10423860606775148    0.10485079278709972    0.12293634996666936    0.1629873390265564    
  0.22600384764826875    0.3009253882088956    0.36211657488990123    0.3853142367988744    0.3256646022742458    
  0.30379528054936733    0.24923523033415243    0.18639575835663613    0.13529065878855817    0.10299408214758804    
  0.08827918477313393    0.08743471369375808    0.09645638302223396    0.11073222304396867    0.12390503945996793    
  0.12927898365380133    0.12390505382565013    0.11073223095542029    0.09645638214867548    0.08743469093272162    
  0.08827917344348118    0.10299408247611362    0.13529063269164632    0.18639576815573522    0.24923520760080473    
  0.30379525736884533    0.3256646022742458    0.3123897487053852    0.2912629813464655    0.23886657428605776    
  0.17875426645460052    0.1298498124498695    0.09889215003838354    0.08467494858458327    0.08352915018717094    
  0.0916355413634997    0.10473065316378974    0.11685219618204995    0.12177598201149874    0.11685218084832434    
  0.10473062590510315    0.0916355530813371    0.08352912894502897    0.08467493942373669    0.09889215096786483    
  0.1298498155778615    0.17875426722365143    0.23886660072948415    0.2912629824581447    0.3123897487053852    
  0.35018481926362166    0.32737859290102367    0.2695693625299581    0.20157636267275558    0.14536383188455965    
  0.10957791014328531    0.09302528856684651    0.09150370719909608    0.10077380020330609    0.11574861505155212    
  0.12958866782868875    0.1352740744084753    0.12958866962488755    0.11574861859199245    0.10077380784038377    
  0.09150370218649984    0.09302528234829528    0.10957792631488489    0.14536385155751558    0.20157630267262688    
  0.2695693795416258    0.32737857006526394    0.35018481926362166    0.4014948779888656    0.38264401181318697    
  0.32648000733863647    0.24886132593776947    0.17871474676422647    0.13271807671789776    0.11138237541531863    
  0.10945378425030253    0.12168254962534983    0.14140947115839028    0.15954652986343998    0.1670248164291683    
  0.15954649769379556    0.14140946471625432    0.12168254876705953    0.10945377826003623    0.11138236861468125    
  0.13271804495813427    0.17871474657430603    0.2488613471935533    0.3264799908026904    0.38264406528678857    
  0.4014948779888656    0.3867190535185501    0.38989723956281147    0.3703155287452611    0.3026375711409005    
  0.22096915886927174    0.1627490273415382    0.13537981695822984    0.13292326644312602    0.14897465278614416    
  0.17523634220083728    0.19939975285137362    0.2093038766711731    0.1993997868190896    0.17523636410644045    
  0.14897464317497952    0.13292326912090302    0.13537981291673848    0.16274903356142015    0.2209691670641246    
  0.30263753744877375    0.3703156016589109    0.389897185909174    0.3867190535185501    0.3039485698770977    
  0.3336628711448981    0.3723841806369497    0.33926054200863953    0.256637724365591    0.18901214568710217    
  0.1563847487967312    0.15352173076373413    0.17297842388204934    0.20509798880413793    0.23470206012056447    
  0.24678196301780814    0.23470203479599774    0.2050979951069615    0.17297840279848808    0.15352172296067948    
  0.1563847434750013    0.18901214998018667    0.25663775062018873    0.3392605348181103    0.3723841989440293    
  0.33366285289077546    0.3039485698770977    0.2599840711453138    0.2988866496930048    0.3634903009572782    
  0.3507726242014875    0.2706268849667063    0.19953908992255254    0.16475396980985188    0.16180434223872744    
  0.18272697325803033    0.21723857914915196    0.24905347584669754    0.2620317848227581    0.24905345099668075    
  0.21723865293573638    0.18272697260675644    0.16180436575353307    0.16475395761991357    0.19953911660557924    
  0.27062695758372624    0.3507725892739956    0.36349031869667825    0.2988865944188565    0.2599840711453138    
  0.3039486081244676    0.3336628927570789    0.3723841650639648    0.3392605430546116    0.2566377497862194    
  0.18901214370745506    0.15638475643158709    0.15352172309054954    0.1729784364482911    0.20509797540310823    
  0.23470205624160156    0.24678194136155504    0.23470201419428272    0.2050979688357902    0.1729784152308599    
  0.15352171005916557    0.15638473931501218    0.18901214538451697    0.2566377309106717    0.33926053967413256    
  0.37238424421860233    0.33366282569398814    0.3039486081244676    0.3867190500769497    0.389897205497303    
  0.3703155680161948    0.3026375434612553    0.22096913965220802    0.1627490219685323    0.13537982171903382    
  0.13292327319491395    0.14897465234750543    0.17523632326201405    0.1993997991792084    0.20930386941400717    
  0.19939977559279276    0.1752363355815782    0.14897464896072896    0.13292326875692073    0.13537981963143209    
  0.16274901669533132    0.22096919220669606    0.30263755952193433    0.37031559439573974    0.3898971993325465    
  0.3867190500769497    0.40149487139358503    0.38264404328943186    0.3264799970158861    0.2488613099603429    
  0.17871472416369724    0.13271807378346315    0.11138238421615411    0.1094537773020771    0.12168253592617498    
  0.14140944289243867    0.15954651945926263    0.16702480491903182    0.1595464857894885    0.1414094807115478    
  0.12168252710042328    0.10945378999307918    0.11138237904666394    0.1327180804348763    0.17871474887902983    
  0.24886135243355717    0.32647996165914195    0.3826440576551023    0.40149487139358503    0.35018480226367543    
  0.32737859914446427    0.2695693688453399    0.2015763415078315    0.145363856204235    0.10957791079479931    
  0.09302529078699245    0.09150371606428553    0.10077380212340242    0.11574862393587482    0.12958863803706566    
  0.13527407748464323    0.12958864365667694    0.11574860699065948    0.10077378688028443    0.09150370607829827    
  0.0930252795307268    0.10957792664543937    0.1453638362649932    0.20157631946166388    0.2695693552877519    
  0.3273786026798232    0.35018480226367543    0.3123897399336468    0.2912629939027536    0.23886658403448272    
  0.17875424213992103    0.12984981247596664    0.09889213878283308    0.08467494453878975    0.08352915574186502    
  0.09163554829479711    0.10473063783251194    0.11685221161377565    0.1217759805041356    0.11685219519735172    
  0.10473064557144245    0.0916355475306665    0.08352913286373034    0.0846749441146357    0.09889215404285892    
  0.1298498082256098    0.17875428011660607    0.23886658005582873    0.29126293451951685    0.3123897399336468    
  0.3256645946432563    0.3037953179322221    0.24923520371765803    0.18639575512925965    0.13529067610891166    
  0.10299408391683224    0.08827919315672918    0.08743470169377136    0.09645637686045609    0.1107322127111487    
  0.12390507096438634    0.12927897213370884    0.1239050259608391    0.11073222544389508    0.09645637981657541    
  0.08743469538929242    0.08827917451297924    0.10299407936843787    0.1352906472949538    0.1863957670836751    
  0.24923521443705135    0.303795277115332    0.3256645946432563    0.3853142051255066    0.3621166380127872    
  0.30092538079369724    0.22600387208470762    0.16298730329300612    0.12293633684403209    0.10485079748832912    
  0.10423860733735231    0.1163357877791717    0.1350867998643577    0.15231957583681396    0.15943323685812444    
  0.15231956418659398    0.13508681657580873    0.11633577962911164    0.1042385911070798    0.10485079149082448    
  0.12293632715318273    0.16298733199940485    0.22600384957989664    0.3009253850768782    0.3621165843008393    
  0.3853142051255066    0.41869982115345544    0.40990511594113993    0.36841622102855837    0.29080006817238846    
  0.21132274914078658    0.15773578641060576    0.1336149699248103    0.13323974105984027    0.15049430560851618    
  0.17701938001767928    0.20099606408153306    0.21077945426269784    0.20099606291539943    0.177019387447755    
  0.1504943002237377    0.13323973302542275    0.13361495493715192    0.1577358102097658    0.21132274813394314    
  0.2908001035282272    0.36841622917842354    0.4099051519557818    0.41869982115345544    0.3112469696028338    
  0.34246011052231695    0.38464086877811643    0.3529422393596569    0.26917935465054155    0.20101779753050422    
  0.16939908250681873    0.1692240811319333    0.19271805232648156    0.22860479605658648    0.26002043148388887    
  0.27238776020622696    0.2600204028506155    0.22860482398604712    0.1927180446726814    0.16922405996404222    
  0.16939910284560325    0.2010177855872949    0.2691793941677541    0.35294224538745256    0.38464089838587645    
  0.3424600976032669    0.3112469696028338    0.15742785062126483    0.2098219350927859    0.3326965196857953    
  0.38226979552570395    0.31567618831498906    0.23854704484770303    0.20059013910504836    0.2005846296944466    
  0.22924008068205826    0.27221598321800766    0.30856006796549224    0.3223594529824773    0.30856003923842773    
  0.2722159806789643    0.229240092939681    0.2005846073572478    0.2005901136102601    0.2385470116815661    
  0.3156762039092278    0.3822697938669023    0.33269657541293485    0.20982190926472338    0.15742785062126483    
  0.10380900720983506    0.15539027048731024    0.29889153227879506    0.38674559179580303    0.33311667389687494    
  0.2535923733575877    0.21316369031491983    0.21324416865813414    0.24386597651954708    0.28921006584943815    
  0.32697178853745995    0.3410948193088043    0.3269717367161192    0.289210157052633    0.24386596353540332    
  0.21324417173602397    0.21316368989590254    0.2535923790123799    0.33311675150368386    0.3867455886275237    
  0.29889154337347273    0.15539022744977307    0.10380900720983506    0.25998404558999044    0.298886645759908    
  0.36349030101560215    0.3507725584022395    0.27062690537719347    0.1995391009024225    0.16475396602366393    
  0.1618043550157143    0.18272697380913433    0.21723857268946814    0.24905348430259674    0.26203178112176917    
  0.2490534446681041    0.21723865806636491    0.18272696158504087    0.16180436303806514    0.16475394501148688    
  0.19953911691756865    0.27062695296828515    0.35077260526667636    0.36349028790213245    0.29888665049025875    
  0.25998404558999044    0.30394860593320056    0.33366285881485236    0.372384162538324    0.33926057371081164    
  0.25663771524102597    0.1890121357136139    0.15638475816013175    0.15352174075806072    0.1729784106846784    
  0.20509799587949953    0.23470208297891204    0.24678196092884017    0.2347020569363776    0.20509796228693178    
  0.1729784115139779    0.15352170921136835    0.1563847489675411    0.18901213243897763    0.2566377517367195    
  0.3392604950746618    0.37238425663659    0.3336628320239242    0.30394860593320056    0.3867189927908858    
  0.38989722553085243    0.3703155466010074    0.30263752975326125    0.2209691524833429    0.16274901564555047    
  0.13537980307221836    0.13292328464616482    0.14897467549478294    0.17523633038051875    0.1993997533839689    
  0.20930387081097918    0.19939974893137097    0.1752363665088119    0.14897462851742993    0.1329232909690602    
  0.13537979883594295    0.16274902139975783    0.22096916289182844    0.30263753329078696    0.37031557116796593    
  0.38989720734838956    0.3867189927908858    0.40149484496670385    0.38264402234427747    0.32647995030894233    
  0.24886133758754642    0.17871472920841136    0.13271806160608812    0.1113823750188704    0.10945377854120283    
  0.121682577447656    0.1414094369884209    0.15954653098355798    0.16702481745756328    0.159546506548032    
  0.14140945052618525    0.12168254975952321    0.10945376898360462    0.11138237687552204    0.13271808144304462    
  0.17871473528648124    0.2488613347528116    0.3264799914268179    0.38264402829181055    0.40149484496670385    
  0.35018479080086484    0.3273785831100789    0.269569358661567    0.20157631339476081    0.1453638560771603    
  0.10957791562053301    0.093025278141668    0.09150371211567788    0.10077379617411227    0.1157486229617237    
  0.1295886460144534    0.1352740878815717    0.12958864444513274    0.11574861982050266    0.1007737971905205    
  0.09150370751231812    0.09302528217554325    0.10957791648910188    0.1453638627106067    0.2015763216204219    
  0.26956933397449595    0.32737860131629154    0.35018479080086484    0.31238971097336604    0.2912629826905934    
  0.23886661225541037    0.17875425742784165    0.129849828696788    0.09889215171540652    0.08467494996735551    
  0.08352914895426466    0.09163553132742072    0.10473065639767824    0.11685218941062712    0.12177597361830647    
  0.11685220437088509    0.10473064473273572    0.09163555228965543    0.08352913369243713    0.08467494753102617    
  0.09889214616558152    0.12984980471718785    0.1787542673786238    0.23886659052253625    0.2912629466074837    
  0.31238971097336604    0.32566460771380173    0.3037952898167786    0.2492351985818719    0.1863957652880801    
  0.1352906570203409    0.10299408889747964    0.0882791867494186    0.08743472460398524    0.09645638758675552    
  0.11073224150918477    0.12390504461736668    0.12927897021844695    0.12390503856890796    0.11073223332825173    
  0.0964563879969286    0.08743469840573358    0.08827917560625456    0.10299408720251232    0.1352906518791761    
  0.18639575883032164    0.2492352188813602    0.3037952641888735    0.32566460771380173    0.3853142203883316    
  0.36211663565881264    0.30092540276352114    0.22600389333220094    0.16298729714112895    0.12293631996985704    
  0.10485079819292029    0.10423860381757141    0.1163357831289592    0.13508678654928039    0.15231958267835874    
  0.15943324676705048    0.15231957348488462    0.13508680119203448    0.1163357797107656    0.10423860740742327    
  0.10485077484265971    0.12293634370425897    0.16298733602899187    0.22600387044800763    0.30092538105159605    
  0.36211656236723394    0.3853142203883316    0.4186998252342764    0.4099051138843484    0.36841624161289765    
  0.2908000682804438    0.2113227284195222    0.1577357971709439    0.13361497044728385    0.13323973340781822    
  0.15049430532312522    0.17701939573417239    0.20099605842588722    0.21077947249396936    0.20099605602299522    
  0.17701939878390335    0.15049429577620818    0.13323971271485766    0.13361495788049538    0.15773579942374188    