#     DFTpy    
  CRYSTAL 
    
  PRIMVEC    
  3.5967678924347535    1.5047544011687587e-05    -3.772696551724138e-13    
  -1.7983709146612408    3.114899980211365    -7.381465517241379e-12    
  -6.203737931034484e-13    -1.4372811724137929e-11    5.913645274364656    
  PRIMCOORD    
  4    1    
  Si    8.953738076580109e-06    2.076604855535126    3.32567934317299    
  Si    1.7983880240312216    1.038310172194772    0.3688566623229258    
  Si    8.953739427862971e-06    2.076604855534269    5.544788568371098    
  Si    1.7983880240370582    1.0383101722178412    2.587965974846782    
  BEGIN_BLOCK_DATAGRID_3D    
  3d_datagrid_density    
  BEGIN_DATAGRID_3D#0    
  17    17    27    
  0.0    0.0    0.0    
  3.5967678924347535    1.5047544011687587e-05    -3.772696551724138e-13    
  -1.7983709146612408    3.114899980211365    -7.381465517241379e-12    
  -6.203737931034484e-13    -1.4372811724137929e-11    5.913645274364656    
  0.06090465257478394    0.06712119623219032    0.0885563198782531    0.1328662185151398    0.2106491732790319    
  0.32938042370881093    0.4765973300687607    0.6072128020112344    0.66081209059308    0.607212791062104    
  0.476597334564451    0.32938040324261936    0.21064918807859306    0.13286623260793717    0.08855630818089748    
  0.06712120933991854    0.06090465257478394    0.06712119813461345    0.06712405985294777    0.08094081608081076    
  0.11387900027256193    0.1754843458632905    0.2753791332691814    0.41061541837593124    0.5489243132543586    
  0.637541551445013    0.6375152234000756    0.5488840037289601    0.41063773293452965    0.2754038469616803    
  0.17546641956287032    0.11387872378062903    0.08094487525542764    0.06712119813461345    0.08855630546737174    
  0.08094080047795946    0.08855639523374713    0.11388452035388866    0.1643781524002911    0.24933906899611788    
  0.36698560016194526    0.485923042469226    0.5611526364812035    0.5831024926257712    0.5612025402416327    
  0.48592449384074643    0.36694049221085295    0.2493378918777838    0.16439867519238835    0.11387870746712914    
  0.08855630546737174    0.13286622303692874    0.11387900338401805    0.11388453514292794    0.13285535620557834    
  0.17549048411741788    0.24933085950680736    0.35118486693467404    0.44090546731292907    0.46275428859586737    
  0.43863486155511916    0.4386222173591627    0.46273597221370993    0.44094322220817805    0.3511822892093148    
  0.24933788711204397    0.17546638988303548    0.13286622303692874    0.21064921436336123    0.17548434445913955    
  0.16437815230034875    0.17549045553726417    0.21063431317065373    0.2754045057201387    0.3669594730198881    
  0.44093339729580444    0.4178950905390503    0.3232194409386565    0.2758763019810971    0.3232130234898354    
  0.4178855995701843    0.4409432166029958    0.36694048368808185    0.2754038229063137    0.21064921436336123    
  0.329380399431456    0.27537914877923414    0.24933906432306138    0.2493307322677418    0.27540450400131283    
  0.3293868819891437    0.4106208133601577    0.48595146497765973    0.4627562492514096    0.32320549976344326    
  0.21258807615514605    0.21260200575709928    0.32321294033514975    0.46273603108650035    0.4859245441865559    
  0.41063769732103245    0.329380399431456    0.4765973072417463    0.41061540109989    0.36698559953753046    
  0.35118482038085846    0.3669593595180104    0.41062085481956356    0.47662961882828603    0.5488988496730813    
  0.5611929486101949    0.43860306476325395    0.2759127131607687    0.21258805368895817    0.2758763083931194    
  0.4386222557368674    0.5612025388366045    0.548883989757434    0.4765973072417463    0.6072128682488174    
  0.5489242179781406    0.48592314577698464    0.4409054266850337    0.44093335352824825    0.48595148187717285    
  0.5488988689790936    0.6072325903780142    0.6375535829909384    0.5831282119857792    0.43860318889864036    
  0.3232055472218039    0.32321949620615426    0.4386348877830792    0.5831025550749936    0.6375151862928283    
  0.6072128682488174    0.6608122132570947    0.637541574395937    0.5611526829285917    0.4627542397617599    
  0.4178950987951654    0.46275633546352796    0.5611929788334675    0.6375535560383668    0.6608237993925778    
  0.6375535831129966    0.5611930096705028    0.4627562314852042    0.4178951358904245    0.4627543715839563    
  0.5611526933816662    0.6375415689588504    0.6608122132570947    0.6072128688111749    0.637515197217542    
  0.5831026902691205    0.4386349290251853    0.3232194860668244    0.32320553017086906    0.43860321575099687    
  0.5831282641874488    0.6375535372973014    0.6072326371405936    0.5488988912173822    0.4859514418341665    
  0.4409333936484411    0.4409054431884191    0.4859230630521047    0.5489242901574632    0.6072128688111749    
  0.4765973726572584    0.5488839165572215    0.5612025664155452    0.4386222413739531    0.2758763433336649    
  0.21258809485433833    0.27591279950643477    0.4386031756217135    0.5611928252300558    0.548898850046579    
  0.4766295845344825    0.4106207595127674    0.36695940343756706    0.35118484536787115    0.36698561597747903    
  0.4106154065217249    0.4765973726572584    0.3293804236991687    0.41063769334889566    0.4859245991647382    
  0.4627359000855873    0.323212925504025    0.21260209380891334    0.21258810509635073    0.32320553471247593    
  0.4627562989198428    0.48595132557693504    0.41062074810214905    0.32938687425437413    0.27540450896236957    
  0.24933079483388015    0.24933899672887452    0.27537910905762325    0.3293804236991687    0.2106492120912094    
  0.27540381882181897    0.36694047848653677    0.440943242298157    0.41788558497752687    0.3232129336846246    
  0.2758763733429639    0.3232195187189655    0.4178950928732361    0.4409332776450785    0.3669593852311485    
  0.27540448322973005    0.2106343165890055    0.1754904876047399    0.1643782190148382    0.1754843313837154    
  0.2106492120912094    0.13286622739360696    0.17546641065180885    0.24933794799476522    0.3511822948513594    
  0.4409432338147912    0.462736135416283    0.4386223298491348    0.4386349075080149    0.4627542453557145    
  0.4409054684206084    0.3511848278525131    0.24933076979608476    0.17549048164340122    0.1328554096017061    
  0.11388452436862072    0.11387899920115602    0.13286622739360696    0.08855629822874565    0.1138787085293709    
  0.16439865569442252    0.2493379178656971    0.36694042972910523    0.48592459852095593    0.5612025597926347    
  0.5831026344019294    0.5611526761766886    0.4859229912277598    0.3669856170164238    0.24933901307018638    
  0.1643781761855449    0.11388451168880133    0.08855638921908528    0.08094079312878356    0.08855629822874565    
  0.06712119588096517    0.08094487249512596    0.11387874047919709    0.1754663942182282    0.27540382659701657    
  0.4106377674555211    0.5488839304618791    0.6375152621098028    0.6375413776053623    0.5489243220865259    
  0.41061541365684295    0.2753791321020017    0.17548436178399182    0.11387901757142646    0.08094079918866737    
  0.06712403341596378    0.06712119588096517    0.06090465257478394    0.06712119623219032    0.0885563198782531    
  0.1328662185151398    0.2106491732790319    0.32938042370881093    0.4765973300687607    0.6072128020112344    
  0.66081209059308    0.607212791062104    0.476597334564451    0.32938040324261936    0.21064918807859306    
  0.13286623260793717    0.08855630818089748    0.06712120933991854    0.06090465257478394    0.05984433699278153    
  0.06577963466384612    0.08610248546246474    0.12779611700161717    0.20057579935174666    0.31074226001696426    
  0.44571925333207363    0.5641493313461996    0.6124704560454269    0.5641343845047168    0.4457347378569481    
  0.3107557578549953    0.2005541159263674    0.12779970490523648    0.08610622305032502    0.06577958008237482    
  0.05984433699278153    0.06577958442828448    0.06578262445549883    0.07967690030166319    0.11264713626512653    
  0.17424573818614922    0.2736352324060591    0.4050298983448085    0.5332075817006996    0.610895922541116    
  0.6108940530636318    0.5331716511772885    0.40503137529683525    0.2736671203112088    0.17424131300254397    
  0.11264141430723829    0.07968048351157041    0.06577958442828448    0.08610621576483021    0.0781388014173835    
  0.08610530178758875    0.11264313534963472    0.1658737689288794    0.2550984778229232    0.37352070139967636    
  0.4775869789575658    0.5237649515096131    0.5301816034626914    0.523791193528845    0.4776014032523027    
  0.37347063547664516    0.25510197975404336    0.1658861717886565    0.11264140904504369    0.08610621576483021    
  0.12779970409894198    0.107368519794723    0.1073752408856037    0.1277921754650508    0.17425373435142014    
  0.2550993603716622    0.3608946221414506    0.42914590160676036    0.39834162783977883    0.3348131132642536    
  0.3348068775575615    0.3983276269657078    0.4291990075523957    0.36088198277980876    0.25510198210267004    
  0.17424128151431875    0.12779970409894198    0.2005541212164656    0.1613736729745351    0.1491562144482166    
  0.16137312628538195    0.2005544879339163    0.27365939473162426    0.3734841179501041    0.42917816109340595    
  0.3427914881718648    0.20246236805727044    0.14861118251700936    0.2024687779922424    0.34276024399416805    
  0.42919899059950556    0.37347062305376616    0.2736671332465627    0.2005541212164656    0.3107557757018814    
  0.24816472645170698    0.2187636105984719    0.21875966470621055    0.24817507021205312    0.31076025719660577    
  0.4050263193399954    0.4776246732097091    0.3983528517412807    0.20243882560802814    0.09278132342830453    
  0.09276737647154648    0.2024687458539307    0.39832761389608917    0.47760142032851943    0.4050313852614138    
  0.3107557757018814    0.44573479455518433    0.3659828142779375    0.3175098683757291    0.3011148681921647    
  0.31750340443198355    0.3659908164837342    0.4457484078004593    0.5331896629902825    0.523771852464728    
  0.3348008382203157    0.148626478281731    0.09278129851557636    0.14861118398508683    0.33480689226120786    
  0.5237911743640248    0.533171544361268    0.44573479455518433    0.5641344770730133    0.48898711304086745    
  0.42772072850996207    0.392021172587061    0.3920190300684728    0.42774558554830194    0.4889760877966673    
  0.5641502894695241    0.6109442060289626    0.53017973515317    0.33480089956710046    0.20243888700374973    
  0.20246241332371243    0.33481316327009986    0.5301816732395439    0.6108939551376107    0.5641344770730133    
  0.6124705048163364    0.5703908957353682    0.5132202966168189    0.4570181236588986    0.43226020412629695    
  0.4570230782892274    0.5132379674897255    0.5704159668126682    0.6124548795188096    0.6109441920993219    
  0.523771886882605    0.39835286327005065    0.3427915135340972    0.3983416899539879    0.5237650886269751    
  0.6108959509621525    0.6124705048163364    0.5641494124042212    0.5703691118290061    0.5446147283567845    
  0.4813085467343725    0.4233604880677784    0.4233532782906153    0.4813067999601328    0.5446207607794823    
  0.5704158999850271    0.564150362270934    0.533189642030713    0.477624705307721    0.4291782251759636    
  0.42914590920407897    0.4775869835418379    0.5332074060717079    0.5641494124042212    0.44571922148945253    
  0.4889560342351811    0.5132498149052976    0.4813047920823516    0.4096616334029011    0.3733354441402139    
  0.40967755198674616    0.48130672477771175    0.5132378591932656    0.488976040160019    0.44574841094423295    
  0.4050262501294766    0.37348408586541726    0.36089458076922293    0.37352070578548846    0.40502991207590533    
  0.44571922148945253    0.31074226684184036    0.36601009600947526    0.4277275197090443    0.45700521110677705    
  0.42335032525382865    0.37334428930147173    0.373335401489682    0.42335327512241316    0.4570230880175335    
  0.42774549374835336    0.36599079053255046    0.31076026233990445    0.2736594463961602    0.25509930286667093    
  0.2550984331881271    0.2736352064169237    0.31074226684184036    0.2005757911438814    0.24817626270486162    
  0.31747937079694233    0.3920224756412273    0.43226882300245645    0.4233503264571882    0.40966165534651944    
  0.4233604721302029    0.4322602191266035    0.39201897513774314    0.3175034092244996    0.2481750655338624    
  0.20055447259093456    0.17425375311994556    0.16587381544992616    0.17424573726704176    0.2005757911438814    
  0.1277961125681518    0.16135056183364724    0.21875947369711005    0.3011311614264266    0.3920224574171975    
  0.45700533071367255    0.4813048262002469    0.4813085496850079    0.4570180792452806    0.39202125279332073    
  0.301114852801112    0.21875968041132568    0.16137314707637185    0.12779223589459332    0.11264313850287329    
  0.11264712938199073    0.1277961125681518    0.08610246370745521    0.10737006764938896    0.14917811050483096    
  0.2187594379953809    0.31747932506550847    0.42772750315037    0.5132499290077225    0.5446145859048541    
  0.5132202758684477    0.4277206059768753    0.31750988140943537    0.21876357900906665    0.14915624870816524    
  0.10737521117261464    0.0861052913623073    0.07967687528983497    0.08610246370745521    0.0657796385400829    
  0.07814436675433258    0.10737010668632588    0.16135056988950422    0.24817627214552998    0.36601018004312513    
  0.4889560786775315    0.5703690911801654    0.5703907364622519    0.4889872063334772    0.36598281081499257    
  0.24816473346287232    0.1613736722133431    0.1073685521589709    0.07813879817547581    0.06578260657715093    
  0.0657796385400829    0.05984433699278153    0.06577963466384612    0.08610248546246474    0.12779611700161717    
  0.20057579935174666    0.31074226001696426    0.44571925333207363    0.5641493313461996    0.6124704560454269    
  0.5641343845047168    0.4457347378569481    0.3107557578549953    0.2005541159263674    0.12779970490523648    
  0.08610622305032502    0.06577958008237482    0.05984433699278153    0.05704050992425122    0.06221214709974706    
  0.07962951429346804    0.11462402210228281    0.17449102108010167    0.2631609342596632    0.3692398858788852    
  0.4604548083051094    0.49724540240859266    0.4604370177977517    0.36926237125871636    0.2631751108939178    
  0.17446736963455162    0.11462797163129343    0.07963439937922524    0.06221215350267886    0.05704050992425122    
  0.062212152245085965    0.062211978620506314    0.07489032328705007    0.10455970732577655    0.15916457735057146    
  0.24584444790978632    0.35791617642905005    0.4638637904301742    0.5258811097408553    0.5258864291839941    
  0.46383585827954155    0.3579096155038724    0.24587753433482357    0.15916206875087197    0.10455654865448552    
  0.07489039399621995    0.062212152245085965    0.07963439266154568    0.07215076659345279    0.07963384393578352    
  0.10455502715924447    0.1544106557481748    0.237299306310277    0.3452460891661462    0.43579728189950423    
  0.4705697641906614    0.47276237827565365    0.47058905558861286    0.43581261947788325    0.34520059014894966    
  0.2373070551348365    0.15441741228709313    0.10455654236647918    0.07963439266154568    0.11462796803344397    
  0.0952357551325014    0.0952430620606015    0.1146205214427213    0.15917185749725715    0.23730060741745887    
  0.3392358376885488    0.40202950450260855    0.36646193439520686    0.30181594031762543    0.3018144236158301    
  0.3664480104073    0.4020904989107528    0.3392164217952545    0.2373070529768444    0.1591620570891036    
  0.11462796803344397    0.1744673665977038    0.13691213815810738    0.12535317346878616    0.13690968019273284    
  0.174471424422289    0.24586888163837284    0.3452090046688699    0.40206776857243476    0.3178136391147318    
  0.18187387637355906    0.1307556790556232    0.18188189449941944    0.3177795449901099    0.4020904536981185    
  0.34520055919183473    0.24587753739957902    0.1744673665977038    0.2631751347684696    0.20228318507545057    
  0.1744067963252942    0.17440362767679277    0.20228840420179098    0.2631744332961982    0.3579113523289379    
  0.43582603303283907    0.36647571342565455    0.18184529662820717    0.08005285994817254    0.08003333613669064    
  0.18188187167484496    0.36644803568872913    0.4358126274025554    0.3579095994272865    0.2631751347684696    
  0.3692624191341199    0.2891868822372087    0.24338503450228752    0.22858277220975967    0.24338541610541467    
  0.28919486618572243    0.36926609098733637    0.46385174128834317    0.47056763508067834    0.30181038473697935    
  0.13076759691639137    0.08005282287361956    0.13075569613212645    0.30181443141986025    0.47058903622702447    
  0.4638359019784795    0.3692624191341199    0.4604370450110451    0.37916968026806297    0.3224118781887639    
  0.29388254475839265    0.29387418186519165    0.32242691911158716    0.37916834818930695    0.46044383276136425    
  0.5259345869515484    0.47274764512279194    0.3018104286345044    0.18184533951816448    0.18187394484926647    
  0.30181595362693336    0.4727624507324091    0.5258863326994357    0.4604370450110451    0.4972454253245916    
  0.43907900364689356    0.388211069895356    0.3534580291326129    0.34052813702865004    0.3534630209096762    
  0.3882145836815049    0.43910531738876996    0.4972206705572293    0.5259345321078074    0.4705676427433971    
  0.36647571595640227    0.317813668729641    0.36646199608465696    0.47056983312443995    0.5258811161190339    
  0.4972454253245916    0.46045480887035733    0.4390593604779866    0.4141888440033237    0.38798560489748335    
  0.3685403729861327    0.36852956616688126    0.38800388080831383    0.4141789354666815    0.4391053225474747    
  0.4604438254516514    0.4638517560852733    0.4358260572701764    0.40206783708717025    0.4020294566017858    
  0.43579725977027967    0.4638637380211105    0.46045480887035733    0.36923991905767517    0.3791505210347794    
  0.38822834985882265    0.38799052491848846    0.37656274913710336    0.3692315194863101    0.3765650358584757    
  0.3880038021449499    0.3882144790583229    0.3791683772137765    0.36926606976487575    0.3579113136401049    
  0.3452089231420017    0.3392357825469497    0.3452461256267576    0.3579161186800784    0.36923991905767517    
  0.26316087890418616    0.2892090143389209    0.3224217142045772    0.35344000467626113    0.368536027867993    
  0.369225086686627    0.3692315024525269    0.3685295694222069    0.3534630008499819    0.3224268452329931    
  0.28919482355136567    0.26317441170653777    0.24586891635130256    0.23730058920320257    0.23729924623229315    
  0.24584440058773166    0.26316087890418616    0.17449106109430151    0.20229044025129    0.24336014565649838    
  0.2938778799285629    0.3405373015315737    0.36853600417351295    0.37656280017132093    0.3685404403086206    
  0.34052816745830056    0.2938741817137776    0.24338538349517108    0.20228836916252604    0.17447141994774276    
  0.15917186861216795    0.1544106934003096    0.159164557705359    0.17449106109430151    0.11462399117386149    
  0.1368882865162036    0.17440442497309236    0.22859927079235756    0.2938778788833049    0.353440113376084    
  0.3879905168540219    0.3879856233660377    0.3534580120902939    0.2938826707799198    0.22858278402817328    
  0.17440363323852706    0.1369096767603026    0.11462056616317141    0.10455502857682569    0.10455969515426383    
  0.11462399117386149    0.07962948644539082    0.09523996779351253    0.1253700354267279    0.17440441873944934    
  0.243360102721472    0.32242172661925445    0.3882283367285806    0.41418873046281923    0.38821100547331094    
  0.3224118170982597    0.24338504393471927    0.1744067564940861    0.12535316664178844    0.09524304325058144    
  0.07963383692537776    0.07489031019575437    0.07962948644539082    0.06221214581717248    0.07215339509953801    
  0.0952399954114495    0.13688828670736636    0.20229045228607875    0.289209067865108    0.37915056256441065    
  0.4390593395042546    0.4390788716958353    0.3791697223858271    0.2891868436972911    0.20228318842497484    
  0.1369121365753295    0.09523576001043725    0.07215075912245321    0.06221195766088835    0.06221214581717248    
  0.05704050992425122    0.06221214709974706    0.07962951429346804    0.11462402210228281    0.17449102108010167    
  0.2631609342596632    0.3692398858788852    0.4604548083051094    0.49724540240859266    0.4604370177977517    
  0.36926237125871636    0.2631751108939178    0.17446736963455162    0.11462797163129343    0.07963439937922524    
  0.06221215350267886    0.05704050992425122    0.05330841879343957    0.05744847872116551    0.07120407275315356    
  0.09810926965602704    0.14265674549896715    0.20660371322118784    0.28144647581704685    0.3448603752072714    
  0.37017344758605897    0.3448524642968476    0.2814791324085082    0.20660749829097488    0.14263885294093998    
  0.09811363007883325    0.07120694971475693    0.057448291401028494    0.05330841879343957    0.05744829474068739    
  0.0574510142668896    0.06813440027025905    0.09279336871188602    0.13707995568538817    0.2057200909569847    
  0.2937441630836239    0.37787779210977096    0.4279974659156959    0.42799813591030056    0.37783960862988397    
  0.2937485554219628    0.20574299062054907    0.1370820221696725    0.09278945384280073    0.06813792989629756    
  0.05744829474068739    0.07120694284953666    0.0647140825304004    0.07120582918616022    0.09278921561437667    
  0.13561922580853    0.20634405269657968    0.3005429547579623    0.3884769664866039    0.4355116152560663    
  0.4460422250722772    0.43555734269080265    0.38847513232248837    0.3005159250447889    0.20635131283749636    
  0.1356236285554296    0.09278944707465726    0.07120694284953666    0.09811362922441863    0.08121968811966303    
  0.0812243454178805    0.09810843849249645    0.13708595898110174    0.2063441382286476    0.30241621867780955    
  0.38310059051523565    0.3932792168022496    0.3618876469515434    0.3618639483025791    0.3932748070611459    
  0.38315686360427725    0.30239599900856223    0.20635130326000187    0.13708201545093515    0.09811362922441863    
  0.14263881028948708    0.1101703672473966    0.10026064115716171    0.11017013453168327    0.1426398698719383    
  0.20574204255295525    0.30050994568472555    0.38314407781672555    0.36668873979962463    0.2749287654105986    
  0.22931739705018403    0.2749280788295735    0.3666666057816377    0.3831568686694339    0.30051592376978675    
  0.20574296254481098    0.14263881028948708    0.20660750041137807    0.15411259804827027    0.1306356078652731    
  0.1306362492203404    0.15410984993167046    0.20661111656071482    0.29374436253609093    0.3884925511413749    
  0.39328499141760176    0.2749120993260056    0.17544327342299554    0.17545751108220997    0.27492805765883443    
  0.3932747850327553    0.3884751883493002    0.2937485813272298    0.20660750041137807    0.281479162759312    
  0.21069196320992548    0.17235291752762774    0.1603079727590646    0.17235524363813112    0.21069727920417308    
  0.28147695475817547    0.37785112695409256    0.43554335438782565    0.36183908759670486    0.22935907859041096    
  0.17544322489940134    0.22931741382200907    0.36186399540536024    0.43555736911828385    0.37783958164269177    
  0.281479162759312    0.34485243185445946    0.2681291888217052    0.2194496770240636    0.19672217837886402    
  0.19670914958643798    0.21946537617566217    0.2681223656569953    0.3448691295801882    0.428006378965176    
  0.4460701707793386    0.36183909871651615    0.2749121691738579    0.27492888795857545    0.3618876588459373    
  0.4460422170173671    0.4279980797677068    0.34485243185445946    0.3701733752724715    0.30603306335330377    
  0.2588545285646894    0.23162556288153446    0.22273588607366965    0.23162498230490838    0.25885888486995373    
  0.3060406818945726    0.37017319741519455    0.4280064017777406    0.4355434084895491    0.3932850383255397    
  0.3666887634483893    0.393279271254279    0.4355115873070265    0.42799750179686513    0.3701733752724715    
  0.34486035175853985    0.30602213346054274    0.2745969404879292    0.25343377844528636    0.24279727486365668    
  0.2427988473004541    0.25344221216765783    0.2745968191460109    0.30604066198123697    0.3448691647649663    
  0.37785113804822124    0.38849256627022877    0.3831440675975253    0.38310055750520383    0.3884769599802415    
  0.37787772247248635    0.34486035175853985    0.2814464753251744    0.2681202592692908    0.25886242925599745    
  0.2534347792532321    0.25034177072759756    0.2493541456802607    0.250340622182284    0.25344215797877945    
  0.2588588279291139    0.26812241025584405    0.281476964421875    0.2937442949400609    0.30050987572295884    
  0.302416163523543    0.30054296013737086    0.2937440856519844    0.2814464753251744    0.20660367364948004    
  0.21071572239403275    0.2194545690911338    0.23161790131834864    0.24279508060855615    0.24935565017874992    
  0.24935414519009377    0.24279881419539556    0.23162494335982906    0.21946536007764134    0.21069724742534435    
  0.20661113984491739    0.20574205123367964    0.2063440994863595    0.20634398613697089    0.20572003344919448    
  0.20660367364948004    0.14265675609778128    0.15410866972209675    0.1723343392376367    0.1967118268230407    
  0.22274257689235036    0.24279510248586245    0.2503417967218193    0.24279731013115033    0.22273591472819462    
  0.19670916922703877    0.17235522809521253    0.1541098400787775    0.1426398491461387    0.13708598694145013    
  0.13561924049799184    0.13707995296929448    0.14265675609778128    0.0981092691656154    0.1101560808644671    
  0.13063300606947315    0.16032801677666497    0.19671180358967041    0.23161794765953816    0.2534347411618469    
  0.2534338099711987    0.23162559155885107    0.19672225547656694    0.16030798702744556    0.13063627148218332    
  0.11017013930472261    0.09810848171032599    0.09278921253292403    0.09279335226730291    0.0981092691656154    
  0.07120406219820295    0.08122039721330092    0.10027445136019386    0.1306330270018741    0.1723343162266891    
  0.21945456362655738    0.25886243005763443    0.2745968858507651    0.25885451716847335    0.2194496460230331    
  0.1723529335412575    0.13063556663470144    0.10026064821840344    0.08122432219066905    0.0712058309901895    
  0.06813438923422338    0.07120406219820295    0.057448479364798744    0.06471732453220987    0.08122043067090598    
  0.11015607074726642    0.15410867902659445    0.21071577887464896    0.2681202464033481    0.30602208212437243    
  0.30603295270264286    0.2681291550254136    0.21069197136675516    0.15411260328410345    0.11017039308796217    
  0.08121970372962219    0.06471408002155568    0.05745099351556339    0.057448479364798744    0.05330841879343957    
  0.05744847872116551    0.07120407275315356    0.09810926965602704    0.14265674549896715    0.20660371322118784    
  0.28144647581704685    0.3448603752072714    0.37017344758605897    0.3448524642968476    0.2814791324085082    
  0.20660749829097488    0.14263885294093998    0.09811363007883325    0.07120694971475693    0.057448291401028494    
  0.05330841879343957    0.04955797114900485    0.05270702630969717    0.06305625807829464    0.08282599414943262    
  0.11443084850384938    0.15826354693081193    0.20842373653175908    0.25040777923059415    0.26702565765900155    
  0.2504044428315524    0.20843891881349325    0.1582647314906913    0.11442625164273844    0.08282856770269345    
  0.0630569685076372    0.0527073456638921    0.04955797114900485    0.052707350873144994    0.05270832348493185    
  0.061270030859450084    0.08082165688889438    0.11515890768899126    0.16716004041698038    0.23364827844071243    
  0.2988675879620136    0.339376818303827    0.33937447794238257    0.2988595749365172    0.23364758902962016    
  0.1671729316948499    0.11515865617534164    0.08082282886550335    0.06127116255331461    0.052707350873144994    
  0.06305696778639504    0.05770159750113354    0.06305551835193415    0.08082297044050563    0.11573001801161507    
  0.17323271470376014    0.2527901801265482    0.3377289841030404    0.3988478773311744    0.41963538671093403    
  0.39886954430436833    0.3377259826539965    0.25278806576785223    0.1732347860417236    0.11573388224086999    
  0.08082282227288702    0.06305696778639504    0.08282857154353396    0.06878540712176182    0.06878867270481168    
  0.08282460395587651    0.11516148587959008    0.17322725714902495    0.2599366201940434    0.3569459837406767    
  0.42418903136809094    0.4465662239847551    0.4465562723376079    0.424194298129685    0.3569727385412883    
  0.25992758899262164    0.1732347619746263    0.1151586412038388    0.08282857154353396    0.11442624265024222    
  0.08770110772685698    0.0795873310906813    0.08770094574672123    0.11442521991003403    0.16717240818109128    
  0.25278121685141863    0.35696660017733745    0.4275126835345275    0.43318969070635144    0.4219716158269695    
  0.4331850633004437    0.42750696653315684    0.3569727074445669    0.2527880114539109    0.16717290383224162    
  0.11442624265024222    0.15826475200727305    0.11549125011524326    0.09672364857521415    0.09672328852776234    
  0.1154912225378253    0.15826501542631666    0.23364765453432884    0.3377333529860519    0.4241904744151726    
  0.4331842941910769    0.3978899743025564    0.3979075410798277    0.43318506269566975    0.4241942504254282    