#     DFTpy    
  CRYSTAL 
    
  PRIMVEC    
  2.794448275862069    0.0    0.0    
  0.0    2.794448275862069    0.0    
  0.0    0.0    2.794448275862069    
  PRIMCOORD    
  4    1    
  Si    0.0    0.0    0.0    
  Si    0.0    1.3972241379310344    1.3972241379310344    
  Si    1.3972241379310344    0.0    1.3972241379310344    
  Si    1.3972241379310344    1.3972241379310344    0.0    
  BEGIN_BLOCK_DATAGRID_3D    
  3d_datagrid_density    
  BEGIN_DATAGRID_3D#0    
  13    13    13    
  0.0    0.0    0.0    
  2.794448275862069    0.0    0.0    
  0.0    2.794448275862069    0.0    
  0.0    0.0    2.794448275862069    
  0.05783820558328118    0.11528989298600813    0.3552841050827176    0.662905431961858    0.7425474790749362    
  0.6869197463343722    0.6551955038310555    0.6869197774527305    0.7425474407548944    0.6629054021496992    
  0.355284215532932    0.11528985477974185    0.05783820558328118    0.11528984923721325    0.1901715470626059    
  0.44602955476103556    0.7189812600355702    0.7732025912593443    0.7168502830670994    0.686919773363543    
  0.7168502640531342    0.7732027869443959    0.7189813266097493    0.4460296020249155    0.19017151393513546    
  0.11528984923721325    0.3552842003469126    0.44602958279370275    0.669630827135788    0.8360740875284239    
  0.8370713528667766    0.7732026039473937    0.7425474801206184    0.7732026621609749    0.837071296781756    
  0.8360739127557548    0.6696308656848242    0.446029549765156    0.3552842003469126    0.662905502067699    
  0.7189812882053637    0.8360739633963833    0.896591269294281    0.8360739888627472    0.7189813064887536    
  0.6629053752922047    0.7189812809327246    0.8360740168268965    0.896591287628035    0.8360740085167991    
  0.7189812636254779    0.662905502067699    0.7425475264820436    0.7732026888744803    0.8370714950967284    
  0.8360740032120421    0.6696307598425074    0.44602963657958683    0.3552841861397996    0.44602959160917327    
  0.66963083930291    0.8360740371231035    0.837071339076401    0.7732026378112237    0.7425475264820436    
  0.6869198688702007    0.7168501665856204    0.7732026428111846    0.7189814266527019    0.44602957555103295    
  0.19017149889380044    0.11528986819293505    0.1901714882295532    0.4460296118612937    0.7189812804979415    
  0.7732026652180024    0.7168501857406575    0.6869198688702007    0.6551955700773648    0.6869197945979135    
  0.7425473788021467    0.6629054106333658    0.35528416661824175    0.11528985070880532    0.05783820975704481    
  0.11528985242269056    0.3552841375604073    0.662905311134763    0.742547543017539    0.6869196912854751    
  0.6551955700773648    0.6869197401170335    0.7168502628755439    0.7732025571338004    0.7189812889959456    
  0.446029566671098    0.19017152844511778    0.11528986306658169    0.1901715152102909    0.44602969574413864    
  0.718981331288035    0.773202644160639    0.7168502056819974    0.6869197401170335    0.742547537793757    
  0.7732025478285266    0.8370714133914351    0.8360740757863863    0.6696307028679085    0.446029604555651    
  0.35528413027496386    0.4460296388138636    0.6696306093382565    0.8360740264679745    0.837071377889275    
  0.7732025332295999    0.742547537793757    0.6629054822369648    0.7189812811608712    0.8360739359348739    
  0.896591310893321    0.8360740114140415    0.7189812833970278    0.6629054319428557    0.718981225597087    
  0.8360739735800583    0.8965912273275894    0.8360739676268371    0.7189813051500539    0.6629054822369648    
  0.355284109521637    0.4460296706500309    0.6696307835870691    0.8360739688304262    0.8370712713928341    
  0.7732026216234961    0.742547539994745    0.7732026283684397    0.8370714340942981    0.8360739928031533    
  0.6696307980154212    0.44602952244322824    0.355284109521637    0.11528987044594027    0.19017148352290703    
  0.44602958076829874    0.7189814321317123    0.7732026062591169    0.7168502589058978    0.6869198080823858    
  0.716850154813892    0.773202698192743    0.7189811823285904    0.44602966778189007    0.19017147419629168    
  0.11528987044594027    0.05783820558328118    0.11528989298600813    0.3552841050827176    0.662905431961858    
  0.7425474790749362    0.6869197463343722    0.6551955038310555    0.6869197774527305    0.7425474407548944    
  0.6629054021496992    0.355284215532932    0.11528985477974185    0.05783820558328118    0.11528988510132254    
  0.19017153632949269    0.44602960510327605    0.7189814185620506    0.7732026369021803    0.7168501484242062    
  0.6869198020217432    0.7168502042175605    0.7732026596946204    0.7189812514624315    0.4460296693380616    
  0.19017144901842384    0.11528988510132254    0.190171462660412    0.276915712847854    0.5331492089640133    
  0.768480814090619    0.8016660042770161    0.7452289361211214    0.7168502121214669    0.7452289712621949    
  0.8016661258623884    0.7684808530555869    0.5331492280937368    0.27691569811725963    0.190171462660412    
  0.44602967534536536    0.5331492375774619    0.7334308458979039    0.8691470366908421    0.8617234480577749    
  0.8016660305160086    0.7732026731839446    0.8016661031860253    0.8617233773814097    0.8691469666752629    
  0.7334307851211438    0.5331492534849276    0.44602967534536536    0.7189813592380339    0.7684807193066693    
  0.8691468947752033    0.9198120337064285    0.8691469686215597    0.7684808433807158    0.7189812706082483    
  0.7684808055494987    0.8691469557152418    0.9198119287232689    0.8691470093330117    0.7684807789853877    
  0.7189813592380339    0.7732026046172624    0.8016659925484116    0.8617235116752038    0.869146997834896    
  0.7334306317966524    0.5331492294987179    0.4460296694685164    0.5331492501183537    0.7334308764977789    
  0.8691469702446384    0.8617235395786926    0.8016659490592234    0.7732026046172624    0.7168502855755668    
  0.7452288213630683    0.8016660310004238    0.76848083353939    0.533149292501181    0.2769156959427504    
  0.19017152236660306    0.27691567925826716    0.5331492692766043    0.7684808176774074    0.8016660826724522    
  0.7452287455463092    0.7168502855755668    0.686919824204045    0.7168502721017255    0.7732026188452058    
  0.7189813086412858    0.4460296474737842    0.19017146062140117    0.11528987039887437    0.1901714758703026    
  0.44602959250386176    0.7189812360411753    0.7732027952141638    0.7168501157057745    0.686919824204045    
  0.7168502750451512    0.7452289487497982    0.8016660215489091    0.7684807565864475    0.5331492162718703    
  0.2769157097509815    0.19017150352239476    0.2769157302891102    0.5331493714386034    0.7684809160000183    
  0.8016661073244326    0.7452288038851136    0.7168502750451512    0.7732027378762577    0.801666062152715    
  0.8617235468300507    0.8691471620780803    0.7334307731775117    0.5331492224125242    0.4460296185745437    
  0.5331492972997769    0.7334306308897138    0.8691469012812896    0.8617235122125367    0.8016660344754349    
  0.7732027378762577    0.7189813749927502    0.7684808297675375    0.869146961686976    0.919812006020263    
  0.8691470004319282    0.7684808563415261    0.7189813368763023    0.768480810802573    0.8691470379087581    
  0.9198120144094075    0.86914702322842    0.7684807850804207    0.7189813749927502    0.44602960181732565    
  0.533149275497254    0.7334308486042388    0.8691469577967229    0.8617233265044929    0.8016661611099309    
  0.7732026774431711    0.8016660166672688    0.8617235840116605    0.8691470586750204    0.7334307703803493    
  0.5331492622129228    0.44602960181732565    0.19017155202816527    0.27691564354705855    0.533149229451172    
  0.7684808576270191    0.801666021981393    0.7452289399421551    0.7168502301808133    0.7452288684922058    
  0.801666057305041    0.7684808520786371    0.5331492900301569    0.2769156586003544    0.19017155202816527    
  0.11528988510132254    0.19017153632949269    0.44602960510327605    0.7189814185620506    0.7732026369021803    
  0.7168501484242062    0.6869198020217432    0.7168502042175605    0.7732026596946204    0.7189812514624315    
  0.4460296693380616    0.19017144901842384    0.11528988510132254    0.3552841662489896    0.44602962230837323    
  0.6696308052773506    0.8360740548469469    0.8370713824261632    0.7732026935387666    0.742547487518641    
  0.7732026643713434    0.8370713804225841    0.8360739837787321    0.6696309074207423    0.4460295601736956    
  0.3552841662489896    0.44602958098163464    0.5331492831120462    0.7334307368669809    0.8691469655176866    
  0.8617234112467972    0.8016660890061214    0.7732026218621108    0.8016661020037265    0.8617235559427768    
  0.8691470068304556    0.7334307203216818    0.5331492775765615    0.44602958098163464    0.6696309083006198    
  0.7334307463308493    0.861504209833806    0.9315791473318465    0.912614454885931    0.8617234495166585    
  0.8370713751290089    0.8617235604798823    0.9126144030148247    0.9315790062808397    0.8615042095326544    
  0.7334307328123764    0.6696309083006198    0.8360740786783026    0.8691470101711712    0.9315789247989622    
  0.9606328953614202    0.9315790287808415    0.8691470012889625    0.8360740207607076    0.8691469024509795    
  0.9315791342831834    0.9606327073704779    0.9315790691493155    0.8691468906081864    0.8360740786783026    
  0.8370713868610536    0.8617234528719957    0.9126145927722004    0.9315790664010127    0.8615040366266651    
  0.7334307660015641    0.6696308497456681    0.7334308297435175    0.8615042027403638    0.9315790658695724    
  0.9126146276257323    0.8617234969896934    0.8370713868610536    0.7732028351194001    0.8016661045955012    
  0.8617233333025699    0.8691470785629865    0.733430711509629    0.5331492492440033    0.44602962437084365    
  0.5331492985514282    0.7334307501903796    0.8691469191794217    0.8617234829098237    0.8016659436673933    
  0.7732028351194001    0.7425475618525462    0.7732026003180364    0.8370713886380172    0.8360740236341524    
  0.6696308565158354    0.4460295911149884    0.3552841285778999    0.44602960634098326    0.6696308217407698    
  0.8360739918015538    0.8370714697351769    0.7732025945905427    0.7425475618525462    0.7732026387354356    
  0.801666084299483    0.8617234238354392    0.869147018782658    0.7334307307916055    0.5331493310675652    
  0.4460296098056701    0.5331493016411786    0.7334308862433773    0.8691470879004679    0.8617234038812668    
  0.801666087042534    0.7732026387354356    0.8370713405420391    0.8617235163053447    0.9126144665329512    
  0.9315791221855525    0.8615040619023799    0.7334306879117098    0.6696308274831485    0.7334307705744909    
  0.8615039658278769    0.93157904413141    0.9126146151229452    0.8617234783055293    0.8370713405420391    
  0.8360739884871494    0.8691470050353276    0.9315790455242835    0.960632831219318    0.9315790559122844    
  0.8691470322584298    0.8360740817086388    0.8691470029174511    0.931579067253129    0.9606327342136588    
  0.9315789765805037    0.8691471122074171    0.8360739884871494    0.669630734211032    0.7334306976153699    
  0.8615042384599588    0.93157898468128    0.912614384341149    0.8617234739729571    0.8370713920493317    
  0.861723488724918    0.9126145562215461    0.9315791029554831    0.8615041438772861    0.7334307436396538    
  0.669630734211032    0.4460297049800138    0.5331492409059871    0.7334307481833038    0.869147124994699    
  0.8617235281252119    0.8016661153289122    0.7732026466911947    0.8016661008991129    0.8617234210052234    
  0.8691469331571434    0.7334307840536232    0.5331492250586704    0.4460297049800138    0.3552841662489896    
  0.44602962230837323    0.6696308052773506    0.8360740548469469    0.8370713824261632    0.7732026935387666    
  0.742547487518641    0.7732026643713434    0.8370713804225841    0.8360739837787321    0.6696309074207423    
  0.4460295601736956    0.3552841662489896    0.6629054561124867    0.7189813845878874    0.836073911339018    
  0.896591358839752    0.8360739323108112    0.7189813419103814    0.6629053358793048    0.7189813083146935    
  0.836073971547599    0.8965912691718805    0.836074055028234    0.7189812493487847    0.6629054561124867    
  0.7189812812040092    0.7684809179210723    0.8691468998330485    0.9198119239801613    0.8691469190126104    
  0.7684808162881528    0.7189813280419887    0.7684808601433347    0.8691471115856061    0.919812061831146    
  0.8691468118438965    0.7684808439985331    0.7189812812040092    0.836074072258231    0.8691469824238185    
  0.9315789869019167    0.9606329816548186    0.9315789787114668    0.8691469999967377    0.8360739230795089    
  0.8691469365912027    0.931578932804247    0.9606327110039302    0.9315791694602057    0.8691468410323131    
  0.836074072258231    0.8965913796127596    0.9198119753979218    0.9606326972656261    0.9780639354509756    
  0.9606327374234855    0.919811992971764    0.8965912066630369    0.9198119952845611    0.9606328384475408    
  0.978063930517203    0.9606328298596666    0.9198118639801431    0.8965913796127596    0.8360739676488291    
  0.8691469724982075    0.9315790916531094    0.960632829030436    0.9315789799839888    0.8691470208557994    
  0.8360740343276557    0.8691468985626962    0.9315790820736511    0.9606328147744414    0.9315790249642094    
  0.8691469865621505    0.8360739676488291    0.7189813507039454    0.7684807763827093    0.8691470124511018    
  0.9198121281904245    0.8691469080800257    0.7684808148260774    0.7189813102390533    0.7684807765082361    
  0.8691469471061625    0.9198120486633068    0.8691469664595219    0.7684806328150496    0.7189813507039454    
  0.6629054126410596    0.71898131806283    0.8360738419426559    0.8965913613272141    0.8360739577297881    
  0.7189812732716723    0.6629054425683164    0.7189812327089035    0.8360739997460493    0.8965912028871242    
  0.8360740289320436    0.718981257060246    0.6629054126410596    0.7189812799553046    0.7684808991918728    
  0.869146875652027    0.9198119153187222    0.8691469157449062    0.7684808290732723    0.7189812689488383    
  0.7684807849822527    0.8691470753849415    0.9198119687842843    0.8691468952394042    0.7684807285197746    
  0.7189812799553046    0.8360741150849301    0.8691468719896229    0.9315790031386296    0.9606329326914594    
  0.9315789444694239    0.8691469637574906    0.836074006241891    0.869147000541701    0.9315788413596461    
  0.9606328124016985    0.9315790102743764    0.8691469036471802    0.8360741150849301    0.8965913411980821    
  0.9198119317376582    0.9606327488880168    0.9780639275522892    0.9606328174161703    0.919812015590434    
  0.8965913774995932    0.9198118684800289    0.96063283168545    0.9780638291419687    0.9606327816602559    
  0.9198120212331186    0.8965913411980821    0.8360739050025108    0.8691470567979408    0.9315790168921968    
  0.9606326797135959    0.9315789461092557    0.8691469234125896    0.836073942269798    0.8691469352597864    
  0.9315790419304789    0.9606328073406812    0.9315790019078184    0.8691468452381371    0.8360739050025108    
  0.7189813013210238    0.7684807201965722    0.8691468994198903    0.9198121573055148    0.8691469378995943    
  0.768480819974696    0.7189813395708763    0.7684807670614443    0.8691469417134975    0.9198119149008926    
  0.8691469669755263    0.7684807245998634    0.7189813013210238    0.6629054561124867    0.7189813845878874    
  0.836073911339018    0.896591358839752    0.8360739323108112    0.7189813419103814    0.6629053358793048    
  0.7189813083146935    0.836073971547599    0.8965912691718805    0.836074055028234    0.7189812493487847    
  0.6629054561124867    0.7425474917215149    0.7732027290215885    0.8370712932536087    0.8360741102184407    
  0.6696308150013863    0.4460295780279241    0.3552841281551461    0.4460296244878952    0.669630866428395    
  0.836073979787209    0.8370714087918618    0.7732025259980013    0.7425474917215149    0.7732025894736211    
  0.8016661073346434    0.8617233537956032    0.8691470382448784    0.7334306184464348    0.5331493364436111    
  0.4460296764998305    0.5331492735122577    0.7334307934142079    0.8691469633991021    0.8617234682676259    
  0.801666122839364    0.7732025894736211    0.8370715141787357    0.8617234029358882    0.9126145673742728    
  0.9315790919014956    0.8615040578965457    0.7334307265911687    0.669630872907451    0.7334307708956045    
  0.8615040708810662    0.9315790091098243    0.9126145545671301    0.8617234536856452    0.8370715141787357    
  0.8360740437995634    0.8691469760096283    0.931579010200095    0.9606328446281873    0.9315790523115993    
  0.869147041238902    0.8360739077070374    0.8691470060518234    0.9315789599106049    0.9606326787584784    
  0.9315791255492891    0.8691469067010525    0.8360740437995634    0.6696307399443887    0.7334307530187051    
  0.861504238334465    0.931579035521457    0.9126143451817593    0.8617233931064316    0.8370714607825815    
  0.8617235084932696    0.9126146677853297    0.9315790774522653    0.8615041217467801    0.73343072839937    
  0.6696307399443887    0.4460297151324829    0.5331492691814012    0.7334306677095348    0.8691470611762061    
  0.8617234440214534    0.8016660726034958    0.7732026962210077    0.8016661087442798    0.8617234140959082    
  0.8691469527032014    0.7334307900471073    0.5331492362855579    0.4460297151324829    0.3552841833714827    
  0.44602966356519314    0.6696308714945368    0.8360739183200734    0.8370713813315377    0.7732025878089271    
  0.7425474797027468    0.7732025610147578    0.8370714051112279    0.8360739503528348    0.66963090796297    
  0.446029505607043    0.3552841833714827    0.4460296243392274    0.5331493376581544    0.7334306973005075    
  0.8691470243351108    0.8617234198063013    0.8016661824879998    0.7732026057985018    0.8016662440162081    
  0.861723558804486    0.8691471180015596    0.7334308124350236    0.5331492937820408    0.4460296243392274    
  0.6696309139950118    0.7334307618771111    0.8615042406872021    0.931579187460727    0.9126144967370504    
  0.8617233730661807    0.8370714564098858    0.8617235237462386    0.9126143051293152    0.9315789903335251    
  0.8615041849810221    0.7334306730892427    0.6696309139950118    0.8360740304455689    0.8691470181591351    
  0.931579016954027    0.9606328109806078    0.9315790742970381    0.8691470119378981    0.8360740023820422    
  0.8691469897132159    0.9315791076769568    0.9606328035489026    0.93157910725854    0.8691470010204654    
  0.8360740304455689    0.8370713971693444    0.8617234360412478    0.9126145835026788    0.931579044027297    
  0.8615040358174751    0.733430793930131    0.669630801295491    0.7334307952447489    0.8615042933702778    
  0.9315791175896894    0.9126145006528537    0.8617234443088002    0.8370713971693444    0.773202777685627    
  0.8016660040803172    0.8617234247170693    0.8691470929909054    0.7334307011741952    0.5331493337071082    
  0.4460295949109205    0.5331493157624582    0.7334306867968599    0.8691469748150021    0.8617235216234808    
  0.8016660296929344    0.773202777685627    0.7425474917215149    0.7732027290215885    0.8370712932536087    
  0.8360741102184407    0.6696308150013863    0.4460295780279241    0.3552841281551461    0.4460296244878952    
  0.669630866428395    0.836073979787209    0.8370714087918618    0.7732025259980013    0.7425474917215149    
  0.6869198655089299    0.716850269757091    0.7732025908571124    0.7189813867176471    0.4460296540728304    
  0.19017151869091145    0.11528984687925134    0.19017151440856367    0.44602962044951655    0.7189812795207632    
  0.7732026856793084    0.7168501023637366    0.6869198655089299    0.7168501436059233    0.7452287851034022    
  0.8016661032256381    0.7684808218799343    0.5331492113307733    0.27691569643816566    0.19017152664907241    
  0.27691569626247875    0.533149336473701    0.7684808261881656    0.801666047649661    0.7452288605627918    
  0.7168501436059233    0.7732027631014067    0.8016660449708647    0.8617235881747085    0.869147014402837    
  0.7334307116756799    0.5331492155694358    0.44602961063599245    0.5331493150504052    0.7334306928935858    
  0.8691469937677272    0.8617235321219079    0.8016660443627718    0.7732027631014067    0.7189813522974545    
  0.7684808029368765    0.8691468544133629    0.9198121259052181    0.8691470416554522    0.768480771353363    
  0.718981351867341    0.7684807576501326    0.8691470190924575    0.9198118973484222    0.8691470214260257    
  0.7684806932226712    0.7189813522974545    0.4460295855578398    0.5331492606226984    0.7334308306422969    
  0.8691470087528931    0.8617233767176082    0.8016661444998331    0.7732026933080235    0.8016660959096951    
  0.8617235806160816    0.869147079627453    0.7334308270087309    0.533149252817337    0.4460295855578398    
  0.1901715707174045    0.27691566116683497    0.533149229547668    0.7684808819975824    0.8016660782918384    
  0.7452288180234108    0.7168502563083954    0.7452288976282962    0.8016660936605758    0.7684807154611807    
  0.5331493410406106    0.2769155896771053    0.1901715707174045    0.11528987364238848    0.1901714931246324    
  0.44602959320753316    0.7189813654994188    0.7732025994594285    0.7168501895355088    0.6869197464538866    
  0.7168501914806406    0.7732026066981394    0.7189812971871883    0.4460296503691751    0.19017145322786866    
  0.11528987364238848    0.19017151303488328    0.2769156900207098    0.5331492500725661    0.7684808484762475    
  0.8016659918811526    0.7452289473574205    0.7168501850311952    0.7452288541155709    0.8016661900261685    
  0.7684808331341093    0.5331493204891439    0.27691569486780554    0.19017151303488328    0.44602962672095475    
  0.5331493005489231    0.7334307493497921    0.8691471508140421    0.8617234392518504    0.8016660132935454    
  0.7732026809143832    0.8016661230976616    0.8617233269162856    0.8691470040730006    0.7334307811120359    
  0.5331492267321809    0.44602962672095475    0.7189813380303505    0.7684808026043477    0.8691469298688856    
  0.9198120716681822    0.8691469735196837    0.7684808230701884    0.7189813526683747    0.7684807309473923    
  0.8691470176371923    0.919812022743757    0.8691469770447529    0.7684809182870576    0.7189813380303505    
  0.7732026446892729    0.8016660161926237    0.861723561605622    0.8691469350434796    0.7334306112885924    
  0.5331493526338079    0.44602962614598807    0.5331493362388265    0.733430776542738    0.8691470161597956    
  0.8617234273505746    0.8016660464621996    0.7732026446892729    0.7168502790507099    0.7452287866470955    
  0.8016660743289649    0.7684808904339554    0.5331492820940762    0.27691567093072805    0.19017149604617892    
  0.2769156746847621    0.5331492274169316    0.7684807886020745    0.8016660895275357    0.7452288359289115    
  0.7168502790507099    0.6869198655089299    0.716850269757091    0.7732025908571124    0.7189813867176471    
  0.4460296540728304    0.19017151869091145    0.11528984687925134    0.19017151440856367    0.44602962044951655    
  0.7189812795207632    0.7732026856793084    0.7168501023637366    0.6869198655089299    0.6551956028842167    
  0.6869198411541328    0.7425474060107158    0.6629054134007916    0.355284139673231    0.1152898508409961    
  0.057838195612025314    0.11528986210987921    0.355284115407669    0.6629054065945954    0.7425475878424296    
  0.6869197273462107    0.6551956028842167    0.6869197119815953    0.7168503051532861    0.7732025815193094    
  0.7189812746892553    0.4460295679667359    0.19017153755820987    0.1152898689268465    0.19017152159423595    
  0.4460297092690391    0.7189813261386894    0.7732026254336974    0.7168502432498627    0.6869197119815953    
  0.7425475693515154    0.7732026091047653    0.837071419760283    0.8360740883497658    0.6696307903822006    
  0.44602957310069336    0.35528413627732497    0.44602959116473123    0.6696307311419727    0.8360739533347747    
  0.8370714522929056    0.7732025458794952    0.7425475693515154    0.6629055108268337    0.7189813021055117    
  0.8360739943182247    0.8965912963353921    0.8360739895289937    0.7189813072447453    0.6629053818206624    
  0.7189812954948088    0.8360740139041223    0.8965912917491162    0.8360740191500577    0.7189812462035402    
  0.6629055108268337    0.3552841678417298    0.446029631681765    0.6696309287768879    0.8360739885610297    
  0.8370713618988381    0.7732026467146788    0.7425475497805735    0.7732025692933115    0.8370714306403098    
  0.8360740467043898    0.6696307859411612    0.44602961374369027    0.3552841678417298    0.11528990745178709    
  0.19017148982015658    0.44602962703948495    0.7189814461730126    0.7732025884710882    0.7168502372794405    
  0.6869197720967798    0.7168502253269913    0.7732026612772712    0.7189812958784876    0.44602963205966245    
  0.19017146517669087    0.11528990745178709    0.057838207433728625    0.11528985909148814    0.35528409044034254    
  0.6629054015059702    0.7425475121860472    0.6869197088429808    0.6551955505890623    0.686919735574111    
  0.7425474775712696    0.662905332188684    0.3552841929530803    0.11528983025031246    0.057838207433728625    
  0.11528983646603537    0.19017152782184832    0.4460295405553599    0.7189813022118082    0.7732026088273678    
  0.7168502820334431    0.686919763168144    0.7168502738989094    0.7732027286154306    0.718981343161549    
  0.4460295888995021    0.19017149852337334    0.11528983646603537    0.3552841868810082    0.4460295275147165    
  0.6696308157580338    0.8360741040851549    0.837071265453055    0.7732026022788437    0.7425475084386718    
  0.773202698031243    0.837071188722614    0.836074005013846    0.6696307820252851    0.4460295544473    
  0.3552841868810082    0.6629054756532059    0.718981305726629    0.8360739104751093    0.8965913004814833    
  0.8360739978986472    0.7189812772738491    0.662905411791163    0.718981230470985    0.8360739766467703    
  0.8965912329968619    0.8360739853959029    0.7189813252346707    0.6629054756532059    0.742547447164708    
  0.7732026920923808    0.8370713529113141    0.8360739849802711    0.6696307013940292    0.44602958837544704    
  0.3552841736932592    0.446029594969983    0.6696308551843335    0.8360740058246136    0.8370713768575253    
  0.7732025214091846    0.742547447164708    0.6869197670603429    0.7168501536073483    0.7732025943276757    
  0.7189814683087067    0.4460295942527882    0.19017151281868197    0.11528987715093494    0.19017148577029047    
  0.446029643838191    0.718981182126945    0.7732027073410317    0.7168501523364075    0.6869197670603429    
  0.6551956028842167    0.6869198411541328    0.7425474060107158    0.6629054134007916    0.355284139673231    
  0.1152898508409961    0.057838195612025314    0.11528986210987921    0.355284115407669    0.6629054065945954    
  0.7425475878424296    0.6869197273462107    0.6551956028842167    0.686919803845544    0.7168502842262271    
  0.7732025965299528    0.718981441121851    0.446029602353393    0.1901714717989914    0.11528986233683461    
  0.1901715025378306    0.4460296221069984    0.7189812384513337    0.773202698528496    0.7168501126857847    
  0.686919803845544    0.7168501539643592    0.7452289085866126    0.8016659827500829    0.7684807941396528    
  0.5331492405403709    0.27691570265251403    0.19017153143562018    0.27691572123140573    0.533149329918064    
  0.7684808438848736    0.8016660302593165    0.7452288954478605    0.7168501539643592    0.7732027034919214    
  0.8016660075138219    0.8617235381810022    0.8691470537168773    0.7334307316766339    0.5331492512430832    
  0.44602960563454763    0.5331493005009575    0.7334306571627934    0.8691469787796522    0.8617235262273301    
  0.8016660108093364    0.7732027034919214    0.7189813781931175    0.7684806808215041    0.8691469316096024    
  0.9198120326250709    0.8691469514019109    0.7684808430660567    0.7189812981366867    0.7684808084361254    
  0.8691469615339166    0.9198119394475953    0.8691470374756066    0.7684807574130201    0.7189813781931175    
  0.44602958464532527    0.5331492531798567    0.733430778265528    0.8691470430240603    0.8617233316912872    
  0.8016660414314719    0.7732027136273764    0.8016660419342436    0.8617235677882706    0.8691469591393419    
  0.7334307965566098    0.5331491901234896    0.44602958464532527    0.19017153912449322    0.2769156531541145    
  0.5331492571051616    0.7684808539595209    0.8016660972524203    0.7452288659407261    0.7168502752359966    
  0.7452288756988339    0.8016660386003012    0.7684808222778611    0.5331493013786561    0.27691560034781126    
  0.19017153912449322    0.1152898775797624    0.19017151525587095    0.4460295888713774    0.718981311190877    
  0.7732026336937897    0.7168501704084206    0.6869197553341383    0.7168501673805537    0.7732026347173813    
  0.7189812468237705    0.446029720807217    0.190171443332827    0.1152898775797624    0.19017152557143946    
  0.27691572110777374    0.5331492375391436    0.7684807545132115    0.8016660098605056    0.7452288716265845    
  0.7168502264431803    0.7452289315993738    0.8016661707149497    0.7684808886951404    0.5331492985771329    
  0.2769156520313639    0.19017152557143946    0.44602967712032443    0.5331492868675113    0.7334307999879278    
  0.8691471737949705    0.8617234665173222    0.8016660087011489    0.7732026792853818    0.8016661151989946    
  0.8617233526263791    0.8691469036205607    0.7334308062967005    0.5331492547391485    0.44602967712032443    