#     DFTpy    
  CRYSTAL 
    
  PRIMVEC    
  4.1465517241379315    0.0    0.0    
  0.0    4.1465517241379315    0.0    
  0.0    0.0    2.2844827586206895    
  PRIMCOORD    
  4    1    
  Si    0.0    0.0    0.0    
  Si    2.0732758620689657    2.0732758620689657    1.1422413793103448    
  Si    0.0    2.0732758620689657    0.5711206896551724    
  Si    2.0732758620689657    0.0    1.7133620689655171    
  BEGIN_BLOCK_DATAGRID_3D    
  3d_datagrid_density    
  BEGIN_DATAGRID_3D#0    
  19    19    11    
  0.0    0.0    0.0    
  4.1465517241379315    0.0    0.0    
  0.0    4.1465517241379315    0.0    
  0.0    0.0    2.2844827586206895    
  0.04997180326226418    0.09495279348343022    0.2788499742292599    0.5258874632952559    0.6236243637028736    
  0.6177506738934722    0.5875910087993371    0.5145749204764003    0.41529858014202664    0.3698268493929464    
  0.41529851697212977    0.5145748878120243    0.5875910086306986    0.617750652869644    0.6236243694953997    
  0.5258875118444255    0.27884998935032407    0.09495279864196335    0.04997180326226418    0.09495279792176606    
  0.14937594705240057    0.32942935908916693    0.5243411592520381    0.5832850903064991    0.5712737248629398    
  0.5510967076730953    0.5032309129346264    0.43147596680225647    0.3966181232046303    0.43147590151081716    
  0.5032309696978369    0.5510967017077102    0.5712737037193742    0.5832850623587776    0.5243411164497982    
  0.3294293290914256    0.1493759510096304    0.09495279792176606    0.27884996673626067    0.3294293495140576    
  0.43950399613282726    0.49966315439462483    0.4844436072351203    0.4614481902478462    0.459192455818757    
  0.458687902961271    0.4447871759956747    0.4350382254232525    0.4447871953888352    0.45868792591097296    
  0.4591924079053472    0.4614481886472159    0.48444360915146845    0.49966324047979366    0.4395039899856927    
  0.32942935202124873    0.27884996673626067    0.5258874797654848    0.5243411412458594    0.49966323947768954    
  0.4389266487986084    0.3770902011937042    0.34862261870959393    0.35729874191783156    0.3869418894107837    
  0.41466078960856245    0.4252066836183984    0.4146607482170179    0.38694185903507367    0.35729871165175875    
  0.3486226438675757    0.3770902071882081    0.4389266621141768    0.49966320678168896    0.5243411327265041    
  0.5258874797654848    0.6236243567017672    0.5832850698748127    0.4844436272627506    0.3770901976650582    
  0.30276967183349734    0.27446689317321166    0.2868203902703965    0.326157720797455    0.36860508975737244    
  0.38683290305775353    0.3686050681545864    0.3261577197413725    0.2868204213478768    0.27446687773306644    
  0.3027696683976175    0.377090195537431    0.48444359397549264    0.5832850610395752    0.6236243567017672    
  0.6177506722704755    0.5712737297059681    0.461448167202223    0.34862261918930676    0.2744668949248967    
  0.24783726853424978    0.2620453884281327    0.3040572665164494    0.34996612197005883    0.37000633657893317    
  0.3499661229129225    0.3040572743775834    0.26204535458750616    0.24783725867783307    0.27446691581869037    
  0.34862265323794195    0.46144818613836047    0.571273718998145    0.6177506722704755    0.5875910801290698    
  0.5510966870833102    0.45919242103321245    0.3572987269953983    0.2868203868936296    0.2620453898840761    
  0.2791352215630295    0.32438154008995906    0.37303217707906505    0.3944407738385791    0.3730321000546943    
  0.3243814926785686    0.27913520253015145    0.26204535813289315    0.28682040334277453    0.35729874943244944    
  0.4591923960817775    0.5510967292802047    0.5875910801290698    0.5145749482347379    0.503230955111112    
  0.45868792706752226    0.3869419018123514    0.32615774300160705    0.3040572977943128    0.32438155928188894    
  0.37383144430965715    0.4266028324346575    0.4501678063177237    0.4266028522223357    0.3738314848284568    
  0.32438154624764665    0.3040572640458255    0.32615774881677695    0.386941896355391    0.4586879616192878    
  0.5032309803798132    0.5145749482347379    0.4152985518802319    0.43147595650567566    0.4447871902128172    
  0.41466075957378107    0.3686050591708765    0.34996612681657663    0.37303213323783024    0.4266028173971284    
  0.48324929907444736    0.5084762499845176    0.48324933986587976    0.42660284059028325    0.3730321281672247    
  0.3499660921668021    0.3686050693925208    0.41466077802226475    0.444787149121562    0.4314759443120364    
  0.4152985518802319    0.36982681337982104    0.39661810674280457    0.43503825167832777    0.42520667993959727    
  0.3868329013474162    0.3700062784126291    0.39444073511998506    0.45016779745709196    0.5084762377618852    
  0.5341745911768317    0.5084761962001128    0.4501678221934913    0.39444073710113187    0.37000630085172764    
  0.38683288482361494    0.42520673344997467    0.4350382562231411    0.3966181045549811    0.36982681337982104    
  0.4152985452073694    0.4314759615310311    0.44478718873165835    0.4146608157820941    0.3686050752919676    
  0.34996610458568905    0.3730321206851964    0.4266027853011971    0.48324933686941773    0.5084762552943617    
  0.483249342574626    0.4266028577959673    0.3730321103912897    0.34996613574747376    0.36860508528979896    
  0.4146607573915044    0.4447871418425202    0.4314759607692205    0.4152985452073694    0.5145749587028581    
  0.5032309717862719    0.45868799038193897    0.3869418780600734    0.32615773386984226    0.30405724560646796    
  0.32438154685549475    0.37383145646177235    0.42660283031079066    0.4501678707592495    0.42660282097613644    
  0.3738314822269181    0.32438151586625136    0.3040573065000457    0.32615773906715345    0.38694188519363965    
  0.45868792714619094    0.5032309455199908    0.5145749587028581    0.5875910310551169    0.5510966912572111    
  0.4591924265132314    0.35729875004753425    0.2868204264605233    0.26204536555953156    0.2791352205385532    
  0.324381542397525    0.37303211665423003    0.3944407729202378    0.3730321098716339    0.3243815236741146    
  0.27913520700575695    0.2620453528353893    0.2868203829134487    0.3572987395824447    0.45919242047270076    
  0.5510966705928858    0.5875910310551169    0.6177506537693782    0.5712737221768098    0.46144823172976474    
  0.348622644943533    0.27446687557037014    0.24783727271805644    0.26204538399717275    0.304057264765026    
  0.3499661448457113    0.3700062732977129    0.3499661454718247    0.3040572787313182    0.262045387366281    
  0.24783726966172448    0.27446687644325485    0.3486226500183168    0.4614481830760791    0.5712736999391466    
  0.6177506537693782    0.6236243658688082    0.5832850439489078    0.48444359653425706    0.3770901569761949    
  0.3027696780131715    0.2744668602498028    0.2868204138196323    0.3261577024040332    0.3686050767029174    
  0.38683294081791403    0.36860504622083595    0.32615770626077495    0.2868203959564326    0.27446685517595565    
  0.30276972389716367    0.3770901686311249    0.4844436164540908    0.5832850119475104    0.6236243658688082    
  0.5258874969864377    0.5243411252935845    0.499663206338734    0.4389266165251977    0.3770901912303624    
  0.348622659278294    0.3572987331075843    0.3869419129066269    0.414660806862661    0.4252067405523307    
  0.4146607709698947    0.3869418767931807    0.3572987203398121    0.34862266106762163    0.377090221178377    
  0.4389266448259473    0.49966320665892755    0.5243411568388577    0.5258874969864377    0.2788499800363709    
  0.3294293131425146    0.43950398926276074    0.4996632165546712    0.4844436168275115    0.4614481794929516    
  0.45919243642338053    0.4586879383818497    0.44478718149837293    0.43503821817193056    0.44478718116857224    
  0.4586879295060379    0.4591924182528338    0.46144813235927223    0.48444364291362246    0.4996632160627704    
  0.4395040258815198    0.32942936425925784    0.2788499800363709    0.09495279183768136    0.14937592351229995    
  0.32942933965891874    0.5243411190682623    0.5832850644764948    0.571273717417174    0.5510967040305045    
  0.5032309560297801    0.43147597918097497    0.3966181479698027    0.4314759341682056    0.5032309299295518    
  0.5510966113277964    0.5712736901048113    0.5832851031680487    0.5243411122423627    0.32942932697159366    
  0.14937594896094336    0.09495279183768136    0.04997180326226418    0.09495279348343022    0.2788499742292599    
  0.5258874632952559    0.6236243637028736    0.6177506738934722    0.5875910087993371    0.5145749204764003    
  0.41529858014202664    0.3698268493929464    0.41529851697212977    0.5145748878120243    0.5875910086306986    
  0.617750652869644    0.6236243694953997    0.5258875118444255    0.27884998935032407    0.09495279864196335    
  0.04997180326226418    0.09202416324813396    0.1434560484686651    0.30971303771347397    0.48094009322027803    
  0.5222206784781289    0.5053589481945601    0.5048709141612656    0.5164045104108994    0.5191355815288466    
  0.5173598436647888    0.5191354850989771    0.5164044996268424    0.504870949002217    0.5053589827713724    
  0.5222206898129257    0.480940102314996    0.3097130507039732    0.14345605271156117    0.09202416324813396    
  0.14925538533496854    0.20460421554793654    0.35590906128403377    0.480675663566254    0.493069539146209    
  0.4703889741912873    0.47079543160953113    0.48737000100004163    0.4989317007858897    0.5019372215351174    
  0.498931706257109    0.4873700482090924    0.47079539146123606    0.4703889389652047    0.4930695388047944    
  0.4806756276678524    0.35590902976877414    0.2046042277277484    0.14925538533496854    0.34825885288695296    
  0.3865899486967345    0.454643647266149    0.4647537414743199    0.42162349919182746    0.3886890227045208    
  0.3908269418163237    0.41614564188326275    0.44250850997555957    0.4534391601914549    0.44250852909049343    
  0.4161457085756398    0.39082691678152826    0.3886890383231192    0.421623507073402    0.4647537720288606    
  0.4546436149294516    0.386589955380772    0.34825885288695296    0.5856797370982255    0.5699723811465237    
  0.5131680875376042    0.42378920965534983    0.34521547977872574    0.3070617293149728    0.31008746456145825    
  0.33979954269501883    0.3735843468801786    0.38832582750078637    0.3735843258801359    0.3397995624119709    
  0.31008745705362667    0.3070617214055454    0.34521547498682337    0.42378920906589357    0.5131680476732147    
  0.5699723592840128    0.5856797370982255    0.68469298462369    0.6344406703677552    0.513713507747605    
  0.3857249104344483    0.29706181327888953    0.2584590728248335    0.261532288300684    0.29182034197598966    
  0.32717855666880324    0.34273032023826394    0.3271785332527751    0.2918203519283534    0.261532304132281    
  0.2584590567715042    0.2970617955209181    0.38572490306796914    0.5137134722008749    0.6344407238359957    
  0.68469298462369    0.6843672690685982    0.6324894053866833    0.5088266440642732    0.3793378089365979    
  0.2907295381808227    0.2526444822918573    0.2562687840357491    0.28713561984712843    0.3230613842288976    
  0.33888369665862894    0.3230613441810758    0.2871356070069871    0.2562687719758351    0.25264446934515195    
  0.2907295761173426    0.3793378200385882    0.5088266627569051    0.6324893691313886    0.6843672690685982    
  0.6055940978595317    0.5807111461914064    0.5061037432112914    0.405823363699804    0.32509834719832253    
  0.2881136941207547    0.29319803212159073    0.3257625480994633    0.36279437231974354    0.3791497989287267    
  0.3627943479152287    0.3257625341419418    0.29319802254078553    0.2881136924099904    0.32509836849856816    
  0.4058233593120396    0.5061037540230239    0.5807110920922112    0.6055940978595317    0.4107132402601882    
  0.4348480436669319    0.46494622585982726    0.44132484654586224    0.3867274926444826    0.35415098105169873    
  0.3607378832040389    0.39428553201004096    0.4312406943869235    0.4475737765650127    0.4312407002654179    
  0.39428551658078415    0.3607378611796611    0.3541509805327731    0.38672748417349007    0.4413248615565276    
  0.464946169646119    0.43484809436993854    0.4107132402601882    0.22120709680198786    0.27249404726275667    
  0.3900938299654582    0.4602214865859535    0.44637382130363834    0.42177316931604547    0.4295866173375969    
  0.46255005796368526    0.49624750302521997    0.5104899862821657    0.49624753605343447    0.46255007393641556    
  0.42958656596842243    0.42177317487894467    0.4463738643159609    0.46022147679200914    0.3900938351337909    
  0.2724940586697307    0.22120709680198786    0.15708379579425105    0.21096484622449943    0.35288819053529147    
  0.4635773217990917    0.47103363078443933    0.45092278359536964    0.45942328274638533    0.4918765023516337    
  0.5230413275720122    0.5355516643137678    0.5230412923164095    0.4918765003664823    0.45942325505902676    
  0.4509227908457107    0.4710336096315964    0.46357736768559105    0.35288816923291144    0.21096486091855643    
  0.15708379579425105    0.22120708017103158    0.2724940616068719    0.39009383435150075    0.46022150710638315    
  0.4463738789029667    0.4217732128721166    0.42958656350257873    0.46255001772448445    0.49624755270306325    
  0.5104899811132991    0.4962475481528322    0.4625500805410877    0.4295865983181409    0.42177315622466843    
  0.44637384277650005    0.4602214674381763    0.39009377810359647    0.2724940463673097    0.22120708017103158    
  0.4107132089604537    0.4348480859649774    0.4649462178661574    0.44132481015161057    0.3867274535962903    
  0.35415097694442277    0.36073789202627915    0.3942855399087598    0.4312407049310459    0.44757381823143805    
  0.4312406570184889    0.3942855572437051    0.360737862928959    0.3541510053985784    0.38672747132075225    
  0.44132481770820725    0.4649461419198901    0.4348480705733773    0.4107132089604537    0.6055941143865605    
  0.5807110901084451    0.5061037554166394    0.40582338969798387    0.32509839730860896    0.28811370572208406    
  0.2931980530939604    0.32576255194679854    0.3627943569665073    0.3791498324108144    0.3627943308623909    
  0.325762538579081    0.29319802385593285    0.28811370692322036    0.32509835891613037    0.4058233791838517    
  0.5061037586257161    0.5807110684160071    0.6055941143865605    0.6843672581150222    0.632489383448399    
  0.5088266853646225    0.3793378303719655    0.2907295448977388    0.25264447568062626    0.25626878182250884    
  0.28713561256785225    0.32306137300405985    0.33888362541356565    0.32306133433655204    0.2871356360497848    
  0.2562687943975041    0.2526444806977146    0.29072952831347926    0.37933786345429243    0.5088266490476634    
  0.6324894007433542    0.6843672581150222    0.6846929626502329    0.6344407041481138    0.5137135037627855    
  0.38572486002357637    0.2970618155699665    0.25845905484397186    0.26153230804019406    0.2918203148915255    
  0.3271785507799698    0.3427303227397467    0.3271785451325382    0.2918203279358938    0.2615322770848626    
  0.25845904171219053    0.2970618728642777    0.3857248865027791    0.5137134713995615    0.6344407261011311    
  0.6846929626502329    0.5856797371475316    0.5699723583181272    0.5131680840886299    0.4237891852568323    
  0.3452154699542501    0.30706176017750286    0.31008745383012487    0.3397995904459181    0.3735843741605735    
  0.38832585690972515    0.3735843295406068    0.3397995392742028    0.3100874535548358    0.3070617293826233    
  0.3452154922252687    0.4237892392458461    0.5131680793984376    0.5699724143452484    0.5856797371475316    
  0.3482588634397328    0.38658991507950186    0.4546436427615105    0.4647537624335516    0.42162349908298186    
  0.3886890062095054    0.39082691134280956    0.4161456663494824    0.4425085190735124    0.45343908867492844    
  0.4425085075348786    0.4161456909489    0.39082692753949144    0.3886889973602328    0.4216235305164884    
  0.4647537883730536    0.45464368571881597    0.3865899501935808    0.3482588634397328    0.14925538841900404    
  0.20460420636005824    0.35590904472065277    0.4806756416136921    0.4930695607798066    0.4703889352705472    
  0.4707954606819165    0.48737002907028404    0.49893171410314274    0.5019372660703281    0.49893168448229974    
  0.48737005591998983    0.47079542755043985    0.4703888859846862    0.4930695373024384    0.4806756494081882    
  0.3559090303018253    0.20460422461482966    0.14925538841900404    0.09202416324813396    0.1434560484686651    
  0.30971303771347397    0.48094009322027803    0.5222206784781289    0.5053589481945601    0.5048709141612656    
  0.5164045104108994    0.5191355815288466    0.5173598436647888    0.5191354850989771    0.5164044996268424    
  0.504870949002217    0.5053589827713724    0.5222206898129257    0.480940102314996    0.3097130507039732    
  0.14345605271156117    0.09202416324813396    0.2563362049475325    0.3026134935467918    0.3993418565493766    
  0.4453565761988027    0.4249126898669804    0.4048156217078746    0.4212444468870455    0.46702092442116544    
  0.5149902859882782    0.5359595224833114    0.5149902081995413    0.46702094231792796    0.4212444189051226    
  0.4048155918662194    0.4249126997761914    0.44535659856040033    0.3993418296301    0.302613511572516    
  0.2563362049475325    0.3177123149526878    0.35541358170593756    0.4234358268947585    0.43818552369780145    
  0.40390195760644954    0.3807624040407359    0.3959165424818516    0.4401432971581262    0.487431524479537    
  0.5084381832283335    0.487431505500682    0.4401433705402195    0.3959165146860459    0.38076237760745407    
  0.40390194033666815    0.4381855225851976    0.4234357397482584    0.35541357964977116    0.3177123149526878    
  0.4722685580013465    0.4783162025916327    0.467589869724758    0.4147143493672031    0.35402176488451303    
  0.325330673338175    0.3380331157849617    0.37918565760839446    0.424179912902626    0.44433238644434275    
  0.4241799090639601    0.37918569842172273    0.3380331026291649    0.3253306852354717    0.35402178017647296    
  0.4147143499949937    0.46758979294117914    0.4783162416060578    0.4722685580013465    0.6072532642569665    
  0.5748460079622121    0.48758216205841065    0.38283460367778377    0.30502676046136257    0.2727785232422627    
  0.2826898146731899    0.3203540685866652    0.36210853454866077    0.3805506371143785    0.3621085073548064    
  0.32035406488287643    0.2826898122914554    0.27277853278052394    0.30502675655945605    0.3828346222795862    
  0.4875821507724379    0.5748459830950226    0.6072532642569665    0.6606544352791456    0.6102055816983141    
  0.49053865275032343    0.36646853104347404    0.2829700440017761    0.2490454772590008    0.2564511343236229    
  0.29121815707285414    0.3306169659752749    0.3479088742332118    0.3306169294595447    0.29121816724308064    
  0.25645116095857684    0.24904548814717714    0.28297003908605545    0.36646854589493777    0.49053861026400813    
  0.6102055839912267    0.6606544352791456    0.6626388765074949    0.6166255033705009    0.5049521585115175    
  0.3849227778956108    0.3012788273798058    0.2659994276749425    0.2719513958124697    0.30503101342318706    
  0.342595472519736    0.358976151782939    0.3425954781234299    0.30503102830376194    0.271951384979561    
  0.2659993905139228    0.3012788478693545    0.3849228110242877    0.5049521636732328    0.6166254893994629    
  0.6626388765074949    0.5560340169553334    0.5487480848396998    0.510079057654487    0.4350886035094745    
  0.36326297762107346    0.32798689714811546    0.3321366276633818    0.360969359124048    0.3919733709569244    
  0.40497170576652886    0.391973326056386    0.36096932461697084    0.3321366050460349    0.3279868762913931    
  0.3632629860993026    0.43508861566535706    0.5100790476103015    0.5487480788236703    0.5560340169553334    
  0.3013884068903652    0.348275277793477    0.4439440010216426    0.4842506119526759    0.45542256746776066    
  0.4258779555286874    0.4251809438700749    0.43972373876500864    0.44981947775063735    0.4522575183480587    
  0.44981949236774466    0.4397237491457751    0.4251809451942267    0.4258779308215448    0.4554225709281183    
  0.4842506117798586    0.44394401153668783    0.34827533066476707    0.3013884068903652    0.10840680568016435    
  0.16301954277169964    0.33293948938221296    0.5014163177770291    0.5402448528941878    0.5222651235799601    
  0.5138552487414891    0.504480880399002    0.48075948009058367    0.4666925964183042    0.48075949224308145    
  0.504480899063068    0.5138552066173582    0.5222651227850544    0.540244895127792    0.5014163018561254    
  0.3329394951489159    0.16301954989466333    0.10840680568016435    0.059410852469770195    0.10591411248024486    
  0.2825287503496186    0.5007174761291696    0.5747091289468853    0.5632534737913767    0.5506158589899647    
  0.5280089110859139    0.4861752230569413    0.46361756837021834    0.4861751782441402    0.5280089687629697    
  0.5506159077570058    0.5632534781544536    0.5747091083334261    0.500717525534632    0.28252873952301416    
  0.10591411903328186    0.059410852469770195    0.10840680259789492    0.16301954359416324    0.33293954541887755    
  0.5014163107904219    0.5402448977432064    0.5222651696896257    0.5138552631422456    0.5044808767375107    
  0.4807594892492667    0.4666925937504999    0.4807594934722728    0.504480909892216    0.5138552086481849    
  0.522265177813107    0.5402448760415228    0.5014163398233034    0.3329394866033746    0.16301954971395655    
  0.10840680259789492    0.3013883870234069    0.34827532930030797    0.44394401395486893    0.48425057773030455    
  0.45542253552870116    0.42587792824496307    0.4251809547226771    0.4397236999607567    0.4498195186630645    
  0.45225760929106046    0.449819464937007    0.4397237617723675    0.4251809496317119    0.42587795211803514    
  0.45542253119655796    0.4842506221388136    0.4439439813426408    0.34827530079512575    0.3013883870234069    
  0.5560340107567645    0.5487480592250625    0.510079021048756    0.43508862932828396    0.3632630320704769    
  0.3279868735103597    0.33213663676816035    0.3609693329618465    0.39197334496252173    0.4049716766398655    
  0.3919733269917254    0.360969313486869    0.33213658604367213    0.32798688282965893    0.3632629984496661    
  0.4350886202386281    0.5100790665307224    0.5487480361049909    0.5560340107567645    0.6626388718628196    
  0.6166255227493798    0.504952203665448    0.38492280213285807    0.3012788262110726    0.2659994165922621    
  0.27195141320835686    0.305031013318993    0.34259549791266575    0.3589761145390867    0.34259546069570024    
  0.30503102669349885    0.27195139980114375    0.2659994393204695    0.3012788161283853    0.3849228312380819    
  0.5049521364659502    0.6166255368349246    0.6626388718628196    0.6606543987613508    0.6102055944208805    
  0.4905386057933977    0.36646848442134117    0.2829700485285172    0.24904546931143245    0.2564511555649879    
  0.2912181338017679    0.33061696147283076    0.3479088846382938    0.3306169301706288    0.2912181491719353    
  0.2564511300438952    0.249045454605203    0.28297007997004175    0.366468532436193    0.490538631048349    
  0.6102055893027402    0.6606543987613508    0.6072533012310375    0.5748460030508632    0.4875821973998302    
  0.38283459449829244    0.3050267497966103    0.2727785520387013    0.28268980621717144    0.32035410370193146    
  0.3621085533725115    0.3805506910027072    0.362108506561434    0.320354066908474    0.28268980724872694    
  0.2727785266471261    0.3050267432579915    0.38283463651076655    0.4875821810373659    0.5748460085663109    
  0.6072533012310375    0.47226859601022386    0.4783162214317541    0.46758983712957686    0.4147143278641592    
  0.354021774267992    0.3253306554672591    0.3380331002754695    0.37918567839411127    0.42417992263631454    
  0.4443323318223209    0.42417990259358923    0.37918568491511    0.3380330948625906    0.3253306762003396    
  0.35402178986003446    0.4147143194837756    0.46758985422813415    0.47831619387557767    0.47226859601022386    
  0.3177122804459324    0.3554135776476495    0.4234357719320399    0.43818552820152135    0.4039019274964467    
  0.3807624011274569    0.39591652449385206    0.44014335482163186    0.4874315222402703    0.5084382145851563    
  0.48743149340718434    0.44014334956612866    0.3959165213994277    0.38076237026284654    0.4039019605078047    
  0.4381855433216638    0.4234357837753471    0.3554135952841965    0.3177122804459324    0.2563362049475325    
  0.3026134935467918    0.3993418565493766    0.4453565761988027    0.4249126898669804    0.4048156217078746    
  0.4212444468870455    0.46702092442116544    0.5149902859882782    0.5359595224833114    0.5149902081995413    
  0.46702094231792796    0.4212444189051226    0.4048155918662194    0.4249126997761914    0.44535659856040033    
  0.3993418296301    0.302613511572516    0.2563362049475325    0.46361855040309985    0.4666915758969767    
  0.45225852548857426    0.40497077830996503    0.3589769679299932    0.34790802882748684    0.38055153511672535    
  0.4443313952212629    0.5084392363083713    0.5359584844773809    0.5084391790878898    0.4443314154707366    
  0.3805515172269812    0.34790800268305827    0.3589769543986909    0.40497078083037585    0.45225849817701597    
  0.46669159782363395    0.46361855040309985    0.486174225609331    0.4807604718744637    0.44981857013636223    
  0.39197424162793304    0.3425946442766107    0.33061779024987975    0.36210764505678017    0.4241807824377965    
  0.48743051628305173    0.5149912675391122    0.4874305014259399    0.42418085295881536    0.36210763072858165    
  0.33061777490088806    0.34259462459271395    0.39197421399072435    0.4498185046721487    0.48076047626831125    
  0.486174225609331    0.5280099823346166    0.5044799069099101    0.4397247041232511    0.3609684806562666    
  0.3050318186356816    0.291217379554782    0.3203549022788479    0.3791847737348696    0.44014430855758946    
  0.4670200248591289    0.4401443012462418    0.37918484084764953    0.32035490486301543    0.2912173939885214    
  0.3050318354567785    0.3609684867383738    0.43972466418508893    0.5044799020761515    0.5280099823346166    
  0.5506148820327786    0.5138562668831053    0.4251800099026135    0.33213744392956207    0.27195063993427104    
  0.2564518454095168    0.28268904511156007    0.3380338980547886    0.39591565668159745    0.42124536827661585    
  0.3959156381936706    0.33803392071571037    0.28268904377547294    0.25645186051780017    0.2719506540149753    
  0.3321374463096492    0.42517998898519505    0.5138562674493532    0.5506148820327786    0.5632545638915604    
  0.5222641065822509    0.425878897193307    0.3279860701718869    0.2660001885440294    0.24904474555615674    
  0.2727792872207716    0.3253298433127003    0.38076328102710466    0.40481473420234765    0.3807632609080289    
  0.3253298554084548    0.2727793315633953    0.2490447598615252    0.26600017555920996    0.3279860669275856    
  0.4258788574672604    0.5222641323972104    0.5632545638915604    0.5747080794168222    0.5402458955035027    
  0.45542158070340993    0.3632638116151649    0.3012780347501472    0.28297079025109656    0.30502595442256775    
  0.3540226121346994    0.40390102133939665    0.42491369523581957    0.40390105054577197    0.3540226189715065    
  0.3050259434371819    0.28297078154820704    0.30127805898622356    0.3632638485057041    0.4554215922923158    
  0.5402458923304524    0.5747080794168222    0.5007184850511326    0.5014153501058543    0.4842515713872418    
  0.4350876664387704    0.3849237025261446    0.3664676756516491    0.3828355042644789    0.4147134602904662    
  0.43818651968674266    0.44535567884601907    0.4381864670255952    0.4147134153400742    0.3828354788761149    
  0.3664676603157805    0.3849237123522852    0.4350876950481557    0.48425157506605737    0.501415340096866    
  0.5007184850511326    0.28252796585315054    0.3329403145256096    0.4439430723574139    0.5100800526879992    
  0.5049511839187849    0.4905396098348245    0.4875812298556018    0.46759079252754515    0.4234348616694201    
  0.39934274377036794    0.4234348618198986    0.467590801760605    0.4875811959816324    0.4905395848599614    
  0.5049511890583891    0.5100800653170925    0.4439430810506325    0.33294038102014495    0.28252796585315054    
  0.10591465386147578    0.1630189014559407    0.3482761278803533    0.5487470008120494    0.6166265844749048    
  0.6102045136944723    0.574847054062775    0.4783152487360242    0.35541444821571994    0.3026127207477606    
  0.3554144544526109    0.47831522139985677    0.5748470145591802    0.6102044680991164    0.6166266660756445    
  0.5487470041484089    0.3482761464432222    0.16301890419871962    0.10591465386147578    0.05941042653388912    
  0.10840734381293961    0.3013875907214456    0.5560350252387972    0.6626377551408652    0.6606555399912647    
  0.6072521578833721    0.4722694884620451    0.3177115015808259    0.25633696585711246    0.3177114537353267    
  0.4722694906986876    0.6072521831230142    0.6606555474598617    0.6626377466565051    0.556035086176588    
  0.3013875981446874    0.10840735358075383    0.05941042653388912    0.10591465549175019    0.16301889839625036    
  0.3482761916929853    0.5487469951504005    0.6166266553621382    0.6102045454444142    0.5748470563641676    