#     DFTpy    
  CRYSTAL 
    
  PRIMVEC    
  1.2592555820087914    -2.181094647753944    0.0    
  1.2592555820087914    2.181094647753944    0.0    
  0.0    0.0    4.257647517172415    
  PRIMCOORD    
  2    1    
  Si    1.2592555820087914    0.7270315492513147    1.0644118792931037    
  Si    1.2592555820087916    -0.7270315492513147    3.19323563787931    
  BEGIN_BLOCK_DATAGRID_3D    
  3d_datagrid_density    
  BEGIN_DATAGRID_3D#0    
  11    11    19    
  0.0    0.0    0.0    
  1.2592555820087914    -2.181094647753944    0.0    
  1.2592555820087914    2.181094647753944    0.0    
  0.0    0.0    4.257647517172415    
  0.18148174916917328    0.1948552176645016    0.23261008486473772    0.2859439840473801    0.3352337017606413    
  0.355498648959677    0.33523366961168394    0.28594400739104375    0.23261007305339126    0.19485521867112388    
  0.18148174916917328    0.1948552183471165    0.19485909176746188    0.2204308792244344    0.2663221074503963    
  0.3186018895017511    0.3538748230720919    0.3538775486778894    0.31860189963464025    0.2663244454044141    
  0.22043102538397766    0.1948552183471165    0.23261007064435835    0.22043085638118295    0.23261227155605108    
  0.2663191402974569    0.31205002340050336    0.35148943339753363    0.3666506335855689    0.35149093363330847    
  0.31204665261888676    0.2663244367526159    0.23261007064435835    0.28594401632363786    0.2663221523934766    
  0.26631913596942197    0.28594137116074686    0.3186036670087479    0.35149469534356037    0.37088158819443556    
  0.37089044721788905    0.3514909389013125    0.3186018914613677    0.28594401632363786    0.3352336718901956    
  0.3186018931181941    0.3120500071334166    0.31860363790142643    0.33523695601580694    0.35387431974345873    
  0.36664725242645746    0.37088156818463325    0.36665065601540053    0.3538775215652522    0.3352336718901956    
  0.35549865841554507    0.353874837196076    0.3514894621234161    0.3514946827176513    0.3538743763343691    
  0.3554943114876163    0.35387437223412643    0.3514946901618368    0.35148942357958607    0.35387482953301846    
  0.35549865841554507    0.3352336646184922    0.3538775488661469    0.3666506445007571    0.3708815581807714    
  0.3666472550863022    0.3538743546207956    0.33523696392748836    0.3186036574809476    0.31205000706631664    
  0.3186018605573498    0.3352336646184922    0.28594402526489143    0.31860189585042753    0.3514909378831006    
  0.37089047095772093    0.37088158189835774    0.35149466714931904    0.3186036586297437    0.2859413868995568    
  0.2663191366855371    0.2663221135686417    0.28594402526489143    0.2326101098515636    0.2663244271633313    
  0.3120466710746739    0.351490933191037    0.36665064497766986    0.35148942838478237    0.3120500287817679    
  0.2663190950236404    0.2326122662393588    0.22043084810725494    0.2326101098515636    0.19485521121308585    
  0.22043102471408843    0.2663244383540221    0.3186018818291168    0.3538775270282971    0.3538748058767762    
  0.31860188439589643    0.2663221349968842    0.22043086221648925    0.1948590986283684    0.19485521121308585    
  0.18148174916917328    0.1948552176645016    0.23261008486473772    0.2859439840473801    0.3352337017606413    
  0.355498648959677    0.33523366961168394    0.28594400739104375    0.23261007305339126    0.19485521867112388    
  0.18148174916917328    0.19672417950935267    0.21051713773826855    0.24951036644194116    0.30381969530727054    
  0.3526341067604229    0.37230230970854317    0.352632335398485    0.30381709796426487    0.24950668038319954    
  0.2105185883553241    0.19672417950935267    0.21051859585411822    0.2105185641682439    0.23207995275442145    
  0.2693564596059036    0.31090810554504716    0.3385527581324304    0.33855268817958134    0.31091124761043204    
  0.26936122401856505    0.23207572572947632    0.21051859585411822    0.2495066835761002    0.24185020611910182    
  0.24950765690377222    0.2693547732678365    0.29524130515905295    0.3171992555957441    0.32539297680752627    
  0.31720116240605034    0.29523477243224144    0.2693611884596868    0.2495066835761002    0.30381711562365343    
  0.2985561211408194    0.29855406952747265    0.30382044590893786    0.31091234025721226    0.31720526962617174    
  0.3202452124000366    0.32024868657305666    0.3172011543617751    0.3109112620331974    0.30381711562365343    
  0.3526323431292682    0.36018597574991484    0.3616506413877398    0.3601838865250374    0.35263843864222494    
  0.33854702016685256    0.32539452487660325    0.3202451926258998    0.3253929781970616    0.3385526850449212    
  0.3526323431292682    0.37230232761989146    0.39901251719685477    0.4085629221815394    0.4085602261451777    
  0.39901170452642193    0.37230192483738933    0.33854704563471544    0.31720527544177396    0.31719926167801293    
  0.3385527561125296    0.37230232761989146    0.35263408169922744    0.39901418936556043    0.42403959207611763    
  0.42885593472808897    0.42403600515858747    0.3990117078752699    0.35263843005809686    0.3109123228340579    
  0.2952413279894679    0.3109080923702191    0.35263408169922744    0.3038196980826531    0.3601934787133007    
  0.4085647774568292    0.4288567323238037    0.4288559820690908    0.4085602272345894    0.3601839205971293    
  0.3038204692337289    0.269354778242786    0.2693564646529261    0.3038196980826531    0.24951038343491422    
  0.298558779457285    0.36164274332461654    0.408564736257081    0.4240396111967907    0.40856290846222215    
  0.36165064815855597    0.2985540560564964    0.2495076465487275    0.23207993920516629    0.24951038343491422    
  0.2105171297652151    0.2418467137486895    0.29855877931485697    0.3601934900561577    0.3990141794142819    
  0.39901250401381777    0.3601859647497849    0.29855613575918755    0.2418502472074418    0.2105185771053502    
  0.2105171297652151    0.19672417950935267    0.21051713773826855    0.24951036644194116    0.30381969530727054    
  0.3526341067604229    0.37230230970854317    0.352632335398485    0.30381709796426487    0.24950668038319954    
  0.2105185883553241    0.19672417950935267    0.23863152060813997    0.25371193081683163    0.29564946198351505    
  0.3499955035820376    0.39255394459111176    0.407591241939496    0.392510581900116    0.350001101190804    
  0.29567003300367367    0.25370835924975504    0.23863152060813997    0.25370835766115896    0.2537048899324551    
  0.2723378377294527    0.3030891346292556    0.33504116855902544    0.3550459534663921    0.3550503926932972    
  0.33508299173560646    0.30308716128274504    0.27230754375122856    0.25370835766115896    0.2956700340289415    
  0.29228466828257144    0.2956373342883253    0.30307975098662265    0.31127126194461213    0.31728819089159704    
  0.3192188404448974    0.31728911956887434    0.3112270694275978    0.30308715006529036    0.2956700340289415    
  0.35000113748510464    0.35620682272472637    0.3562479211485621    0.3500085088218355    0.3350443984708749    
  0.3172948645455071    0.3053893546371935    0.30538849552054387    0.31728911592139947    0.3350830491049063    
  0.35000113748510464    0.3925105425226697    0.40877697579259015    0.40959522472338905    0.4087798311139479    
  0.39256388112827173    0.35503447157800755    0.3192256334132099    0.3053893398435986    0.3192188516145726    
  0.3550503795457277    0.3925105425226697    0.4075912612034555    0.4275974619100258    0.4117840040764941    
  0.4117678513823627    0.4275248117967025    0.40762936003797395    0.35503449218601163    0.3172948749197394    
  0.3172882064981874    0.3550459477313708    0.4075912612034555    0.3925539183799239    0.4275681052517532    
  0.399180068445476    0.3717743862693031    0.3992393388771028    0.42752476955050145    0.3925638889197948    
  0.33504440436426886    0.31127125391744087    0.3350411694841056    0.3925539183799239    0.3499955300450212    
  0.4087962094342635    0.4117778799435424    0.3718062672325754    0.3717744336428472    0.41176786581476926    
  0.40877986271597017    0.3500085304018434    0.3030797433619621    0.30308915101601275    0.3499955300450212    
  0.2956494569331009    0.356245280476431    0.4095883271936134    0.4117778422555785    0.39918007977188136    
  0.4117840060672618    0.4095952621232249    0.3562478790302388    0.2956373437710546    0.2723378158793414    
  0.2956494569331009    0.2537119431306834    0.2922650080402367    0.35624528866944755    0.4087962165107244    
  0.427568109772565    0.42759743768969094    0.408776995505692    0.35620684584134316    0.2922847032611238    
  0.2537048834686363    0.2537119431306834    0.23863152060813997    0.25371193081683163    0.29564946198351505    
  0.3499955035820376    0.39255394459111176    0.407591241939496    0.392510581900116    0.350001101190804    
  0.29567003300367367    0.25370835924975504    0.23863152060813997    0.29281216077482985    0.3096154084449136    
  0.3537791137750857    0.40170206256872076    0.42488154516096044    0.42751879879549465    0.4246685049498161    
  0.40173473405640375    0.3539111879509801    0.3095861703973287    0.29281216077482985    0.3095861688161678    
  0.3095644337015421    0.325880882047871    0.3510481999436624    0.37318480861984593    0.3845151792648125    
  0.3845286042078735    0.3733667767257081    0.3510268973198939    0.3257442342375739    0.3095861688161678    
  0.353911188840565    0.3541363804134163    0.3537586466650134    0.3510075747288591    0.3443261864672233    
  0.33680859587118533    0.33369124083411145    0.33682906298552384    0.3441416956055276    0.3510268827728614    
  0.353911188840565    0.40173474677299986    0.41106287698154836    0.41125760580482434    0.4017460869314245    
  0.3731833198091299    0.33685454047127245    0.3132558616191074    0.31322854833344016    0.33682904861432705    
  0.373366790786211    0.40173474677299986    0.4246685382112221    0.41831365544294963    0.402947778526155    
  0.41832635817063646    0.42488058796022804    0.3844906952352954    0.3336721658621828    0.3132558452981165    
  0.33369127479721367    0.3845285671698687    0.4246685382112221    0.4275188422159427    0.38417114665150054    
  0.30542654254661034    0.3053735761836302    0.38389917923815614    0.42767036118231694    0.38449072515114624    
  0.3368545244405642    0.336808577467765    0.38451518435991433    0.4275188422159427    0.42488152682469355    
  0.3840363826314266    0.2512751370201085    0.18884729194798996    0.251496312153691    0.38389918257750655    
  0.4248806012184023    0.37318331754498657    0.34432618304573526    0.37318478289416407    0.42488152682469355    
  0.4017020717498374    0.41830522050600494    0.3054254984101035    0.1889610968596576    0.18884729794236582    
  0.30537355554849593    0.41832635958488124    0.401746105639008    0.35100757686434597    0.35104821815752807    
  0.4017020717498374    0.3537791211864582    0.4112701421955769    0.40289164981909825    0.3054254925387597    
  0.2512751362257364    0.305426524569759    0.4029477951623041    0.4112575633265288    0.3537586580386263    
  0.32588084646233045    0.3537791211864582    0.3096153970881624    0.3540379585016668    0.411270126985912    
  0.41830521697652656    0.38403636959119675    0.38417109351742895    0.41831364961442613    0.41106285165421536    
  0.35413640334716834    0.30956444278524786    0.3096153970881624    0.29281216077482985    0.3096154084449136    
  0.3537791137750857    0.40170206256872076    0.42488154516096044    0.42751879879549465    0.4246685049498161    
  0.40173473405640375    0.3539111879509801    0.3095861703973287    0.29281216077482985    0.33231210623825225    
  0.3502028616472393    0.39459475528676813    0.43310113562079516    0.43470492018478957    0.42466733722901834    
  0.43433319506457696    0.43315333843125464    0.39486527025341256    0.35014308133083905    0.33231210623825225    
  0.3501430667784042    0.3501034218500444    0.3650683743817823    0.38663139455463025    0.4012870873505947    
  0.4053415352840361    0.40535937905577746    0.4016068861429216    0.3865938794683186    0.3648068179058045    
  0.3501430667784042    0.3948652684325166    0.39681537855845267    0.3945734914529468    0.38656386570673223    
  0.37107904364149286    0.3550376914065759    0.3487966479680866    0.3550865892864264    0.370752612055593    
  0.38659384430978255    0.3948652684325166    0.4331533712496541    0.4382586757377857    0.43861837731088416    
  0.43316551436691664    0.40128199696774114    0.3551230802957202    0.32496942334794887    0.32489309986051285    
  0.3550865826261358    0.4016069135967223    0.4331533712496541    0.4343331393153191    0.3962523126929941    
  0.3640339066417029    0.3962781700527465    0.43468191755936625    0.40532120205941424    0.348730342842326    
  0.32496941371944443    0.34879666012169935    0.4053593662374887    0.4343331393153191    0.4246673713823209    
  0.3191754137467421    0.2049507720225409    0.20485865732108705    0.3187902380086376    0.42489966122482276    
  0.4053212399968177    0.35512310058635976    0.35503767748799947    0.40534153223145203    0.4246673713823209    
  0.4347048640664246    0.31897584465109247    0.14026032152336956    0.08113084457884603    0.14052853089392675    
  0.318790236913226    0.43468191620050795    0.4012819616818014    0.37107908071235396    0.4012870795700673    
  0.4347048640664246    0.43310117480151683    0.39619870913096716    0.2049616336894559    0.08123974249749977    
  0.08113084439677228    0.20485866226971944    0.3962782021731015    0.43316556336322315    0.3865638693616215    
  0.38663141142590135    0.43310117480151683    0.394594769117549    0.4386593246868363    0.36391094519630074    
  0.20496159635654695    0.14026033223437814    0.2049507582297522    0.3640339280729605    0.4386183614552107    
  0.3945734928924719    0.36506834667689314    0.394594769117549    0.35020284100927984    0.3966298010375255    
  0.4386593281661101    0.3961987123507574    0.3189758423169265    0.31917542081112715    0.396252296365181    
  0.4382586845029127    0.39681540215102656    0.35010342819011325    0.35020284100927984    0.33231210623825225    
  0.3502028616472393    0.39459475528676813    0.43310113562079516    0.43470492018478957    0.42466733722901834    
  0.43433319506457696    0.43315333843125464    0.39486527025341256    0.35014308133083905    0.33231210623825225    
  0.3323121752903756    0.35020280308273455    0.39459482234648996    0.43310107967461325    0.4347049787887699    
  0.4246672867803073    0.43433323469906954    0.4331532838543231    0.394865322716514    0.3501430293022832    
  0.3323121752903756    0.35014301348545235    0.350103469257004    0.3650683142073335    0.3866314515620205    
  0.40128703474222993    0.40534158731241077    0.4053593235115647    0.4016069454019132    0.38659380442226765    
  0.36480689161920604    0.35014301348545235    0.3948653211497692    0.3968153100304928    0.39457353185853106    
  0.38656379344656255    0.3710791031898122    0.3550376113027976    0.3487967278631597    0.35508651890138915    
  0.37075267811602763    0.38659380230811724    0.3948653211497692    0.4331533357263879    0.4382587194860438    
  0.4386183407309747    0.4331655760818082    0.4012819186150354    0.3551231453458835    0.3249693707111086    
  0.32489313087199556    0.3550865186779354    0.40160698858683275    0.4331533357263879    0.4343332373465475    
  0.39625225510551587    0.3640339660384653    0.39627809534256675    0.4346819928605515    0.40532111919433145    
  0.34873040266048616    0.3249693441969435    0.34879674702873686    0.4053592899080187    0.4343332373465475    
  0.4246673273020992    0.31917549295164677    0.20495072222211252    0.20485870944549237    0.31879019525681646    
  0.42489971083286987    0.40532117422399233    0.3551231625774565    0.3550376164177297    0.40534159206289494    
  0.4246673273020992    0.434704945472787    0.31897577706668945    0.14026036794234556    0.08113080890376395    
  0.14052856775262493    0.3187901705607683    0.43468197994368496    0.40128191529670537    0.3710791205914548    
  0.401287020798553    0.434704945472787    0.43310109955143833    0.3961987546484508    0.2049615970698244    
  0.08123977180869235    0.081130823007161    0.20485871701286845    0.3962781206864415    0.43316561085871086    
  0.3865637930826947    0.3866314688754402    0.43310109955143833    0.394594830482925    0.438659260777091    
  0.3639110215009213    0.20496155351076847    0.14026037652911466    0.20495071349272873    0.36403398517865    
  0.4386182742523265    0.39457355179241005    0.3650683044725645    0.394594830482925    0.3502027894929041    
  0.39662985045954974    0.43865925856337035    0.39619876671862597    0.31897577877321776    0.31917546697438676    
  0.39625224166918666    0.4382587534699122    0.39681534051314005    0.35010348124448    0.3502027894929041    
  0.3323121752903756    0.35020280308273455    0.39459482234648996    0.43310107967461325    0.4347049787887699    
  0.4246672867803073    0.43433323469906954    0.4331532838543231    0.394865322716514    0.3501430293022832    
  0.3323121752903756    0.2928121002150342    0.3096154641797277    0.35377905399332255    0.4017021147113515    
  0.42488148843196033    0.4275188535768688    0.4246684544049087    0.40173478559809517    0.3539111235074634    
  0.3095862206394063    0.2928121002150342    0.309586221444187    0.30956438709531475    0.3258809375141469    
  0.3510481501361622    0.37318487186604343    0.38451511295765084    0.38452866527752855    0.37336671697393414    
  0.3510269596322328    0.3257441739739041    0.309586221444187    0.35391112969247646    0.35413645508381725    
  0.3537585855896057    0.3510076253012199    0.34432613824685115    0.33680864911494296    0.3336911940701442    
  0.33682911682627575    0.3441416309966135    0.3510269463555634    0.35391112969247646    0.4017348039786413    
  0.41106281152679647    0.41125766574059197    0.4017460400816036    0.3731833881408916    0.3368544652763126    
  0.31325592367638133    0.3132284956328831    0.33682911385282377    0.3733667247630836    0.4017348039786413    
  0.42466845815533866    0.4183137241448997    0.40294770271229735    0.4183264243958276    0.4248805063220188    
  0.3844907549997771    0.3336720944057809    0.31325591220487187    0.333691209920841    0.38452862519690456    
  0.42466845815533866    0.4275189140426383    0.3841710728404986    0.3054265989626073    0.30537351260949974    
  0.3838992443532055    0.4276703313754621    0.38449079912342754    0.3368544676388765    0.3368086335261561    
  0.38451512803494364    0.4275189140426383    0.42488145529603183    0.384036431085421    0.25127508742874316    
  0.1888473348102311    0.2514962613278407    0.3838992429121559    0.4248805152821935    0.37318337150554803    
  0.34432612645210814    0.3731848257068006    0.42488145529603183    0.4017021356449061    0.41830515767687554    
  0.3054255540806677    0.18896105470838948    0.18884733852516788    0.3053734995035937    0.41832642636798684    
  0.4017460364621975    0.351007626175393    0.35104816694894697    0.4017021356449061    0.3537790724961035    
  0.4112701817363038    0.4028915784186758    0.30542553963950264    0.25127508707322566    0.30542657402303536    
  0.40294774713690223    0.41125762471231836    0.35375861227349586    0.3258809059059697    0.3537790724961035    
  0.309615450471318    0.35403789309207523    0.41127019684546096    0.4183051613069944    0.3840364333919791    
  0.38417103357613464    0.41831370343729063    0.4110628046211479    0.35413646299233315    0.30956438946663634    
  0.309615450471318    0.2928121002150342    0.3096154641797277    0.35377905399332255    0.4017021147113515    
  0.42488148843196033    0.4275188535768688    0.4246684544049087    0.40173478559809517    0.3539111235074634    
  0.3095862206394063    0.2928121002150342    0.2386315681367039    0.2537118926149558    0.29564950790416056    
  0.3499954598408393    0.3925539985797068    0.4075911672558946    0.39251062900815603    0.3500010298803445    
  0.2956700905644052    0.2537083024687945    0.2386315681367039    0.2537083211367194    0.2537049419814241    
  0.27233778418167903    0.303089184682593    0.3350411162554108    0.35504601940844777    0.35505034186893747    
  0.3350830673116555    0.3030871170932235    0.2723075776829108    0.2537083211367194    0.29567009396471367    
  0.2922846300575236    0.29563738025789277    0.30307969645658656    0.3112713006260507    0.3172881477917066    
  0.3192188763911471    0.3172890695145007    0.3112271194171402    0.3030871057020655    0.29567009396471367    
  0.35000105091659883    0.35620690412040446    0.3562478542041293    0.35000857197469964    0.3350443776874565    
  0.317294934904545    0.30538930511120727    0.30538857357344906    0.317289059440822    0.33508308753020305    
  0.35000105091659883    0.39251061408753474    0.4087769091641555    0.4095953156197304    0.4087797807064888    
  0.3925639388070563    0.3550344021135705    0.3192256858481837    0.3053892949164119    0.31921889415924865    
  0.35505032643676493    0.39251061408753474    0.40759118487716034    0.4275974990066041    0.4117839539291733    
  0.4117679066610787    0.4275247362260835    0.40762941039434447    0.35503444281917756    0.3172949307978256    
  0.3172881541641502    0.35504598919242764    0.40759118487716034    0.39255395992419717    0.4275680529700684    
  0.3991801233572991    0.37177434036828116    0.39923942067208934    0.42752471695309757    0.3925639196668411    
  0.3350443517664525    0.3112713327481989    0.3350410942417349    0.39255395992419717    0.34999547697132427    
  0.4087962823940413    0.41177780976809686    0.37180633700949234    0.371774359424237    0.4117679149439242    
  0.40877981570872396    0.35000861574427206    0.3030797033357402    0.30308918653203676    0.34999547697132427    
  0.29564952587743876    0.35624524159760546    0.40958836394015896    0.4117777843214389    0.3991801435972545    
  0.41178394338035584    0.4095953179949528    0.35624783980656427    0.295637381897979    0.27233776191539194    
  0.29564952587743876    0.253711872884689    0.2922650582884555    0.3562452344308743    0.40879628222832065    
  0.42756805047831475    0.4275975043674871    0.4087769032820365    0.356206903946584    0.2922846437436154    
  0.25370495836751117    0.253711872884689    0.2386315681367039    0.2537118926149558    0.29564950790416056    
  0.3499954598408393    0.3925539985797068    0.4075911672558946    0.39251062900815603    0.3500010298803445    
  0.2956700905644052    0.2537083024687945    0.2386315681367039    0.1967241454641317    0.21051717515823254    
  0.24951032236382353    0.30381974430255165    0.352634066816597    0.37230237452385984    0.3526322941505167    
  0.30381715012217897    0.24950662972821294    0.21051864539336645    0.1967241454641317    0.21051864437801351    
  0.21051851568983526    0.23208000770371986    0.26935639523261506    0.3109081652797885    0.3385526903883902    
  0.3385527523395831    0.3109111846592741    0.26936126762394946    0.23207566627207826    0.21051864437801351    
  0.24950663026677028    0.24185025361163237    0.2495076048791361    0.2693548273307569    0.2952412543416583    
  0.3171993201233829    0.32539292069146813    0.31720122779300935    0.295234713536931    0.26936126274947114    
  0.24950663026677028    0.30381718836236904    0.298556062098159    0.2985541347033544    0.30382037151984065    
  0.3109123950652558    0.31720521240650157    0.3202452529373848    0.3202485994440337    0.3172012089182309    
  0.31091122514141056    0.30381718836236904    0.35263227467222324    0.360186032751605    0.3616505734533462    
  0.3601839321747486    0.3526383897324914    0.3385470759311295    0.3253944786578171    0.3202452417914733    
  0.3253929547171488    0.33855274643687466    0.35263227467222324    0.3723024004022343    0.3990124463314525    
  0.4085629824374123    0.40856015368208465    0.39901179107942464    0.3723018819446095    0.3385470981899964    
  0.317205216928418    0.31719930851777967    0.3385526934394228    0.3723024004022343    0.3526340276029676    
  0.3990142551042604    0.42403952858569777    0.4288560121117008    0.42403591588103307    0.39901177589156106    
  0.35263838541896814    0.3109123836207455    0.2952412800152452    0.31090814852775445    0.3526340276029676    
  0.3038197494833417    0.36019340690038687    0.4085648526204282    0.42885666368586123    0.42885605872430593    
  0.40856016018679897    0.36018395797600117    0.3038203835699715    0.26935482296786023    0.269356417310949    
  0.3038197494833417    0.24951030392080964    0.2985588169817551    0.36164270362784323    0.4085648062262629    
  0.4240395266768434    0.4085629642958644    0.3616506008258111    0.29855411010885147    0.24950762111898    
  0.23207997787718326    0.24951030392080964    0.21051718326947283    0.24184667481348332    0.29855882526770894    
  0.3601934177391702    0.3990142548305108    0.39901243325776853    0.3601860248623386    0.298556085175887    
  0.24185028118417362    0.21051850987690685    0.21051718326947283    0.1967241454641317    0.21051717515823254    
  0.24951032236382353    0.30381974430255165    0.352634066816597    0.37230237452385984    0.3526322941505167    
  0.30381715012217897    0.24950662972821294    0.21051864539336645    0.1967241454641317    0.18148179321002247    
  0.19485517280631226    0.23261013310343412    0.28594393361702264    0.3352337628124648    0.3554985914653939    
  0.3352337287134932    0.28594395570545916    0.2326101227517761    0.1948551677547759    0.18148179321002247    
  0.19485517130420502    0.19485913598007343    0.22043083083489842    0.2663221562561614    0.31860183072368764    
  0.3538748807041141    0.35387748854761264    0.31860195987470846    0.26632438920341284    0.22043107654678598    
  0.19485517130420502    0.23261012102902254    0.22043080788073915    0.23261232203219778    0.26631909011142146    
  0.3120500749835373    0.35148937397471564    0.3666506946192698    0.35149087597488754    0.31204671003378087    
  0.26632437909824896    0.23261012102902254    0.28594395560515523    0.2663222077102884    0.2663190811787694    
  0.28594143224205965    0.31860361220060873    0.35149475908480565    0.370881527615267    0.3708905191220398    
  0.35149087742483004    0.3186019475703412    0.28594395560515523    0.33523372893941655    0.31860183111364065    
  0.3120500658984528    0.3186035807703604    0.3352370194277492    0.3538742618550112    0.36664731320383187    
  0.37088150934649117    0.3666507153684192    0.3538774652189782    0.33523372893941655    0.3554985992871754    
  0.35387489808758427    0.35148940212139645    0.3514947428231047    0.35387432686898923    0.3554943691581279    
  0.35387430950456916    0.3514947498939634    0.3514893646981594    0.3538748897884979    0.3554985992871754    
  0.3352337248286683    0.3538774853703616    0.3666507055063365    0.3708814976828732    0.36664731973001663    
  0.35387430044233903    0.33523702207304706    0.318603600657252    0.3120500633400593    0.3186017967802519    
  0.3352337248286683    0.2859439688398925    0.318601953308872    0.3514908760351848    0.3708905311100113    
  0.3708815227873647    0.35149473183698127    0.3186035990058166    0.28594144095886415    0.2663190810155344    
  0.26632216167449124    0.2859439688398925    0.23261015832863363    0.2663243692532493    0.31204672789666826    
  0.3514908743021464    0.3666507061248001    0.3514893715167107    0.3120500895928722    0.26631903766505105    
  0.23261231501496024    0.22043080155958156    0.23261015832863363    0.19485516258918062    0.22043107313079086    
  0.26632438583548707    0.31860193659551894    0.3538774634601064    0.3538748656465317    0.31860181785225566    
  0.266322185607924    0.22043081415135635    0.19485914741033172    0.19485516258918062    0.18148179321002247    
  0.19485517280631226    0.23261013310343412    0.28594393361702264    0.3352337628124648    0.3554985914653939    
  0.3352337287134932    0.28594395570545916    0.2326101227517761    0.1948551677547759    0.18148179321002247    
  0.19672412790594707    0.21051863683913508    0.24950663930971217    0.303817163283887    0.3526322881197054    
  0.37230236417953627    0.35263402747502176    0.3038197394755462    0.24951030604194224    0.21051718241418896    
  0.19672412790594707    0.21051718986731374    0.2105185191716023    0.24185029307495576    0.29855604008004155    
  0.3601860294473599    0.3990124575987215    0.3990142626229271    0.3601934052505172    0.2985588470335193    
  0.24184666183029227    0.21051718986731374    0.2495103116808034    0.23207996369381909    0.24950760630154464    
  0.2985541355096553    0.3616505713441548    0.40856296594228414    0.42403951651055827    0.40856484097176393    
  0.3616426870059905    0.2985588029645477    0.2495103116808034    0.3038197552287238    0.2693564322013428    
  0.26935481759747615    0.30382038898334096    0.3601839749974094    0.40856014756772097    0.428856054961228    
  0.4288566876809253    0.408564831648426    0.36019342863577053    0.3038197552287238    0.3526340350564984    
  0.31090815840227004    0.29524125746621255    0.31091237594072896    0.3526383784089276    0.3990117520588696    
  0.4240359183994227    0.4288560380326188    0.4240395165069326    0.3990142475204471    0.3526340350564984    
  0.3723023832550217    0.3385526951212525    0.3171993315843242    0.3172052279585784    0.33854709187747367    
  0.3723018677803123    0.3990117866274608    0.40856014599248763    0.40856296833503675    0.3990124575095326    