#     DFTpy    
  CRYSTAL 
    
  PRIMVEC    
  4.544620689655172    0.0    0.0    
  0.0    4.544620689655172    0.0    
  0.0    0.0    2.5037931034482757    
  PRIMCOORD    
  4    1    
  Si    0.0    0.0    0.0    
  Si    2.272310344827586    2.272310344827586    1.2518965517241378    
  Si    0.0    2.272310344827586    0.6259482758620689    
  Si    2.272310344827586    0.0    1.8778448275862067    
  BEGIN_BLOCK_DATAGRID_3D    
  3d_datagrid_density    
  BEGIN_DATAGRID_3D#0    
  21    21    11    
  0.0    0.0    0.0    
  4.544620689655172    0.0    0.0    
  0.0    4.544620689655172    0.0    
  0.0    0.0    2.5037931034482757    
  0.05120652723907584    0.09319457143161254    0.25402341317544186    0.44803563093227194    0.4975772793864306    
  0.46818552301426386    0.45562945428707863    0.4604829321987589    0.44244952654670455    0.39567293415136184    
  0.3698782450161623    0.39567289786020327    0.4424495822294373    0.4604830278139641    0.45562945832314555    
  0.4681854201665016    0.4975773415098341    0.4480358026631706    0.2540233746093945    0.09319457502411767    
  0.05120652723907584    0.09319457785653294    0.1428232981463822    0.29872129818204585    0.4494811449045848    
  0.469193548166177    0.43416111195131263    0.42225586164523976    0.4321834326076899    0.42855989739057504    
  0.3996064043398151    0.3813399151223998    0.3996063346656987    0.42855990276945954    0.43218346478329683    
  0.42225605911644715    0.43416105920059095    0.4691934792114298    0.44948108399258313    0.29872123008846874    
  0.1428233691523309    0.09319457785653294    0.2540232726474172    0.2987211899466514    0.3915562901759062    
  0.4302641523854782    0.39442572680752014    0.3523471357909591    0.342663026146969    0.36052361489755747    
  0.38200307520833693    0.38833702130933623    0.3866059767639766    0.38833682173649453    0.38200313226213156    
  0.36052354861656966    0.34266301055550474    0.35234709874126996    0.39442564836110117    0.43026424820779247    
  0.39155621279688874    0.29872125620082685    0.2540232726474172    0.4480357308698551    0.4494810180669072    
  0.43026429252893283    0.3721035022883741    0.305459968083863    0.2639365203881362    0.25660601596461763    
  0.27690914999603555    0.31055639559508896    0.33883789358512745    0.349049472524601    0.33883771229708143    
  0.31055640487026265    0.2769091866896896    0.2566060935209851    0.2639365269978393    0.305459976436063    
  0.37210364040793165    0.43026420829369294    0.44948107871518406    0.4480357308698551    0.497577343395927    
  0.46919349467578086    0.3944256940366747    0.30545995445372137    0.23580423638842382    0.19859484657116042    
  0.1924577363067653    0.2112802876743413    0.24496784281591494    0.2772137427198324    0.29049154421615114    
  0.2772136517007985    0.24496785672498603    0.21128031214147916    0.19245781162512246    0.19859481426140638    
  0.23580420727852813    0.30545995123224395    0.39442567235151427    0.4691935124193136    0.497577343395927    
  0.46818555702174036    0.4341611394729372    0.35234706418953016    0.2639364973571242    0.19859486021210643    
  0.1645646682804985    0.15902245047592004    0.17651123249979636    0.2080699893117435    0.2388247139992739    
  0.25180164848470843    0.23882470857279106    0.20806995679171802    0.17651125265854734    0.15902247731980318    
  0.16456462880182302    0.19859480539761618    0.26393657341018917    0.35234717532016924    0.4341611418540862    
  0.46818555702174036    0.4556294407075154    0.4222558828174245    0.34266305880082787    0.25660607840896243    
  0.192457768120678    0.15902243109174263    0.15376829323951283    0.17128531005181152    0.2029484912665559    
  0.234052064018328    0.24723770862866173    0.23405201595704947    0.20294852834111804    0.1712853205882389    
  0.15376837286174144    0.1590224269786053    0.19245769886537933    0.2566060980608577    0.34266292499676704    
  0.4222559519480032    0.4556294407075154    0.4604828871010127    0.43218344776393963    0.36052365371169043    
  0.2769091904244614    0.21128036211920592    0.17651123802127794    0.17128530395267366    0.19017026665324172    
  0.22470167067290892    0.2588802308906264    0.2732983752492878    0.25888019391053413    0.22470168224391485    
  0.19017023346976297    0.17128538010917146    0.17651121845783785    0.21128029156622613    0.27690919537187975    
  0.3605235866064839    0.4321834520527529    0.4604828871010127    0.44244950510240405    0.42855978311313575    
  0.3820030931699617    0.31055640390748235    0.2449678962825267    0.2080699906833586    0.20294847946772399    
  0.22470163400019477    0.26427444801799793    0.303242744718129    0.31943874819366525    0.3032427004420686    
  0.26427451787483375    0.22470164515501787    0.20294852154381873    0.20806991796204782    0.24496783885315626    
  0.31055643470199973    0.38200314634043225    0.4285599272529265    0.44244950510240405    0.3956729458193314    
  0.39960622140337393    0.388336967874199    0.33883776539825883    0.27721369154036607    0.23882469204875548    
  0.234051961675798    0.25888018937556545    0.30324272663131563    0.3466610694270924    0.3645984260560441    
  0.3466609912979351    0.30324267822607737    0.25888020519753807    0.23405200749610247    0.23882468601446075    
  0.277213670429612    0.3388378065865103    0.3883369208246262    0.39960634826142244    0.3956729458193314    
  0.3698783141264216    0.3813399210090116    0.386606066645165    0.3490492698452043    0.29049157160407996    
  0.2518017141152661    0.24723775132598366    0.2732983856593799    0.31943872884849184    0.3645984660967419    
  0.38328854176617616    0.36459846595231854    0.319438823362083    0.27329836583995437    0.2472377553849071    
  0.25180165980334107    0.2904915402447428    0.3490495160610383    0.38660596475025977    0.381339950129492    
  0.3698783141264216    0.3956729372527853    0.39960628482767085    0.3883369978454558    0.33883783376908494    
  0.2772137077037306    0.23882478348371822    0.23405188621584833    0.2588801932628786    0.3032427158092568    
  0.34666110067772365    0.3645984364850615    0.34666104461032504    0.3032427152012207    0.2588801964301812    
  0.23405203493672985    0.23882462653936204    0.2772136405931811    0.33883788860629155    0.38833695802492174    
  0.39960641498479693    0.3956729372527853    0.4424495348619641    0.42855975905734406    0.38200322615359045    
  0.3105563712588782    0.24496786481716887    0.20806997316294396    0.20294848116096112    0.22470160856516525    
  0.26427453845870974    0.30324270859169933    0.3194388013598832    0.30324258181021324    0.26427453060684886    
  0.22470160015080304    0.20294849282478467    0.20806990404853418    0.24496783836778158    0.3105564717422762    
  0.38200306344141155    0.42855984658367136    0.4424495348619641    0.46048286229160335    0.43218349048454796    
  0.3605236054650896    0.2769091420720682    0.2112803202634298    0.17651121802833797    0.1712853035798998    
  0.190170287995909    0.22470167649007144    0.2588802439389398    0.2732983865915217    0.25888017820788856    
  0.22470168157871678    0.1901702905997975    0.17128532227696583    0.1765112030894766    0.2112803631379781    
  0.2769092508938899    0.3605236119773096    0.4321834655469695    0.46048286229160335    0.45562946114804964    
  0.42225591966036574    0.342663078971877    0.25660609245315613    0.19245774826199946    0.1590224625956771    
  0.15376830691699317    0.1712853263380291    0.20294850322699035    0.23405203065755517    0.2472377928171401    
  0.23405193165240012    0.20294851061309171    0.1712853061733592    0.15376839258609573    0.15902240763807182    
  0.19245769611223354    0.2566060722221711    0.34266298237419257    0.4222559577948515    0.45562946114804964    
  0.4681855443880436    0.4341611106706833    0.35234713734174583    0.2639365119081445    0.1985948570981638    
  0.16456465893752564    0.15902246258714584    0.1765112378289774    0.2080699503985592    0.2388247704511156    
  0.25180162310505877    0.2388247468468206    0.2080699372384934    0.17651129284661046    0.1590224610125114    
  0.1645645991413262    0.1985948409568719    0.2639366127800353    0.35234712873508256    0.4341611954771508    
  0.4681855443880436    0.49757735495679195    0.46919346933372075    0.3944256743841678    0.3054599907433257    
  0.2358042489171156    0.19859480687532435    0.19245770628627898    0.2112803138116339    0.24496784787077844    
  0.2772137248029835    0.29049150629961534    0.2772136360432957    0.24496783331689043    0.21128025778620502    
  0.19245779199457394    0.19859484427478535    0.2358041709313963    0.30546001978256293    0.3944256108610673    
  0.46919357922517535    0.49757735495679195    0.44803578624107904    0.4494810512286674    0.4302642967718302    
  0.37210350645476514    0.30546001818510116    0.2639365700785501    0.25660600143333273    0.2769091159382226    
  0.3105563394049253    0.33883787130748094    0.3490494976995998    0.3388377936567456    0.3105564100076817    
  0.27690912934007994    0.25660612378289244    0.2639365330164332    0.305459957957537    0.3721036385458285    
  0.43026413969478755    0.4494810601788068    0.44803578624107904    0.2540233313909587    0.2987212091291346    
  0.3915562747280405    0.430264212521662    0.39442571693849926    0.3523471732907782    0.3426629652223552    
  0.3605236275559697    0.38200304823028985    0.38833704322445817    0.38660602908617203    0.388336915008675    
  0.38200311938285825    0.36052359226241476    0.34266307170676136    0.35234705611336214    0.3944256762539245    
  0.43026421667761383    0.3915562280746666    0.2987212888017585    0.2540233313909587    0.09319459317318611    
  0.14282329121754014    0.29872127364988743    0.4494809712868776    0.46919350196003307    0.4341611092878673    
  0.4222559775052875    0.4321835121360336    0.4285598366347876    0.39960639966402484    0.38134000435460874    
  0.39960624548091395    0.42855984129821506    0.4321834537683689    0.4222560324543626    0.43416113633053927    
  0.46919348348829276    0.44948104167667524    0.2987211632766827    0.14282335292447684    0.09319459317318611    
  0.05120652723907584    0.09319457143161254    0.25402341317544186    0.44803563093227194    0.4975772793864306    
  0.46818552301426386    0.45562945428707863    0.4604829321987589    0.44244952654670455    0.39567293415136184    
  0.3698782450161623    0.39567289786020327    0.4424495822294373    0.4604830278139641    0.45562945832314555    
  0.4681854201665016    0.4975773415098341    0.4480358026631706    0.2540233746093945    0.09319457502411767    
  0.05120652723907584    0.10052433441284295    0.1486750484028294    0.2918270347733503    0.4160506509395686    
  0.41589268134070273    0.37098557736755694    0.3524493946427218    0.36658579411626613    0.3957108367244618    
  0.4191368148343854    0.42700644699284923    0.4191367844873227    0.3957109036046671    0.3665858150541082    
  0.35244944489090174    0.3709854216060353    0.41589264775737333    0.4160507839979047    0.2918270152733847    
  0.14867504324527556    0.10052433441284295    0.1532044997079844    0.2030253888929001    0.32999414141639427    
  0.41558341111503566    0.39467263146758286    0.34686841886304415    0.32863498576169464    0.34285937116866155    
  0.37311553887819365    0.3988576991793488    0.407964127053696    0.3988576181233152    0.37311559645380415    
  0.34285945361498804    0.32863513752625156    0.34686837668058923    0.3946725941219041    0.4155834149310319    
  0.32999405654901093    0.20302546213808656    0.1532044997079844    0.32011464597124156    0.3524186458472592    
  0.40501102718512155    0.39832472599603863    0.33961916239321865    0.28896147955989937    0.27212202003748764    
  0.2856895159301808    0.31627796207780196    0.3449891458672675    0.3561061606939309    0.34498896474143864    
  0.3162780428692931    0.2856895028039951    0.27212205655140886    0.28896142987339185    0.33961910151899777    
  0.3983248105779728    0.40501098086282483    0.3524187373685442    0.32011464597124156    0.4917564669047142    
  0.48086467566117064    0.4348568351645584    0.35418942221566424    0.27539536273961696    0.22671269667297425    
  0.21186099825995153    0.22382982809996874    0.25188946134973983    0.2800991543035106    0.2917841182678131    
  0.28009902193598224    0.2518895162933743    0.2238298010369541    0.21186104970733896    0.22671264609633868    
  0.27539532459440175    0.3541894674303801    0.43485671434780326    0.48086475315970617    0.4917564669047142    
  0.5365658245816306    0.500822945940614    0.41047136731216083    0.3071883093449386    0.22731563514853395    
  0.1825470761978391    0.16921402337872843    0.17987081266615804    0.20489284067108599    0.23047140194287397    
  0.2413788772293563    0.2304713540675022    0.20489284577726077    0.17987077318779257    0.169214106815944    
  0.1825470162915324    0.2273155798917032    0.3071882985036445    0.41047129098845553    0.50082296533602    
  0.5365658245816306    0.5255705082715775    0.4852228544579958    0.3885206745483208    0.28461171156580084    
  0.2073799596602578    0.16475180962942396    0.15210673646178105    0.16230870497244768    0.18596673477620979    
  0.2100379581849165    0.2203572109884792    0.2100379281144683    0.1859666759987057    0.16230873866213408    
  0.15210675949393437    0.1647517852162941    0.20737990532603143    0.2846118400768986    0.38852075905810274    
  0.4852228412438023    0.5255705082715775    0.5281260271075494    0.4907432086297938    0.3986837474451385    
  0.2960137410631847    0.2175288752753823    0.17378192180580604    0.16086375224561433    0.17142613549175045    
  0.19609989981727216    0.22141478064540981    0.23227063997614683    0.22141473551527838    0.19609993867142703    
  0.1714261507910212    0.16086380797758149    0.1737819117100793    0.21752881809142502    0.2960137892517087    
  0.39868360559672666    0.4907433510768809    0.5281260271075494    0.5019476522517728    0.4824480425097421    
  0.42123745847449284    0.33308804728739655    0.25426575405127466    0.20740098854558292    0.1934635618145224    
  0.2053310814241595    0.2331754424399124    0.26177075877454875    0.27386291411319297    0.26177070348656134    
  0.23317547672290162    0.2053311047153889    0.19346362435661774    0.20740095297620129    0.2542657090022766    
  0.3330880588020911    0.4212373765381785    0.4824481059515956    0.5019476522517728    0.3773808349807045    
  0.39493157124908507    0.4105714381408328    0.37364410632401135    0.30647104571450395    0.2572159774343135    
  0.24198426324421082    0.2560937271384942    0.2883018521310009    0.32050176047345735    0.33372018485322624    
  0.3205016656833267    0.28830187877989716    0.2560937242558794    0.2419843164264687    0.2572158955813275    
  0.30647101457220255    0.37364412187930285    0.4105714859991058    0.3949317140211658    0.3773808349807045    
  0.22997173985885566    0.27292955601591573    0.3623518827411261    0.39568027737338135    0.35264817917974317    
  0.3040258617180533    0.2878970962469276    0.3039952534277926    0.339396323187592    0.37389905190467954    
  0.38781791761528595    0.37389891305695894    0.3393963244029945    0.303995246558738    0.28789718402958514    
  0.3040258531959513    0.3526481854659262    0.3956803682213521    0.36235180378865983    0.2729296615665674    
  0.22997173985885566    0.17430771521382427    0.2217446257320868    0.3346988939510078    0.40006542932314426    
  0.3708410012297102    0.3235686789661614    0.3072264411964012    0.32398435872050835    0.36025532971090224    
  0.39532477701092317    0.409459531191002    0.39532471145174486    0.3602554452258737    0.3239843556887768    
  0.3072265177105803    0.32356861257828784    0.3708409459068404    0.40006562273805496    0.3346988671098178    
  0.22174464172963138    0.17430771521382427    0.22997173124561068    0.2729295836773006    0.36235189818642594    
  0.39568040265872473    0.352648266626597    0.30402592637474407    0.2878970427657864    0.30399524879602774    
  0.3393963550904168    0.3738990712469837    0.3878178361680184    0.3738989918264633    0.3393963024082858    
  0.303995236930444    0.2878971983750905    0.30402580952492647    0.352648206296482    0.39568038832221164    
  0.3623518714963405    0.2729296840758054    0.22997173124561068    0.37738083269168166    0.39493154152495763    
  0.4105715607034554    0.3736440228697553    0.3064710059882366    0.257215974147393    0.24198427095767067    
  0.2560937049582575    0.2883019439991671    0.32050171467701044    0.33372020341288217    0.3205016058960509    
  0.28830192618967293    0.2560937100487955    0.2419843416324871    0.25721589784065163    0.30647100010100387    
  0.3736441716928601    0.4105714519523612    0.39493162393459097    0.37738083269168166    0.5019476296364297    
  0.4824481439204272    0.42123742496544103    0.33308800503841673    0.25426570793833403    0.207400945312804    
  0.19346355048891917    0.20533113327420804    0.23317542045024423    0.2617707795420193    0.2738629462800575    
  0.2617706584558686    0.23317547635503114    0.2053311481551461    0.19346356746780866    0.2074009017932345    
  0.2542657295002262    0.3330880484679771    0.4212373613622113    0.4824481291048459    0.5019476296364297    
  0.5281260134208364    0.49074320727132836    0.3986837456015176    0.2960137473242524    0.21752886330397123    
  0.17378192986964838    0.1608637748847098    0.17142617119218237    0.1960999014206276    0.22141476784176634    
  0.2322707628922513    0.22141468706054918    0.1960999372985494    0.17142611046307804    0.16086379536997875    
  0.17378187171186205    0.21752882514080568    0.2960137485369376    0.3986836876379748    0.49074329980391834    
  0.5281260134208364    0.5255704571007205    0.48522284882663513    0.38852067130795914    0.284611733865074    
  0.20737993230466578    0.16475179945025228    0.1521067371726972    0.16230872261240753    0.18596669563114337    
  0.2100380048044795    0.22035722296118748    0.21003794660926356    0.18596669960657625    0.1623087431096354    
  0.1521067704035924    0.16475173255505754    0.20737992027459415    0.2846118471074201    0.3885207154825592    
  0.48522287872636444    0.5255704571007205    0.5365657940048203    0.5008229404807466    0.4104712855141751    
  0.3071883465543713    0.22731559925542086    0.18254705187445885    0.16921400815740514    0.17987080401876474    
  0.20489287234832984    0.2304714179934189    0.2413788169403906    0.23047134642124703    0.20489282836398462    
  0.17987080269105724    0.16921408134096397    0.18254706526747266    0.22731556444423565    0.3071883535554251    
  0.4104712117749419    0.5008230380842248    0.5365657940048203    0.4917566345119791    0.48086464836476805    
  0.43485685689572584    0.35418939739030747    0.2753953763960827    0.22671270093336954    0.211860968264851    
  0.22382979074340192    0.25188944691943643    0.2800991372186419    0.2917840829702239    0.28009905026667997    
  0.25188949135426586    0.22382978208432966    0.21186105638987993    0.22671262369013773    0.27539534693480183    
  0.35418951636376805    0.4348567436550258    0.48086469089467826    0.4917566345119791    0.32011473005886176    
  0.3524186807072919    0.40501096135407094    0.39832476040644443    0.33961917004414977    0.288961551440969    
  0.272121962568148    0.28568955388683537    0.3162779957441967    0.344989135370794    0.35610618728155746    
  0.3449890015270242    0.3162780102799141    0.2856894765962909    0.2721220839074254    0.28896142273620623    
  0.33961913883839395    0.3983247847164557    0.4050110146949328    0.35241881081452486    0.32011473005886176    
  0.15320450431199176    0.20302538468406048    0.3299941310737107    0.4155832977416836    0.3946725972963993    
  0.3468684163249446    0.32863506408438303    0.34285951949026344    0.3731155413840041    0.3988577115147161    
  0.40796422676701716    0.3988575863541614    0.37311549362733376    0.34285942740916014    0.3286351125634319    
  0.3468684506331481    0.3946725999824726    0.4155833027404751    0.3299940266051017    0.2030254988560931    
  0.15320450431199176    0.10052433441284295    0.1486750484028294    0.2918270347733503    0.4160506509395686    
  0.41589268134070273    0.37098557736755694    0.3524493946427218    0.36658579411626613    0.3957108367244618    
  0.4191368148343854    0.42700644699284923    0.4191367844873227    0.3957109036046671    0.3665858150541082    
  0.35244944489090174    0.3709854216060353    0.41589264775737333    0.4160507839979047    0.2918270152733847    
  0.14867504324527556    0.10052433441284295    0.27599959390764944    0.31010638525893697    0.3715046946547001    
  0.37777131168228933    0.32795511868573063    0.2830492762105777    0.27168892062418837    0.2922749684857283    
  0.3332055684941931    0.37386981712117145    0.3907306988629988    0.3738697218679189    0.33320567399786327    
  0.2922749855585167    0.2716889928887366    0.28304910810565526    0.3279551535876865    0.37777146088610597    
  0.37150473233155645    0.31010640368311554    0.27599959390764944    0.32220397630563785    0.3479391659105351    
  0.38564580144645344    0.3698235512111092    0.3124601003378064    0.26727959589627975    0.25594179414271806    
  0.275500585559331    0.3148504810579519    0.3539841451098227    0.3701688909976821    0.35398405220816287    
  0.3148505159998771    0.27550064150884707    0.25594195066773295    0.2672795221292132    0.3124600423805182    
  0.36982354215457014    0.3856457355287116    0.34793926167128986    0.32220397630563785    0.42461480086309755    
  0.4248185127924454    0.4038326143153589    0.3435728411773981    0.2740099205739584    0.22965371821405384    
  0.2185891468948644    0.23548089792946664    0.2703864714681339    0.30544814148739347    0.3200472743958639    
  0.30544802151603445    0.27038649475607573    0.2354808614596182    0.21858921621942118    0.2296537034406912    
  0.27400986857838044    0.34357292836726605    0.40383259301119273    0.4248186098943839    0.42461480086309755    
  0.4919416471328386    0.4660356932953729    0.39549632847377536    0.3063091065941681    0.23216174011730767    
  0.19021818981830005    0.17970118160433876    0.19398035060453336    0.22395542925464007    0.25439840635248    
  0.2673114518491768    0.2543983107391148    0.22395548076458696    0.19398036543477223    0.17970122048416032    
  0.19021814174218699    0.23216169328777012    0.30630918437924015    0.3954962305653942    0.4660357565775569    
  0.4919416471328386    0.499619073828931    0.46307440633061864    0.3748737267114996    0.27835161939121367    
  0.20542584096290523    0.16566471863091575    0.15557845054193092    0.16851122585595876    0.1954240900035555    
  0.2225552604574775    0.2341454970323088    0.22255522189246196    0.1954241074037156    0.16851118887960725    
  0.15557849419132594    0.1656646841955987    0.20542581175064412    0.2783516296008999    0.3748736451030626    
  0.4630744127636289    0.499619073828931    0.5051321063779322    0.4670885819654985    0.37575777539366    
  0.2773497310424889    0.20428034181100183    0.16463608320823173    0.15442367707267182    0.16708267300991803    
  0.19337721977726444    0.21964388583617864    0.23082754026886645    0.21964388247114158    0.19337721714557723    
  0.16708269951258758    0.1544237308293449    0.16463606784578172    0.20428032095856    0.2773498207829213    
  0.3757578200396068    0.4670885819489513    0.5051321063779322    0.5250633309075469    0.4926950326554733    
  0.40875977522012236    0.3104204923289717    0.23363131294087977    0.19108843161193428    0.18001869508603435    
  0.19342161923631224    0.22145028518765822    0.2493498642032618    0.2610690833011721    0.24934980341418814    
  0.22145027972623568    0.19342162223752932    0.18001877389671667    0.19108839313037984    0.2336312642570497    
  0.3104204954875181    0.40875965425269906    0.4926951420880329    0.5250633309075469    0.47034377737104094    
  0.4672331665134103    0.43696772699322584    0.36754769147422583    0.29320300344829453    0.24629878513004533    
  0.23357991794035826    0.24838953972426675    0.27863891524122686    0.30714084625410154    0.31839889773164415    
  0.3071407576796126    0.2786389318709927    0.24838954815129133    0.2335800012672966    0.24629870988240193    
  0.29320293153843696    0.3675476861089974    0.43696765365378326    0.4672332672825784    0.47034377737104094    
  0.27472177561435085    0.3159602988216235    0.3957861001381165    0.4171207775295359    0.37017132222459165    
  0.3219832513565611    0.3068642342943098    0.32194810262706897    0.3499722564630771    0.37135693559460964    
  0.37803296439355855    0.3713567597513594    0.349972221275438    0.32194810811792346    0.3068642913656687    
  0.32198313975030435    0.37017124970081244    0.4171207931750015    0.3957861189304203    0.3159604209493538    
  0.27472177561435085    0.10793780482104913    0.15786662320592934    0.30479834189178284    0.43235353582455904    
  0.4349260583622484    0.3920324398648769    0.37515312028174314    0.38803231376773645    0.4072677655725488    
  0.4136433534493434    0.412437940583346    0.4136432532465591    0.4072677850977202    0.38803233814337396    
  0.37515319143683734    0.39203240897606917    0.43492604746189645    0.43235365148907184    0.30479831447839    
  0.1578666883513184    0.10793780482104913    0.062288514085120414    0.10605960192029516    0.2610608201242798    
  0.43030123979134216    0.4595170714457232    0.4211631763827814    0.4039227765938197    0.41506227990231653    
  0.4284778191135499    0.42628884741824385    0.4209450723892819    0.42628882800202356    0.4284779186641217    
  0.4150623420384802    0.4039228766695699    0.42116309401623786    0.45951702672985484    0.4303014104903066    
  0.2610607663330517    0.10605961093796253    0.062288514085120414    0.10793779085800276    0.1578666603065866    
  0.30479839420003746    0.43235366157028576    0.4349261133680191    0.39203251834424907    0.3751530769544726    
  0.38803235139124126    0.40726780474987573    0.4136432923214604    0.4124378527168842    0.4136433045657599    
  0.40726770124590145    0.38803235471382824    0.37515321518058076    0.39203239159158515    0.4349260009833656    
  0.4323536544028654    0.3047983429161534    0.15786668029977147    0.10793779085800276    0.27472175345212035    
  0.3159603022801098    0.3957862118353776    0.41712062502963265    0.3701712520591515    0.32198322139335894    
  0.3068642445307277    0.3219480831531746    0.3499723159882468    0.3713568747569809    0.37803299895994863    
  0.3713567531286951    0.3499723094449055    0.32194807363624944    0.3068643304989866    0.3219831612324411    
  0.37017127630160657    0.4171207885951856    0.3957861004697846    0.31596034486031865    0.27472175345212035    
  0.47034372377406775    0.4672332672771532    0.4369678062395748    0.36754766151323176    0.2932029720592928    
  0.24629878838222524    0.23357996395401898    0.24838958773757727    0.2786389371532826    0.30714085932114765    
  0.31839894096374355    0.3071407407704208    0.278639004174443    0.24838959261332985    0.23357997458217078    
  0.24629870972115564    0.29320297136429124    0.36754768327898024    0.43696769998926255    0.4672332630604539    
  0.47034372377406775    0.5250632900864745    0.49269494024079435    0.40875981224643004    0.3104204289547467    
  0.23363129662649124    0.191088448776244    0.18001874185276306    0.193421665395434    0.2214502818012941    
  0.2493498863344175    0.2610692493328195    0.24934980425257283    0.22145025141763927    0.1934216369853375    
  0.18001879729700573    0.19108840908268382    0.23363124600882917    0.3104204943218544    0.40875975271604564    
  0.4926951122228785    0.5250632900864745    0.5051321341900142    0.4670885984818663    0.3757577015402152    
  0.2773497232234575    0.2042803316376863    0.16463609273262098    0.15442368345369517    0.16708264892394153    
  0.19337721166993668    0.21964394476321206    0.2308276216445666    0.21964390943271492    0.1933772019406949    
  0.1670827120739956    0.15442373993870442    0.1646360639416163    0.20428028791390368    0.277349825056719    
  0.375757805880829    0.4670886689318292    0.5051321341900142    0.49961909478080074    0.46307440611637823    
  0.37487365837330905    0.27835165366026027    0.20542585203474206    0.16566472488293976    0.15557843005770886    
  0.16851120847610532    0.19542407292347871    0.22255526977959628    0.23414538541495625    0.22255518344397335    
  0.1954241204308323    0.1685112178680834    0.155578460634339    0.1656647248359067    0.20542583370685624    
  0.27835169919539393    0.3748735878153777    0.46307450878610207    0.49961909478080074    0.49194180619220634    
  0.4660357038730078    0.3954963227206132    0.3063091460314301    0.23216175914416298    0.19021816046012707    
  0.17970115788023386    0.19398032286190464    0.22395546062518418    0.25439840455225887    0.2673114368879494    
  0.2543982706668028    0.22395543475751048    0.19398031943939875    0.17970126185317314    0.1902181568856256    
  0.23216173034177295    0.30630917237905375    0.39549615853995873    0.46603569469662687    0.49194180619220634    
  0.4246148830086738    0.4248185069361126    0.40383256512057314    0.3435729022857341    0.2740099187509657    
  0.22965376905081197    0.2185891213307378    0.2354809047904704    0.2703864572804757    0.3054481534294637    