#     DFTpy    
  CRYSTAL 
    
  PRIMVEC    
  1.8107543770491379    -3.1363185810768384    0.0    
  1.8107543770491379    3.1363185810768384    0.0    
  0.0    0.0    6.122310663379309    
  PRIMCOORD    
  2    1    
  Si    1.8107543770491379    1.0454395270256127    1.5305776658448271    
  Si    1.810754377049138    -1.0454395270256127    4.59173299753448    
  BEGIN_BLOCK_DATAGRID_3D    
  3d_datagrid_density    
  BEGIN_DATAGRID_3D#0    
  17    17    27    
  0.0    0.0    0.0    
  1.8107543770491379    -3.1363185810768384    0.0    
  1.8107543770491379    3.1363185810768384    0.0    
  0.0    0.0    6.122310663379309    
  0.030164612662641324    0.030895270200591393    0.03314923043786687    0.0370053355911942    0.0423508242013364    
  0.04871192955452321    0.05514932452743487    0.06007539078918876    0.061912749735724366    0.060075395350578716    
  0.05514932498952645    0.048711925173064476    0.04235081001604595    0.03700534257400139    0.033149238054344395    
  0.030895261298992883    0.030164612662641324    0.030895262481065368    0.03089574507015672    0.032391285533868164    
  0.03547450768430077    0.04018165812149575    0.04626287022644477    0.05300909553794893    0.059068833022656635    
  0.06267874040468968    0.0626785233097667    0.05906895951591157    0.05300861658882035    0.0462628207387307    
  0.04018211157461751    0.035474105502602354    0.03239165659064307    0.030895262481065368    0.03314923051200965    
  0.032391293890451485    0.03314884024633774    0.03547457235666037    0.03948300342904939    0.04517937655191189    
  0.05213157918448526    0.05919661537594534    0.06457693992875092    0.06658961029441342    0.06457694896726761    
  0.059196766904509424    0.0521323827663528    0.04517874533482156    0.039483459472999534    0.0354741093664889    
  0.03314923051200965    0.03700533803229152    0.03547452289831733    0.03547456787947714    0.03700547635234014    
  0.04018173807535759    0.045179115334019124    0.05190566171886112    0.05955528996123641    0.0664888145696451    
  0.07068417867321505    0.07068387604240088    0.06648918167408965    0.05955466181599954    0.051905840565063345    
  0.04517874952350698    0.04018210205799355    0.03700533803229152    0.04235080825114652    0.0401816547103474    
  0.03948299253708863    0.04018173511859218    0.042350768963663896    0.04626290009841424    0.05213185755779899    
  0.05955505434983223    0.06726635213679817    0.07329969440409734    0.07561901517578339    0.07329962884285225    
  0.06726678627005178    0.05955464947070315    0.05213238748664072    0.046262821656416084    0.04235080825114652    
  0.048711935282502096    0.04626286317305493    0.04517938402705318    0.04517910780945201    0.04626290899543455    
  0.04871221033922803    0.05300878991708285    0.05919677203129661    0.06648880251628837    0.07330012160813824    
  0.07752569860431904    0.07752576572529567    0.0732996313676608    0.06648918799379913    0.059196779665413535    
  0.05300861789703037    0.048711935282502096    0.055149318640024196    0.05300908450093116    0.05213158737467011    
  0.05190566130406099    0.05213186043015125    0.05300878041288567    0.05514910375697026    0.05906888385336145    
  0.06457721524141279    0.07068378506536563    0.07561886069932527    0.077525690278635    0.07561903981884052    
  0.07068388349770396    0.064576964277334    0.05906895603601379    0.055149318640024196    0.06007539127812233    
  0.05906882411949087    0.059196613770095184    0.059555287816088584    0.05955505519529502    0.05919676886342487    
  0.05906887183380859    0.060076056691964835    0.06267838444112625    0.06658994683766814    0.07068378817191646    
  0.07330009477844789    0.07329968406690793    0.07068416440377118    0.06658959979791353    0.06267851219164249    
  0.06007539127812233    0.06191275949703798    0.0626787341729573    0.06457695032657008    0.06648882040351733    
  0.067266354728301    0.06648880135491556    0.06457722619804128    0.06267837300033158    0.0619124955893689    
  0.06267838394890707    0.06457720681440686    0.06648879336186302    0.0672663583553056    0.06648882894696966    
  0.06457694787195807    0.06267873071796101    0.06191275949703798    0.06007539599592575    0.06267851313596093    
  0.06658959947157456    0.07068416431973534    0.07329971618212995    0.07330011091073677    0.07068379455550626    
  0.0665899463395495    0.06267838660197612    0.06007608098764081    0.059068868302278914    0.05919676928211678    
  0.05955504387963139    0.05955529233239118    0.05919662216171945    0.05906881581915889    0.06007539599592575    
  0.05514931869394813    0.059068965422308634    0.06457693942334579    0.0706838772985818    0.07561902991469086    
  0.07752568038693697    0.0756188506650426    0.07068378850860604    0.06457721675872738    0.05906887048367212    
  0.055149118967148456    0.05300877571220099    0.05213185824849226    0.05190566282903196    0.052131582201041214    
  0.0530090917842875    0.05514931869394813    0.04871193837249154    0.05300861622173221    0.059196775636049914    
  0.06648917364110841    0.07329965458447288    0.07752576397719198    0.07752569134915897    0.07330011430903062    
  0.06648879283427397    0.0591967540502741    0.05300878974971094    0.04871220691125267    0.0462629015092889    
  0.04517912066829401    0.045179381137276355    0.046262864975171215    0.04871193837249154    0.042350807456891855    
  0.046262819305059884    0.05213238449374664    0.05955466211323136    0.06726678352429918    0.07329965018855353    
  0.07561902728843194    0.0732996829914933    0.06726634877891126    0.05955505445082624    0.05213185253810315    
  0.04626289051903439    0.04235076605525256    0.0401817243241742    0.039483001539919    0.04018165108386813    
  0.042350807456891855    0.0370053422246649    0.04018211354333048    0.045178742970869594    0.051905839411706456    
  0.059554663352368045    0.06648917206370396    0.07068388555789783    0.07068418035195977    0.06648882751089161    
  0.05955531091474183    0.05190566776258981    0.0451791219513188    0.04018172862568071    0.037005477895580806    
  0.035474575096767796    0.03547451233635494    0.0370053422246649    0.03314923472088867    0.03547410821222995    
  0.03948345395714214    0.045178736367266714    0.05213239675882897    0.059196772667736895    0.06457695109866096    
  0.0665896001652233    0.06457693930138866    0.05919661474647037    0.05213158041486893    0.04517937317199856    
  0.03948300085367168    0.035474573342653394    0.03314884622958489    0.03239129113043046    0.03314923472088867    
  0.03089526200936198    0.032391667980274284    0.035474101602912846    0.04018210084017733    0.04626282374130283    
  0.053008612392062476    0.05906895940019724    0.06267851570081545    0.06267873589380024    0.059068826548771824    
  0.05300909542709476    0.04626286169391497    0.04018165164321892    0.03547451567113692    0.032391296100625466    
  0.030895747081917595    0.03089526200936198    0.030164612662641324    0.030895270200591393    0.03314923043786687    
  0.0370053355911942    0.0423508242013364    0.04871192955452321    0.05514932452743487    0.06007539078918876    
  0.061912749735724366    0.060075395350578716    0.05514932498952645    0.048711925173064476    0.04235081001604595    
  0.03700534257400139    0.033149238054344395    0.030895261298992883    0.030164612662641324    0.030963780496087813    
  0.03180716827866815    0.034388349779476836    0.03881817764464543    0.04506292235799402    0.05262614296485017    
  0.06030876347785181    0.06619365021608037    0.06840363559379135    0.0661935880522049    0.06030848301050288    
  0.05262607049211838    0.0450626911221823    0.03881811202053791    0.03438897036981593    0.03180723795431252    
  0.030963780496087813    0.031807238748222645    0.03180719422886205    0.033100085481357906    0.03578499146052295    
  0.039907476447309666    0.04526721123409972    0.05124627567364673    0.05661079102013637    0.05978535573909452    
  0.05978539750642905    0.05661102038995111    0.05124638604406361    0.045267452034768986    0.039907528732716864    
  0.0357847656915382    0.033099734310000344    0.031807238748222645    0.03438896220788155    0.033951325069300535    
  0.034388718259102384    0.035784695471438595    0.0382845851344045    0.04188283118088512    0.04629548066828084    
  0.05082032043116526    0.054272416173254096    0.05555127553926188    0.054272071869170185    0.050820187388028897    
  0.04629525295677429    0.04188282263804789    0.03828480064748596    0.03578476764224353    0.03438896220788155    
  0.03881811610144711    0.03837666221522154    0.03837694275085124    0.03881802225353125    0.03990752935079324    
  0.04188295610400992    0.04474742375953672    0.048161537359718336    0.05136727596295452    0.05332488286473494    
  0.053325197245701554    0.05136761259488404    0.048161764234377534    0.04474748582401681    0.04188282025454898    
  0.03990752388799917    0.03881811610144711    0.045062693546289945    0.045255510237283844    0.04537449601861607    
  0.04525557225641872    0.04506284355095019    0.04526758915010138    0.04629502539586627    0.04816197590263003    
  0.05046491791939483    0.05241675210106453    0.053180738637659215    0.052416435440452144    0.05046483113954087    
  0.04816175741123976    0.04629525924070633    0.04526745428876339    0.045062693546289945    0.052626082327724394    
  0.05437752092474322    0.05555762353946549    0.055557471079832096    0.0543771411386975    0.05262612442112288    
  0.051246059645008814    0.05082057621128282    0.0513671868817257    0.052416750788926735    0.05320019265085313    
  0.05320046264830679    0.05241643861250933    0.051367623151718035    0.05082020132641323    0.051246377787801695    
  0.052626082327724394    0.0603084836500476    0.06465341993330273    0.06826282428260215    0.06966911270950621    
  0.0682634724954797    0.06465347474948119    0.060308806719344576    0.056610956576225224    0.0542722554992913    
  0.05332498852919419    0.05318074913483301    0.05320019517183992    0.05318075790403075    0.053325195649490516    
  0.05427207460626748    0.05661101668716353    0.0603084836500476    0.06619359131787372    0.0739718193913637    
  0.08137570653123627    0.08601890154703665    0.08601867492814827    0.08137543713677177    0.07397166949285215    
  0.0661936887902912    0.05978532473318393    0.05555151608706531    0.05332499441288203    0.052416729489482436    
  0.05241675248344832    0.053324873854178036    0.05555127083695858    0.059785397869255394    0.06619359131787372    
  0.06840364785851698    0.07963579392076583    0.09156718125590622    0.10104570381133365    0.10471939256771706    
  0.10104561439427971    0.09156773643342343    0.07963586781081752    0.06840372365466026    0.05978532832914679    
  0.054272250960903407    0.05136718264351597    0.05046491853179793    0.05136728928728721    0.054272420784462864    
  0.05978534878626958    0.06840364785851698    0.06619365720813966    0.07963596500356733    0.09547004661910333    
  0.11025328116158403    0.11941210719863395    0.1194119207431068    0.11025305563920941    0.09546981854305168    
  0.07963586606596604    0.06619371292049174    0.05661094122219393    0.050820577861018804    0.04816196809789964    
  0.048161535193927456    0.050820321650112826    0.056610781911970484    0.06619365720813966    0.06030875041664142    
  0.0739713086496291    0.09156784427980771    0.11025270199597267    0.12506425867844387    0.13078864078268257    
  0.12506466916052986    0.11025305406691405    0.09156772969321411    0.07397166359774422    0.060308811080214936    
  0.05124605398877237    0.04629503379044221    0.044747422357128364    0.04629548942295563    0.05124628299492499    
  0.06030875041664142    0.05262614982002897    0.06465346138816078    0.08137613387469221    0.10104506108823857    
  0.11941262865925023    0.1307886330883835    0.1307886539390675    0.1194119317268811    0.10104559996172419    
  0.0813754288401538    0.0646534784426138    0.05262612804988495    0.04526758725203398    0.04188296484506011    
  0.04188284199750791    0.04526720097262127    0.05262614982002897    0.04506290817925955    0.054377190918541395    
  0.06826316012504881    0.08601873243201087    0.10471976638467762    0.11941262544390968    0.12506424881143885    
  0.119412071380623    0.10471939319705159    0.08601867545336749    0.06826345831009263    0.05437712998263626    
  0.04506283983424308    0.03990752090598892    0.038284582396528134    0.039907470270231886    0.04506290817925955    
  0.03881818080119618    0.04525555148987002    0.05555754636602024    0.06966929688467086    0.08601873741821549    
  0.10104506260825903    0.11025272054407713    0.11025329331884973    0.10104570734462887    0.08601892565392015    
  0.06966911375012044    0.05555747833732291    0.04525556946638529    0.038818023537465926    0.03578470289946468    
  0.035784992273535474    0.03881818080119618    0.0343883475398022    0.038376712494212095    0.04537457342404216    
  0.05555754246926018    0.06826317989989374    0.08137612973636217    0.09156786824325643    0.09547005993621618    
  0.09156717233290715    0.08137571132864628    0.0682628214096476    0.0555576186632626    0.04537449589754405    
  0.038376942536775364    0.03438872626998355    0.03310009024446551    0.0343883475398022    0.03180716344199226    
  0.03395187155714196    0.03837670952267112    0.04525554044063648    0.05437719859062511    0.0646534595990878    
  0.07397130550096402    0.07963596341622702    0.07963581029512667    0.07397182205029557    0.06465341325285867    
  0.05437751987261937    0.04525550786803971    0.03837666282611098    0.033951329548011396    0.031807195170564205    
  0.03180716344199226    0.030963780496087813    0.03180716827866815    0.034388349779476836    0.03881817764464543    
  0.04506292235799402    0.05262614296485017    0.06030876347785181    0.06619365021608037    0.06840363559379135    
  0.0661935880522049    0.06030848301050288    0.05262607049211838    0.0450626911221823    0.03881811202053791    
  0.03438897036981593    0.03180723795431252    0.030963780496087813    0.03327454271557666    0.03443502557947466    
  0.03800966241901339    0.044253107273768695    0.05331151545930762    0.06460196496198359    0.0762263071787751    
  0.08521253468240288    0.0886341662920518    0.08521272299468882    0.0762263801758151    0.06460184950168307    
  0.05331157193040407    0.04425311264370093    0.038009762315295424    0.03443509477958168    0.03327454271557666    
  0.03443509255273747    0.03443480470624532    0.035919422693474125    0.0389944077313109    0.04380622730669298    
  0.050248205686585876    0.05755716938194767    0.06417315211981181    0.06815697897292242    0.06815699899084146    
  0.06417280742328293    0.057557775681695185    0.05024821975505676    0.043805878202280844    0.03899433948371965    
  0.03591939760459114    0.03443509255273747    0.0380097561706077    0.03771332362930859    0.038010291185694135    
  0.03899384957833727    0.04089738760823468    0.043847440990596766    0.047638189944769344    0.05163364705372751    
  0.05475904763478243    0.05594117996440732    0.05475932243254354    0.05163338620241022    0.04763756693679529    
  0.04384795458018374    0.040897546857447946    0.03899433723719248    0.0380097561706077    0.04425311283733689    
  0.04468050054102557    0.04468015478193009    0.04425312112195829    0.04380622780220213    0.04384816133942895    
  0.044603108489457116    0.04597134285105532    0.04750264500523782    0.048500570541394804    0.04850042368340224    
  0.047502796981771    0.04597167326919627    0.04460317103351904    0.043847957708785766    0.043805871744584814    
  0.04425311283733689    0.053311568745805    0.055861135865243924    0.05685804996867165    0.05586112668693073    
  0.05331140530134687    0.05024827500961888    0.04763757601329671    0.0459713765616715    0.045249219588878495    
  0.045082852226257915    0.04507066998903127    0.04508262922740626    0.04524900164145313    0.04597166454497811    
  0.047637573490321425    0.05024821761831013    0.053311568745805    0.06460186608167685    0.07118778794717544    
  0.07523930735337071    0.0752400039234813    0.07118744896456987    0.06460196144903532    0.05755726249824688    
  0.05163416827384379    0.04750283665724873    0.045082604558227    0.04399165766113645    0.04399230792402278    
  0.04508262729873291    0.04750280600896791    0.051633393222863574    0.05755776688152566    0.06460186608167685    
  0.07622637760174854    0.0889367076161501    0.09896969521646427    0.10283692143146325    0.098969461828325    
  0.08893720782836445    0.07622678071924967    0.06417261161527014    0.054758982304390885    0.048500363679444394    
  0.04507126033621411    0.0439916550257077    0.045070685671333766    0.04850041385385865    0.05475932768801833    
  0.06417280014818923    0.07622637760174854    0.08521272749776239    0.10531185847986045    0.1241328949916479    
  0.13585803119639903    0.13585842511374557    0.12413313130713605    0.10531169247993134    0.08521277032423405    
  0.06815730139410589    0.05594136001978212    0.048500360358038265    0.045082591908122416    0.045082852146411806    
  0.048500561208467324    0.055941182016130846    0.06815699343006824    0.08521272749776239    0.08863418112694658    
  0.11541304302715569    0.14405398338384107    0.166744833343615    0.17550926764942676    0.1667441169951126    
  0.14405386931001954    0.11541317318333955    0.08863423415426334    0.06815729866571665    0.05475897740644072    
  0.04750283726093687    0.04524922648598806    0.04750265697825405    0.05475904333375389    0.06815697889821115    
  0.08863418112694658    0.08521253374867514    0.1154134407516678    0.15176452671604737    0.1857228838155749    
  0.20647949816678762    0.20647899786453278    0.18572284337393177    0.15176531329797752    0.1154131730760058    
  0.08521278725228851    0.06417259012457784    0.05163416733969246    0.045971378646768576    0.04597133854243622    
  0.051633642748445036    0.0641731416184619    0.08521253374867514    0.07622629133810102    0.10531142165225092    
  0.14405544750139399    0.18572247632245528    0.21820865739330944    0.23049024708308768    0.2182099631432431    
  0.18572281631987014    0.14405386231863046    0.10531168508500914    0.07622677983355206    0.05755725790325987    
  0.0476375829262957    0.04460310133734111    0.04763820328095255    0.05755717660585274    0.07622629133810102    
  0.06460198062225846    0.08893772231773421    0.12413282138022978    0.16674359095125132    0.20648023988444497    
  0.2304923343064143    0.2304902637347499    0.206479006482967    0.1667441125344891    0.12413314314673365    
  0.08893720524950062    0.06460195939101263    0.05024827258874243    0.04384816795596344    0.043847450697293    
  0.05024819361343946    0.06460198062225846    0.05331150592420859    0.0711875491459873    0.09896890260772308    
  0.1358591868329388    0.17550913080173264    0.20648021078078496    0.21820864646546756    0.2064794651936167    
  0.1755092661750862    0.13585842579171092    0.09896945139849607    0.07118743154632518    0.053311404922618356    
  0.043806218747049645    0.040897385675329995    0.04380621797152841    0.05331150592420859    0.04425311493284831    
  0.0558610180286935    0.07523992985510279    0.1028375097839435    0.13585919268372848    0.1667435896514092    
  0.18572249805724744    0.18572290436889355    0.16674483871455342    0.13585806624556387    0.1028369280197266    
  0.07524001781209681    0.05586112285891413    0.04425312601753886    0.03899385410369018    0.03899440732136222    
  0.04425311493284831    0.03800965950325619    0.044680420440463504    0.05685790688255662    0.0752399382333199    
  0.09896892443042736    0.12413281802848807    0.14405545090672642    0.15176453125756942    0.1440539885209029    
  0.124132908558906    0.098969691508145    0.07523930381538502    0.05685805600653487    0.044680156051742186    
  0.03801029710848645    0.035919430484968436    0.03800965950325619    0.034435016688252204    0.03771355505108469    
  0.04468041114403903    0.05586100678566893    0.07118756047299128    0.0889377198741105    0.10531140757538654    
  0.11541343539612858    0.11541304622679534    0.10531184469467043    0.08893669816300884    0.0711877793881985    
  0.05586113107901381    0.044680496960029965    0.03771333004080725    0.034434799865704566    0.034435016688252204    
  0.03327454271557666    0.03443502557947466    0.03800966241901339    0.044253107273768695    0.05331151545930762    
  0.06460196496198359    0.0762263071787751    0.08521253468240288    0.0886341662920518    0.08521272299468882    
  0.0762263801758151    0.06460184950168307    0.05331157193040407    0.04425311264370093    0.038009762315295424    
  0.03443509477958168    0.03327454271557666    0.03678737782155437    0.038420277592396065    0.04359482902142719    
  0.05292580635487208    0.06683084295244202    0.08460107126157827    0.1032740465667592    0.11791211683177466    
  0.12353890670149716    0.11791221150607387    0.10327387735922698    0.08460105418575319    0.06683109095328219    
  0.05292565899208209    0.043594288202054236    0.03842028236371528    0.03678737782155437    0.03842028128705468    
  0.038420228150892494    0.04037628072072269    0.044507896409696684    0.05114800998888945    0.06023071426585211    
  0.07068076523374386    0.08027506617582796    0.08617474814373785    0.08617446580254444    0.08027490139263174    
  0.0706811262874032    0.06023063701562476    0.05114782925898815    0.04450819477018033    0.04037663757165711    
  0.03842028128705468    0.04359428138463554    0.04332471919242503    0.04359472565180396    0.044507900418889926    
  0.04643180072914049    0.04969133726747475    0.05408327322632003    0.05881394592468887    0.06259589162671389    
  0.06405908403266092    0.06259635647779067    0.05881388218119058    0.05408290725529835    0.0496916176887236    
  0.04643169758583763    0.044508191291355394    0.04359428138463554    0.05292566089233524    0.054124901803995026    
  0.05412451833161573    0.05292601023690421    0.051147969226649645    0.04969164030088657    0.04910822477216032    
  0.04943306829840641    0.050249245336535034    0.0508827225538502    0.0508823863756514    0.05024905917513469    
  0.04943309112088128    0.04910841417662413    0.04969162844209386    0.05114782511876597    0.05292566089233524    
  0.0668310818377252    0.07207240753925669    0.07408864775374864    0.07207201489440702    0.06683066329623437    
  0.060230721422138145    0.054083149004890904    0.049432526639439034    0.04649407807191134    0.04496062917916918    
  0.04448732416261666    0.04496085323660971    0.04649386700251811    0.04943308963341543    0.054082908219015145    
  0.060230646722354945    0.0668310818377252    0.08460105319293122    0.09750781805230431    0.10543890851091328    
  0.10543929731643129    0.09750859568443582    0.0846008718560893    0.07068122839139052    0.05881431039656035    
  0.0502496577492723    0.04496030214986199    0.0425056712112879    0.04250545347008588    0.04496085677942118    
  0.05024906060732183    0.05881389125884259    0.07068113053156136    0.08460105319293122    0.10327386004609661    
  0.12784928854083988    0.14724695016887224    0.1546982947301143    0.14724576725656488    0.12784993534972566    
  0.10327389438209082    0.08027454746731474    0.06259590807245245    0.05088266888397246    0.04448768465882923    
  0.04250566499254628    0.04448733873672788    0.050882388696920425    0.06259636375731716    0.08027489101344233    
  0.10327386004609661    0.1179122113132226    0.15621988491475777    0.1920933140158287    0.21398430405568464    
  0.21398527052832722    0.19209446044273434    0.15621986112284514    0.1179125397496685    0.08617532395555376    
  0.06405871346283841    0.05088267307981778    0.04496028891578417    0.044960615198423926    0.05088271679754208    
  0.06405907308474236    0.08617445817555303    0.1179122113132226    0.12353891328160191    0.1736871873475674    
  0.22696834968599522    0.26711871911015045    0.281783106566519    0.26711839693336614    0.2269683703885378    
  0.17368699443696473    0.12353877454791087    0.08617533022174757    0.06259591117298033    0.05024967401656228    
  0.04649408857643796    0.050249255647584326    0.06259588316747916    0.08617473186005513    0.12353891328160191    
  0.1179121280407952    0.17368632851086116    0.24012774694011052    0.2973422631277463    0.32790193438844556    
  0.32789968937359715    0.29734116831355556    0.2401290995135208    0.17368699895806114    0.11791257196358906    
  0.08027452711486081    0.058814302794520205    0.04943253049200645    0.049433056960926605    0.05881394457065376    
  0.08027504493546922    0.1179121280407952    0.10327403572447093    0.15622009563014763    0.2269715552523232    
  0.2973420059151289    0.3429841850687392    0.3571077144277828    0.3429869680487663    0.2973411550288773    
  0.22696836468232678    0.15621984606284392    0.10327390718339921    0.07068122853120347    0.05408315808015807    
  0.04910822691364081    0.05408327865744384    0.07068077385072774    0.10327403572447093    0.08460108463195665    
  0.12784953027384585    0.19209275485683505    0.2671184452800536    0.32790176675900146    0.3571104837310357    
  0.35710775065112976    0.3278996913292926    0.26711838524502673    0.19209447461004694    0.12784993792301474    
  0.08460087242960519    0.0602307259725875    0.0496916441542167    0.04969134483944317    0.06023070740888409    
  0.08460108463195665    0.06683082961048349    0.09750882166650192    0.1472463811927076    0.2139868686480421    
  0.28178303909356944    0.32790176089054285    0.34298418359898536    0.3279018880380066    0.2817830899009713    
  0.21398525392860945    0.14724576717921156    0.09750857592840088    0.06683066539890996    0.05114794555869532    
  0.0464318076528487    0.051148001768558465    0.06683082961048349    0.05292580825648344    0.07207191290847391    
  0.10543890327912693    0.15469907791032242    0.21398689403069635    0.26711845754834274    0.2973420447341442    
  0.29734226869625174    0.26711872949856535    0.21398435681257016    0.15469830687995864    0.10543932141731464    
  0.07207201765744883    0.052926004529273804    0.04450790846362914    0.04450789753580763    0.05292580825648344    
  0.04359482725986844    0.05412469669701668    0.07408908384751554    0.10543891748730563    0.1472464064435382    
  0.19209276209549098    0.22697157878197938    0.24012774901432143    0.22696835243549235    0.19209332199806423    
  0.1472469376852311    0.10543888692496924    0.07408865545951526    0.05412452743008914    0.04359473240678747    
  0.04037628814211899    0.04359482725986844    0.038420271159968565    0.04332439610806273    0.05412469106789397    
  0.07207190137530671    0.0975088320728924    0.12784952415555856    0.15622009128696188    0.17368630505105376    
  0.17368718269806346    0.1562198800995085    0.12784929507286083    0.09750781432740324    0.0720723971864128    
  0.05412489777861838    0.04332472407975827    0.03842022291140461    0.038420271159968565    0.03678737782155437    
  0.038420277592396065    0.04359482902142719    0.05292580635487208    0.06683084295244202    0.08460107126157827    
  0.1032740465667592    0.11791211683177466    0.12353890670149716    0.11791221150607387    0.10327387735922698    
  0.08460105418575319    0.06683109095328219    0.05292565899208209    0.043594288202054236    0.03842028236371528    
  0.03678737782155437    0.0407974230941909    0.04301766735532442    0.05020019088676988    0.06348154811694232    
  0.08372883030387612    0.11021083900619487    0.13858793661820729    0.16100410012214547    0.16962484657115062    
  0.16100444554107957    0.13858129608393002    0.1102107332201464    0.08373264297956531    0.0634804658642444    
  0.05019970747151785    0.04301779316034668    0.0407974230941909    0.04301779497564137    0.04301752657359113    
  0.045621265082356255    0.051257692229465635    0.06050023623437352    0.0733243308961062    0.08829265888424012    
  0.10221806955192476    0.11083571377349857    0.1108357050958676    0.1022167691141695    0.0882982816146193    
  0.07332300111707826    0.060498379776045934    0.05125868148029986    0.04562106812881731    0.04301779497564137    
  0.050199692390028805    0.04990180836859478    0.05020012128170865    0.05125798744047904    0.053624663323547275    
  0.057789720966531725    0.06352305428290446    0.06977769672429689    0.07480206809221461    0.07674204173203879    
  0.0748023847027466    0.06977855531547772    0.06351928956937507    0.057790401404915016    0.05362556301427896    
  0.05125867237539599    0.050199692390028805    0.06348046644490403    0.06542823690470917    0.06542712102074713    
  0.06348155291453157    0.06050027382864345    0.057790220334447875    0.05621381443983225    0.055960425584439186    
  0.056539013267627114    0.05709556847895765    0.0570953737816177    0.05653867824094303    0.05595925331172977    
  0.0562174574316304    0.05779041625112206    0.06049837125338542    0.06348046644490403    0.08373263586382813    
  0.09198687464277829    0.09517936977237049    0.09198672113821467    0.0837290998944806    0.07332314981562059    
  0.06352343851023622    0.055958169276801105    0.0510651163314049    0.0484560578483127    0.04764473444737748    
  0.04845638226555033    0.051065557104994545    0.05595924336186477    0.06351929244766438    0.07332301477098396    