#     DFTpy    
  CRYSTAL 
    
  PRIMVEC    
  3.2837298341168557    -1.8041452e-10    3.419627048275862e-10    
  -1.8041452e-10    3.283729833926047    1.6477416620689654e-10    
  6.248937275862068e-10    3.011540551724138e-10    6.015856696860532    
  PRIMCOORD    
  4    1    
  Si    1.6418649169958661    1.6418649178665938    1.8486381689499027    
  Si    6.088458738181156e-10    -5.634787410785077e-10    1.1592901774581237    
  Si    9.33826463880729e-11    4.2556101113281985e-10    4.856566515990168    
  Si    1.6418649174881341    1.6418649166192645    4.167218531829605    
  BEGIN_BLOCK_DATAGRID_3D    
  3d_datagrid_density    
  BEGIN_DATAGRID_3D#0    
  15    15    27    
  0.0    0.0    0.0    
  3.2837298341168557    -1.8041452e-10    3.419627048275862e-10    
  -1.8041452e-10    3.283729833926047    1.6477416620689654e-10    
  6.248937275862068e-10    3.011540551724138e-10    6.015856696860532    
  0.5756990437263585    0.5282630335031707    0.41164047348260474    0.28220850347563436    0.1809262441733109    
  0.11778436211667224    0.08583642913487152    0.07629680294175523    0.08583643794551497    0.11778435955186316    
  0.18092623572129168    0.28220851959500587    0.4116404476124966    0.5282630106889784    0.5756990437263585    
  0.5282630568438409    0.48597353120730685    0.3817100365542433    0.26523602478809905    0.1731038970094654    
  0.11481928953593161    0.0849784934199108    0.07602395855689578    0.08497850043544251    0.11481930324891196    
  0.17310390277846843    0.265236030052067    0.38171001863318316    0.48597351595936444    0.5282630568438409    
  0.41164047032351414    0.38171003804365516    0.3072974074118653    0.22234131032231888    0.15277433998315948    
  0.10700672579948209    0.08288203438006767    0.07556205509127736    0.08288204476376092    0.10700674097930635    
  0.15277434692442382    0.22234127254117544    0.30729740893098784    0.3817100221953306    0.41164047032351414    
  0.2822085095687778    0.26523606481280626    0.22234128902894879    0.17145806610374836    0.12759057773628615    
  0.09721036310270909    0.08058234939452032    0.07545266472931171    0.08058235856969394    0.0972103669409722    
  0.1275905844109114    0.17145807047946837    0.22234128627101524    0.2652360594120717    0.2822085095687778    
  0.18092624356493225    0.1731039277992795    0.1527743563510767    0.12759059412972082    0.1048743662178258    
  0.08840700734490188    0.07899488471938011    0.0760166322545053    0.0789948934750981    0.08840701184174116    
  0.10487435908150927    0.1275905753713979    0.1527743546079894    0.17310392550753848    0.18092624356493225    
  0.11778433562632344    0.11481930378286036    0.10700674623111321    0.09721036980194518    0.08840701531288489    
  0.08202214066446907    0.07830899776852172    0.07711777744231216    0.0783090043702536    0.08202213559917072    
  0.08840702375019782    0.09721033584334547    0.1070067441892803    0.11481930680848722    0.11778433562632344    
  0.08583643339486936    0.08497851830821837    0.0828820516419015    0.08058234202978615    0.0789948791219797    
  0.07830901219103695    0.078215456203975    0.07828519853011767    0.07821547070330241    0.0783089917331857    
  0.07899488164249163    0.08058232970994217    0.08288203180792324    0.08497851438514475    0.08583643339486936    
  0.07629679340771853    0.0760239600099609    0.07556206778266324    0.07545266693008276    0.07601661906807122    
  0.07711779521081125    0.07828517939876228    0.07883570165859798    0.07828519068470666    0.07711778714765317    
  0.07601661726769271    0.07545267365932545    0.07556205125670729    0.07602394573116372    0.07629679340771853    
  0.08583641587512626    0.08497851819233289    0.08288205124170529    0.08058235229644152    0.07899489104542007    
  0.0783089972133803    0.07821546759987799    0.07828518623357027    0.07821547890649826    0.07830898238845853    
  0.07899487866669716    0.080582340063069    0.08288204109004074    0.08497851175755297    0.08583641587512626    
  0.1177843472333355    0.11481930198819065    0.10700673958558272    0.09721036053905584    0.08840700623071736    
  0.08202212915637781    0.07830900477705102    0.07711777808182899    0.07830902191911858    0.08202214885659957    
  0.0884070209801743    0.09721035990649184    0.10700674420297267    0.1148193079159559    0.1177843472333355    
  0.1809262388865902    0.1731039263708645    0.1527743327443123    0.1275905758392565    0.10487437450709122    
  0.08840700076755843    0.07899489959657197    0.0760166192914619    0.07899490868827085    0.08840701595839755    
  0.1048743628120366    0.12759057835189236    0.15277434573389842    0.17310392464346167    0.1809262388865902    
  0.2822084968267386    0.26523603308920485    0.2223412777114235    0.17145807493375814    0.12759057790630401    
  0.09721035475662933    0.0805823437348802    0.07545266928457357    0.08058235115965828    0.09721034724957957    
  0.12759059298656966    0.17145807486660392    0.22234131432651602    0.26523605302785835    0.2822084968267386    
  0.4116404550652388    0.38171003747441595    0.30729737666969764    0.22234131119817996    0.1527743531339559    
  0.10700672637522682    0.08288204223194352    0.07556205924970223    0.082882051579223    0.10700674788173305    
  0.15277433421902867    0.2223412791467586    0.3072973678060516    0.38171002525366404    0.4116404550652388    
  0.5282630239931008    0.4859735397177111    0.38171002198661164    0.2652360436305583    0.17310389173627835    
  0.114819307306409    0.08497850058190104    0.07602396583099565    0.08497850751994761    0.11481929424896888    
  0.17310387915108102    0.2652360009995395    0.3817100033514148    0.48597349361563996    0.5282630239931008    
  0.5756990437263585    0.5282630335031707    0.41164047348260474    0.28220850347563436    0.1809262441733109    
  0.11778436211667224    0.08583642913487152    0.07629680294175523    0.08583643794551497    0.11778435955186316    
  0.18092623572129168    0.28220851959500587    0.4116404476124966    0.5282630106889784    0.5756990437263585    
  0.577956531508218    0.5353419864155401    0.4256319826493555    0.2966031696711312    0.19169402568591323    
  0.1252030609769424    0.09128459286820532    0.08110641632227643    0.0912846041333833    0.12520305463705964    
  0.19169400713231344    0.2966031780831666    0.4256319429821441    0.5353420116111008    0.577956531508218    
  0.5353420140298494    0.49649199357605855    0.3967479513759958    0.279565238125467    0.18378802240148323    
  0.12236644856513303    0.09064195105362734    0.08105939448559354    0.09064195579059141    0.1223664533483928    
  0.18378803189779588    0.2795652224463279    0.39674794404016606    0.49649198392039073    0.5353420140298494    
  0.4256319675109786    0.39674794437625577    0.3229565839330715    0.2358780655156816    0.16317094945213437    
  0.11493526187905914    0.08922240051404617    0.08132032382412659    0.08922239956466753    0.114935275431885    
  0.16317094958563672    0.23587804104630716    0.32295662069317077    0.3967479631694265    0.4256319675109786    
  0.29660316407893184    0.2795652543740069    0.23587804077509741    0.18326211414625748    0.1375388262097125    
  0.10568839918074661    0.08799215403154771    0.08243253378760251    0.08799216987764223    0.10568839904494576    
  0.13753882581260918    0.18326212583988144    0.23587804229187118    0.2795652404597911    0.29660316407893184    
  0.1916940188379146    0.18378805038234802    0.16317096094016673    0.13753884051307486    0.11434050030503988    
  0.09744435991163436    0.08768790384278574    0.08455621976854552    0.0876879073317676    0.09744436766077516    
  0.1143405064355964    0.1375388281811224    0.16317096456088753    0.18378805388452077    0.1916940188379146    
  0.12520304215450112    0.12236647369407978    0.11493527192969756    0.10568840179957316    0.09744437531030677    
  0.0915971608441356    0.0882988047596448    0.08726031591568101    0.08829880821450016    0.0915971724424994    
  0.09744438135683339    0.10568837698189934    0.11493526551768661    0.1223664640813988    0.12520304215450112    
  0.09128459666922085    0.0906419654216213    0.08922240661594788    0.08799215991457925    0.08768789387981923    
  0.08829880702624995    0.08915045301671659    0.08953739501288692    0.08915047017619475    0.08829879657188162    
  0.08768790184164929    0.08799213197668253    0.08922238138158196    0.09064196300742516    0.09128459666922085    
  0.08110641525631465    0.08105939785750632    0.08132033989745442    0.08243254131182595    0.08455622375164058    
  0.0872603226284706    0.08953738537382525    0.09043561720796148    0.08953739004636567    0.08726031560612495    
  0.0845562088943842    0.0824325308850152    0.08132031047385047    0.08105938742522648    0.08110641525631465    
  0.09128459032897047    0.09064197388173374    0.08922240513358344    0.08799215316639182    0.0876878995534125    
  0.08829880420707703    0.08915045354621422    0.08953738283349866    0.0891504729118386    0.08829879580354766    
  0.08768789505357288    0.08799215037558615    0.08922239492068564    0.09064196264320634    0.09128459032897047    
  0.12520304674405772    0.12236646230227936    0.11493527103195927    0.10568838955503371    0.09744436775034757    
  0.0915971571423508    0.08829880631226968    0.08726031030237247    0.08829881468728155    0.09159717738571989    
  0.097444384653363    0.1056883804551567    0.11493527501596412    0.12236647006669175    0.12520304674405772    
  0.19169402548519712    0.18378804695745285    0.1631709534974901    0.13753881464549256    0.11434051487273544    
  0.09744435941321972    0.08768790208006744    0.08455621825034035    0.08768791718102407    0.09744436872914049    
  0.1143405044203808    0.1375388081464406    0.16317096317966348    0.18378803550541134    0.19169402548519712    
  0.29660317155683974    0.2795652366376917    0.23587804578802946    0.18326212197680364    0.13753880838880359    
  0.10568838646929041    0.08799214798596042    0.08243253268769699    0.08799216882472287    0.1056883879674829    
  0.13753883892964786    0.1832621161209036    0.2358780583430609    0.27956526064615256    0.29660317155683974    
  0.4256319206734233    0.39674796727618544    0.3229565896080438    0.23587806068848446    0.16317095377404162    
  0.1149352502508421    0.08922240190906877    0.08132031977367883    0.08922240423712478    0.11493526853049012    
  0.1631709608710195    0.23587804280858665    0.3229565713228437    0.39674795780032146    0.4256319206734233    
  0.5353419890944042    0.49649201969300905    0.3967479492310702    0.2795652361653035    0.18378802149439963    
  0.1223664608293832    0.09064194788177371    0.0810593985440075    0.0906419551965157    0.12236644709322579    
  0.18378800216202143    0.279565200688949    0.3967479305785556    0.4964919733972662    0.5353419890944042    
  0.577956531508218    0.5353419864155401    0.4256319826493555    0.2966031696711312    0.19169402568591323    
  0.1252030609769424    0.09128459286820532    0.08110641632227643    0.0912846041333833    0.12520305463705964    
  0.19169400713231344    0.2966031780831666    0.4256319429821441    0.5353420116111008    0.577956531508218    
  0.5045464821001138    0.4933057647690185    0.4376604554173943    0.33151629056568693    0.2225003826880746    
  0.1471139648079698    0.10743447610141887    0.09540574554975391    0.10743448726459381    0.14711397293507883    
  0.22250037653724383    0.3315163133823696    0.4376603849266594    0.4933057658655974    0.5045464821001138    
  0.4933057580173895    0.47828188609670386    0.41842473187297397    0.3161582680418812    0.2148487834961586    
  0.14490751573698754    0.10770219299700819    0.09631414628140281    0.10770218731865011    0.14490752129325404    
  0.2148487988408892    0.3161582485223173    0.41842471333772113    0.47828189459845966    0.4933057580173895    
  0.4376604086736107    0.4184247385332928    0.3590908809637137    0.2740420672726214    0.19458929870254418    
  0.13929226318379284    0.10895134110502902    0.09942733794034377    0.10895134870963312    0.13929229077569685    
  0.19458933196489225    0.27404206461092634    0.3590908749311372    0.41842474131017043    0.4376604086736107    
  0.3315162885904516    0.31615827246271705    0.27404205943158694    0.21917088772334278    0.16883340776855443    
  0.13260139839833557    0.11180663047658411    0.10507461432206548    0.11180664328754591    0.13260141984892718    
  0.1688334132351171    0.21917087817911263    0.2740420645177702    0.316158283914137    0.3315162885904516    
  0.22250038002312797    0.21484882177511316    0.19458932578976443    0.16883341247246875    0.14485738379414642    
  0.12691221835209113    0.11628841993359405    0.11280441866060396    0.11628842837205931    0.12691221464738828    
  0.14485739771860684    0.1688333970246003    0.19458931577979263    0.2148488155659354    0.22250038002312797    
  0.1471139485277542    0.1449075404491155    0.13929226525446622    0.13260142162190466    0.1269122382501436    
  0.12327005012102654    0.12160298745840731    0.12117062404272642    0.12160298273567069    0.12327006800645889    
  0.12691222818026301    0.13260139029113252    0.13929227011720552    0.14490752914823923    0.1471139485277542    
  0.10743448167047254    0.10770219949975163    0.10895136278245537    0.11180663621637246    0.11628840402977138    
  0.12160298552519323    0.12592321079593435    0.1275403669524175    0.1259232270793557    0.12160295812238008    
  0.1162884059067724    0.11180662095299376    0.10895132863473228    0.10770218875047326    0.10743448167047254    
  0.09540575259708686    0.09631414444876457    0.09942736043703523    0.1050746250178455    0.11280440344997947    
  0.12117064091289373    0.12754034748654022    0.12982627138726785    0.12754036699744664    0.1211706274256384    
  0.11280441290733402    0.10507461382826432    0.09942733070318574    0.09631414694658476    0.09540575259708686    
  0.10743447901890955    0.10770219821742961    0.10895136714962657    0.11180664396126098    0.11628841242972227    
  0.12160297428137452    0.1259232095667019    0.12754036141722014    0.12592321193392675    0.1216029690000283    
  0.11628840521665487    0.11180662360513047    0.10895134484455307    0.10770219302328758    0.10743447901890955    
  0.14711396502401966    0.1449075367547178    0.13929228115308412    0.13260141239870113    0.1269122311387455    
  0.12327005645388528    0.12160298800894104    0.1211706399859199    0.12160299201514496    0.12327007936638784    
  0.12691223388847012    0.13260140210328042    0.1392922777657566    0.1449075345936402    0.14711396502401966    
  0.22250038598091224    0.21484882525778515    0.19458931534544316    0.16883340369107908    0.14485740119954463    
  0.12691222294746077    0.1162884108734068    0.1128044097256555    0.11628843453628498    0.12691222395505247    
  0.14485739998983643    0.1688333891256091    0.19458932213217506    0.21484881724068539    0.22250038598091224    
  0.33151628326860344    0.3161582536722484    0.2740420673347392    0.2191708956571774    0.16883339653050242    
  0.1326014079946918    0.11180664774945596    0.1050746181503439    0.11180665044348377    0.13260140040376373    
  0.16883340117754764    0.21917087455092893    0.2740420726519181    0.3161582654902366    0.33151628326860344    
  0.4376604020762738    0.4184247495881961    0.3590908637619778    0.2740420842497281    0.19458932366115425    
  0.13929225727000288    0.10895135662599673    0.09942734332154789    0.10895134888893647    0.1392922885013682    
  0.19458930604006264    0.2740420476676105    0.3590908648513714    0.4184247543286009    0.4376604020762738    
  0.49330573063718713    0.4782818959051145    0.4184247431664311    0.3161582462118308    0.21484879530029652    
  0.1449075279028461    0.10770218052287926    0.09631414579348369    0.10770219818813964    0.14490751074510538    
  0.2148487733949753    0.31615823285169975    0.41842471314904267    0.47828187159077207    0.49330573063718713    
  0.5045464821001138    0.4933057647690185    0.4376604554173943    0.33151629056568693    0.2225003826880746    
  0.1471139648079698    0.10743447610141887    0.09540574554975391    0.10743448726459381    0.14711397293507883    
  0.22250037653724383    0.3315163133823696    0.4376603849266594    0.4933057658655974    0.5045464821001138    
  0.2816232935905111    0.32214538217134103    0.3866657985227904    0.3634115513199715    0.2670882748161899    
  0.1813507332898611    0.13334309591258958    0.11866412000281787    0.13334311217954067    0.18135073436422963    
  0.2670882911415504    0.3634115836000213    0.3866657621583128    0.3221453722859571    0.2816232935905111    
  0.3221453706587888    0.3538061059483636    0.3947139585689248    0.355977454670197    0.2613800211429374    
  0.18091834683863672    0.13570653966726812    0.12173805750805901    0.13570654940112775    0.18091837590035775    
  0.26138002698722335    0.35597742426531265    0.39471392784472603    0.353806117650404    0.3221453706587888    
  0.38666576777372436    0.39471394097021273    0.3866509049675246    0.32721545017385695    0.245066620706729    
  0.18010972533296993    0.14296806385520475    0.13115963699912042    0.1429680821527771    0.18010975648392546    
  0.24506664585861884    0.32721542990359886    0.38665090762678944    0.3947139468998183    0.38666576777372436    
  0.3634115674345498    0.35597744389517105    0.3272154474843128    0.2768737736777507    0.2224585731051331    
  0.1802423868136205    0.15513794343376233    0.1468485586052981    0.1551379595480421    0.18024239212153573    
  0.22245859871630333    0.27687376955453236    0.3272154477724039    0.35597746170685723    0.3634115674345498    
  0.26708829014587476    0.2613800472021249    0.2450666331918401    0.2224585856094674    0.1997837749845151    
  0.1818419862780408    0.17083083618736875    0.16711958735886148    0.17083086020339633    0.1818419830743382    
  0.19978377894357427    0.22245859192316061    0.2450666430929246    0.2613800443823729    0.26708829014587476    
  0.181350716862441    0.18091839203563967    0.18010973201608163    0.18024241873940536    0.1818420136963761    
  0.18442199806248138    0.1869343583760437    0.1879605319906433    0.1869343634843528    0.18442201174523218    
  0.1818420031432076    0.180242387864801    0.18010972124169614    0.18091838262165413    0.181350716862441    
  0.13334310319873746    0.1357065597744264    0.1429680868723008    0.15513794458111174    0.17083084847332536    
  0.18693435149545046    0.1989131889894124    0.20319282263507055    0.19891320226300147    0.1869343395455225    
  0.17083082816217315    0.15513791808382357    0.14296805116457717    0.13570655109914384    0.13334310319873746    
  0.11866413805003184    0.12173806364620142    0.13115965319657633    0.14684857942703317    0.1671195884705921    
  0.18796054408965615    0.2031928074770139    0.2084929476378361    0.20319282246987128    0.18796055343881465    
  0.1671195767388412    0.146848567889144    0.13115963665986888    0.12173806029246895    0.11866413805003184    
  0.13334309827303342    0.1357065642293965    0.14296809284435738    0.15513795564221627    0.17083084501733364    
  0.18693436068665698    0.1989131971356235    0.20319281016175142    0.19891320199991092    0.18693434693491462    
  0.17083084443127522    0.1551379200025694    0.14296806441981624    0.135706563955581    0.13334309827303342    
  0.18135074145056632    0.18091838550842143    0.180109744143755    0.18024240581766934    0.18184199687420863    
  0.18442201068839303    0.18693435473856185    0.1879605533754373    0.18693437418914532    0.18442203547275457    
  0.18184201349408793    0.1802423865223769    0.18010974817349643    0.1809183754189788    0.18135074145056632    
  0.26708829074472673    0.2613800665275868    0.24506662310872865    0.2224585948742671    0.19978378597113797    
  0.18184200380543122    0.1708308476678723    0.16711957355144438    0.17083086781331416    0.18184198968092907    
  0.19978379657645487    0.22245857889279658    0.24506665424427018    0.26138006343420833    0.26708829074472673    
  0.36341153752794103    0.3559774669715023    0.3272154374712434    0.2768737873560976    0.22245858044565917    
  0.18024239951356671    0.15513793895110467    0.14684857592104883    0.1551379485922169    0.18024239637966077    
  0.2224585950636905    0.276873776731833    0.32721546385348416    0.35597745021910265    0.36341153752794103    
  0.3866657742247171    0.3947139531521731    0.3866509068263997    0.3272154559905885    0.24506664123415567    
  0.18010971180347354    0.1429680761744383    0.13115963750048357    0.14296807547692528    0.18010973784091347    
  0.2450666171171356    0.3272154205862069    0.38665089400610075    0.3947139638024613    0.3866657742247171    
  0.3221453680339347    0.35380615866118137    0.3947139623141382    0.3559774334261816    0.26138003204989513    
  0.18091837965001906    0.13570654190911605    0.12173806691128887    0.13570655115716962    0.18091836207603826    
  0.2613800205438172    0.35597742289269374    0.3947139301123971    0.35380612290569396    0.3221453680339347    
  0.2816232935905111    0.32214538217134103    0.3866657985227904    0.3634115513199715    0.2670882748161899    
  0.1813507332898611    0.13334309591258958    0.11866412000281787    0.13334311217954067    0.18135073436422963    
  0.2670882911415504    0.3634115836000213    0.3866657621583128    0.3221453722859571    0.2816232935905111    
  0.10081446177733186    0.15181235726669837    0.29359335275961235    0.3764896765776476    0.3139276872891329    
  0.2216955129754354    0.16540581816096908    0.14799434512831874    0.16540582615776023    0.22169551789970585    
  0.313927691569649    0.3764896975792092    0.29359333117978714    0.1518123594021765    0.10081446177733186    
  0.15181236832193556    0.20463497171843154    0.3305657472018832    0.3831750941107569    0.3130245170511518    
  0.2248996123373363    0.1714639189372594    0.15475799357357253    0.17146393132780577    0.22489963616907432    
  0.3130245096670932    0.38317508875706796    0.3305657370829565    0.20463497738319877    0.15181236832193556    
  0.29359334160229    0.33056571056248485    0.39150353716080394    0.38164545116437937    0.30684038391280105    
  0.2336753941233977    0.18941899916169744    0.17513351686515047    0.18941901201186065    0.2336754157831167    
  0.30684040802632023    0.3816454228006683    0.3915035738008566    0.3305657533120712    0.29359334160229    
  0.3764896645175788    0.3831750859939194    0.38164543002891227    0.3470179349774234    0.29364979883106496    
  0.2473702008846231    0.2184822466489486    0.2086438404709879    0.21848227793295086    0.2473702080218736    
  0.2936498367953737    0.34701794170775524    0.38164545084650636    0.38317512068928394    0.3764896645175788    
  0.313927664559108    0.3130245474689955    0.3068403834354898    0.2936498203811823    0.2778347060242244    
  0.2640502705725479    0.2545194566004181    0.2508917193406555    0.25451948113071193    0.264050282814633    
  0.2778347138495105    0.2936498149192804    0.3068403920927324    0.31302453769668154    0.313927664559108    
  0.2216954925759902    0.2248996420611271    0.23367540246424093    0.2473701977018571    0.2640503043499952    
  0.27895001286611976    0.287955602186102    0.29059255743962087    0.2879556067229878    0.27895002860027995    
  0.2640502948393421    0.24737018665848495    0.23367540616530885    0.22489965316789554    0.2216954925759902    
  0.16540582518069147    0.17146392687128165    0.18941902413787298    0.21848227386811078    0.2545194567047216    
  0.2879556006920583    0.30870848629073505    0.31487529449591595    0.3087085142145997    0.28795559245425423    
  0.25451943185856385    0.21848223521450053    0.18941899400884682    0.1714639159298386    0.16540582518069147    
  0.14799435939945244    0.15475799829965733    0.17513352161605616    0.20864385874895922    0.2508916892045499    
  0.2905925550426492    0.3148752780371827    0.32177807332834985    0.3148753038215018    0.29059257039582886    
  0.2508916805375046    0.20864386213003705    0.1751334928357896    0.15475799726876233    0.14799435939945244    
  0.1654058191271761    0.17146393817417696    0.18941904380613728    0.21848227785285002    0.2545194555059292    
  0.287955613162255    0.30870849560680463    0.31487529352563237    0.30870851442761404    0.2879555803391169    
  0.254519453648522    0.21848224598155175    0.18941900267831716    0.17146393316095282    0.1654058191271761    
  0.22169551709686397    0.22489965237972379    0.23367542861675764    0.24737021606793058    0.2640502643857433    
  0.27895001482399046    0.28795558932368337    0.2905925905510513    0.2879555991662392    0.2789500366554951    
  0.2640503089652356    0.24737017118168192    0.23367542553394668    0.22489963395013446    0.22169551709686397    
  0.3139276951462965    0.31302454925552137    0.3068403900342592    0.2936498038152176    0.2778347145680697    
  0.26405027549708776    0.25451947870993025    0.2508917009755632    0.25451948739637414    0.26405029028598387    
  0.27783473967976224    0.2936498198854575    0.30684038458687124    0.31302454422869347    0.3139276951462965    
  0.3764896627753171    0.383175098525235    0.38164542981893274    0.347017923340794    0.2936498132876681    
  0.24737018002955294    0.21848225005819913    0.20864386780274116    0.21848226878734925    0.24737018564774427    
  0.29364979944449254    0.3470179477253715    0.3816454686751092    0.38317511768238754    0.3764896627753171    
  0.2935933272184531    0.33056574383460907    0.39150353877653526    0.38164548437789636    0.30684038207819186    
  0.23367538928568124    0.1894190048748465    0.17513348953615918    0.18941901789289803    0.23367540522901495    
  0.3068403691199398    0.3816454278556375    0.3915035306293406    0.3305657516040836    0.2935933272184531    
  0.1518123474117415    0.20463499626438092    0.33056574782638865    0.38317509501683955    0.31302453350452975    
  0.22489963701595925    0.17146390440020595    0.15475800936319914    0.1714639223192951    0.22489962878471356    
  0.3130245229511202    0.38317507037932313    0.33056568946648934    0.20463498191326537    0.1518123474117415    
  0.10081446177733186    0.15181235726669837    0.29359335275961235    0.3764896765776476    0.3139276872891329    
  0.2216955129754354    0.16540581816096908    0.14799434512831874    0.16540582615776023    0.22169551789970585    
  0.313927691569649    0.3764896975792092    0.29359333117978714    0.1518123594021765    0.10081446177733186    
  0.05411629487391911    0.0986417558118802    0.2551505169290804    0.3901157868919882    0.3516117919494425    
  0.2571879895964107    0.19578795460435056    0.17647983545088763    0.1957879591177554    0.2571880009273661    
  0.35161180595982444    0.39011581158162234    0.25515048179519917    0.09864174808833791    0.05411629487391911    
  0.09864174974325246    0.15156852163060883    0.3045755263234907    0.4074484984671571    0.35658982796755934    
  0.26538762863177734    0.20673820915180952    0.1880887139980469    0.20673824148630948    0.26538767647189854    
  0.35658983619951373    0.4074484501353832    0.3045755116890331    0.1515685252600708    0.09864174974325246    
  0.2551505077218147    0.30457553004910737    0.4034147056362276    0.4292772745871818    0.3643876924573581    
  0.2880762559758637    0.2394893827207722    0.22344650091012072    0.23948939176574963    0.28807630569464304    
  0.3643877329103757    0.42927726789404236    0.4034147473733529    0.3045755431259261    0.2551505077218147    
  0.39011578118412044    0.40744846054728917    0.42927727810871974    0.41307968029961734    0.36722602856293496    
  0.32232458105123013    0.292283710897307    0.28148217174436346    0.2922837274434912    0.322324595733438    
  0.3672260868572543    0.4130797134665266    0.42927731458780133    0.40744848501023656    0.39011578118412044    
  0.3516117983155861    0.3565898626177228    0.3643877192749196    0.3672260596653592    0.36564195920698295    
  0.36066220749969635    0.352929581321135    0.34854043656075767    0.35292961875310513    0.3606622103972718    
  0.3656420134200125    0.3672260632126206    0.36438773900365035    0.35658987922779073    0.3516117983155861    
  0.25718797521334624    0.2653876465303327    0.2880762868168419    0.3223245931118056    0.36066226272796686    
  0.3868819422159079    0.39212006910061753    0.38976927973923675    0.3921200645255319    0.38688198071830265    
  0.3606622200241504    0.32232457485175253    0.2880762694573339    0.2653876784918749    0.25718797521334624    
  0.19578796772170884    0.20673823651222203    0.23948938325922536    0.29228370800819    0.3529295482533417    
  0.3921200628134803    0.3937950180528161    0.38629695168120526    0.39379505211701255    0.39212002427659937    
  0.35292953358016055    0.29228368871390725    0.2394893544629567    0.20673823482828033    0.19578796772170884    
  0.17647984001195727    0.18808873266663736    0.22344652555599573    0.28148219533331365    0.3485404134781473    
  0.389769258940158    0.3862969252511343    0.37503538583621543    0.386296943637234    0.38976928612341444    
  0.3485404025657325    0.28148219307795175    0.22344647599007164    0.18808871207792166    0.17647984001195727    
  0.19578797515120003    0.20673823473317193    0.2394894050873961    0.2922837318727072    0.35292956418832977    