#     DFTpy    
  CRYSTAL 
    
  PRIMVEC    
  3.814551724137931    0.0    0.0    
  0.0    3.814551724137931    0.0    
  0.0    0.0    3.814551724137931    
  PRIMCOORD    
  2    1    
  Si    0.0    0.0    0.0    
  Si    1.9072758620689658    1.9072758620689658    1.9072758620689658    
  BEGIN_BLOCK_DATAGRID_3D    
  3d_datagrid_density    
  BEGIN_DATAGRID_3D#0    
  17    17    17    
  0.0    0.0    0.0    
  3.814551724137931    0.0    0.0    
  0.0    3.814551724137931    0.0    
  0.0    0.0    3.814551724137931    
  0.06379075531132569    0.11414934004604098    0.27810214031565544    0.38248350820087273    0.2970118795102923    
  0.17898254937654592    0.10714397668725012    0.07377994278857897    0.06427063768393755    0.07377993913537297    
  0.10714392957686279    0.17898258569763695    0.29701188062455947    0.38248342626544923    0.27810218347505805    
  0.11414935360705467    0.06379075531132569    0.11414936465940236    0.17097704773936284    0.31908304068315274    
  0.37848536125190335    0.28130339964319107    0.17001305179471768    0.10331677270479227    0.07218993420762741    
  0.06328621586380984    0.07218994194110676    0.10331677100024429    0.170013051956997    0.28130341718039703    
  0.3784854207876418    0.3190830120987735    0.1709770894650725    0.11414936465940236    0.2781021440691106    
  0.31908304315849023    0.3795924149197893    0.34432073318643863    0.23797569923936643    0.14693115917276708    
  0.09362488658428297    0.06832144079415485    0.061021723621048796    0.06832145031094126    0.0936248755797689    
  0.1469311754221551    0.2379756847741692    0.3443207017123201    0.37959244592468155    0.31908301292341007    
  0.2781021440691106    0.3824834751031577    0.3784854277322089    0.34432069972908363    0.26686918576659463    
  0.18150344176959493    0.11890369071387637    0.08209517123939243    0.06405461294633993    0.05878012192878626    
  0.06405461271814372    0.08209516951210113    0.11890366199804853    0.1815034232796904    0.2668692071702288    
  0.34432071886692817    0.37848543176195837    0.3824834751031577    0.29701185590730794    0.2813033450070134    
  0.237975691532653    0.1815034428283321    0.1304595063334457    0.09420719207373543    0.07225581209561333    
  0.06111942355510584    0.05782076837566195    0.06111941133933085    0.07225578604502929    0.09420723726246177    
  0.13045949270357804    0.1815034155449352    0.23797573049667833    0.2813033651026933    0.29701185590730794    
  0.17898259927128735    0.17001304672001447    0.14693118331459842    0.1189036949710001    0.09420723963434585    
  0.07653071430211242    0.06576900201957397    0.06035378177100281    0.05878012154317217    0.06035377958841379    
  0.06576900925363091    0.07653070948180314    0.09420723934043555    0.11890369889054274    0.14693117652120047    
  0.17001305316532428    0.17898259927128735    0.1071439447962206    0.10331676427750795    0.09362486942791026    
  0.08209516120067875    0.07225578985130715    0.06576898148936594    0.06249111352622601    0.06127442950088467    
  0.06102172343213102    0.061274460740965826    0.062491077961699566    0.06576899032786053    0.07225580683042603    
  0.08209515438813184    0.09362489334859576    0.1033167576882888    0.1071439447962206    0.07377997344599646    
  0.07218994220549951    0.06832145927184083    0.06405460935265789    0.06111942321492458    0.06035377449633379    
  0.06127447952510798    0.06265062831970487    0.06328619660249625    0.0626506476140591    0.061274468078146765    
  0.060353770237011134    0.061119424541156556    0.06405460532433027    0.06832145702044234    0.07218993207231077    
  0.07377997344599646    0.06427063558818852    0.06328618469439355    0.06102170969128621    0.05878011788015203    
  0.05782076666008952    0.05878008933734258    0.06102173643834933    0.06328619409312632    0.06427064387966187    
  0.06328618481193614    0.0610217120393005    0.058780121375707844    0.057820768058560706    0.05878009941433215    
  0.061021732916313076    0.06328619276072729    0.06427063558818852    0.07377996883209624    0.07218994419072518    
  0.06832145011559049    0.0640546103213556    0.061119432841870235    0.06035378489163889    0.06127444115035792    
  0.06265065299702208    0.06328620525732628    0.06265063355013746    0.0612744585398513    0.060353779832190285    
  0.06111942015995046    0.06405461732722335    0.06832144500937097    0.0721899396331053    0.07377996883209624    
  0.10714395837987724    0.1033167667614607    0.09362487340201038    0.08209517069457985    0.07225580301937244    
  0.06576898974121456    0.06249110164092795    0.061274437623647024    0.06102172377184275    0.06127445217045655    
  0.06249108952525898    0.06576901368836414    0.07225580952521929    0.0820951616142861    0.09362488711062238    
  0.10331676512983493    0.10714395837987724    0.1789825923179834    0.17001304386480687    0.14693117818132187    
  0.11890367152843835    0.09420723390291862    0.07653071227316831    0.06576902383197376    0.060353788054809995    
  0.05878012125137094    0.060353794682573174    0.06576899923438735    0.07653069790261532    0.09420724347506357    
  0.11890368628559882    0.1469311722575987    0.17001304114289303    0.1789825923179834    0.29701186926519274    
  0.28130335536264106    0.23797566454254915    0.18150343592074306    0.13045949863826048    0.09420721871894167    
  0.0722558204266283    0.06111940369207311    0.05782075932863084    0.06111940145016549    0.07225579796527579    
  0.09420725018956838    0.13045950951277543    0.18150337445769    0.23797572034435463    0.2813033958008361    
  0.29701186926519274    0.3824835135591633    0.3784853867469083    0.34432070722863145    0.2668692128174224    
  0.18150343077073552    0.11890369717703292    0.08209517374034057    0.0640546161259958    0.05878012967756154    
  0.06405461126329433    0.08209517505305564    0.11890369847223589    0.18150343346236267    0.266869212409303    
  0.3443206928197378    0.3784854143443406    0.3824835135591633    0.2781021616822975    0.31908306382755947    
  0.3795923984997433    0.3443206582035106    0.23797569150034462    0.14693115262744813    0.09362489383555526    
  0.06832143691191574    0.06102171661673741    0.0683214476932727    0.09362486561082634    0.14693117389918608    
  0.2379756683676658    0.34432067323285714    0.3795924606215483    0.31908299044313726    0.2781021616822975    
  0.11414935944357103    0.17097707101111398    0.3190830751693118    0.37848539665039665    0.28130339332743803    
  0.17001303039952037    0.10331678944482099    0.07218993135758581    0.06328621991604605    0.0721899421535556    
  0.1033167895665638    0.1700130408520597    0.281303403059604    0.3784853671932417    0.31908308768377386    
  0.17097703793336488    0.11414935944357103    0.06379075531132569    0.11414934004604098    0.27810214031565544    
  0.38248350820087273    0.2970118795102923    0.17898254937654592    0.10714397668725012    0.07377994278857897    
  0.06427063768393755    0.07377993913537297    0.10714392957686279    0.17898258569763695    0.29701188062455947    
  0.38248342626544923    0.27810218347505805    0.11414935360705467    0.06379075531132569    0.11414938258869478    
  0.1709770603611783    0.31908304975413676    0.3784854291084918    0.28130342821481874    0.17001302343439287    
  0.10331679477130587    0.07218993711611424    0.06328621367585578    0.07218992895425112    0.10331676537500675    
  0.17001306369690616    0.28130342071160624    0.378485343916746    0.3190830979582756    0.17097705399614016    
  0.11414938258869478    0.1709770962413095    0.22733646266597832    0.34937939997381    0.37000808359284654    
  0.2663252681582072    0.1619792946183217    0.10008495429197616    0.07100193150641873    0.06265065988133629    
  0.0710019275222436    0.1000849470102361    0.16197929237764366    0.26632527008368406    0.37000812040302256    
  0.349379413114457    0.2273364746596341    0.1709770962413095    0.3190830497427998    0.3493794112235005    
  0.38223404975015035    0.32974147618327737    0.22588899618599204    0.1413276054032548    0.09184554447109304    
  0.06814600434705814    0.06127446979861013    0.06814601276527073    0.09184553312296624    0.1413276218899114    
  0.22588901642789613    0.32974142009526464    0.3822340461103024    0.3493794216940691    0.3190830497427998    
  0.3784853975452316    0.37000811181824456    0.329741455876622    0.25367745938248254    0.1741209222981417    
  0.11632286131326179    0.08217560194822489    0.06530676043688566    0.060353794302131246    0.06530675661214476    
  0.08217558923030499    0.11632284016836794    0.17412090898076601    0.2536774872920613    0.32974146397592047    
  0.3700081244588811    0.3784853975452316    0.28130342187865526    0.2663252241772257    0.2258890191468901    
  0.17412089122232316    0.12754079087411402    0.09438947320896468    0.0743098999486403    0.06413372884456035    
  0.0611194247743734    0.06413372113887295    0.07430989196478298    0.0943894905480801    0.1275407993534383    
  0.1741208695996499    0.22588904442270352    0.2663252391001801    0.28130342187865526    0.1700130646696421    
  0.1619792932588751    0.14132761967941393    0.11632286097282994    0.09438950587474775    0.07887504882573965    
  0.06972336142662532    0.06530677307356565    0.06405462441132913    0.06530676955263391    0.06972335821413168    
  0.07887504977700986    0.0943895047551678    0.11632285715899145    0.14132761855369874    0.16197929204605993    
  0.1700130646696421    0.10331677582933425    0.10008493975523437    0.09184552675245974    0.08217559435413985    
  0.0743098939604091    0.06972334165880698    0.06814475626274089    0.06814600117218259    0.06832145167875933    
  0.0681460146682944    0.06814473414283471    0.06972332533472991    0.07430989669874791    0.08217557533267854    
  0.09184555147957398    0.10008494984477044    0.10331677582933425    0.0721899631030312    0.07100192934164869    
  0.06814603081449591    0.06530674774036135    0.06413373332750835    0.06530675443391315    0.06814604033720258    
  0.07100191900041021    0.07218994886741079    0.07100192826860698    0.06814603498376023    0.06530674758163628    
  0.06413373585879778    0.0653067670287812    0.06814602852302988    0.07100192037678192    0.0721899631030312    
  0.06328620970739013    0.06265062701186236    0.061274451187709925    0.06035379065690245    0.061119432029908306    
  0.06405459557713826    0.06832148337663965    0.07218993045393847    0.07377997290306308    0.07218993713358567    
  0.06832144489929522    0.06405462127447546    0.06111943496088675    0.0603537699257143    0.061274467994926717    
  0.06265063824392608    0.06328620970739013    0.07218996140861476    0.07100192871278584    0.06814601453854253    
  0.06530676202053878    0.06413373470995754    0.0653067655612264    0.06814601336651901    0.07100192492376631    
  0.0721899632305005    0.07100192182778249    0.06814601124385064    0.06530675800786795    0.06413373325761433    
  0.06530676229585827    0.06814601569180137    0.07100193533054054    0.07218996140861476    0.1033167929868056    
  0.10008493679243229    0.09184553086564849    0.08217559647490863    0.07430989624091432    0.0697233259350511    
  0.06814476576132977    0.06814600816904558    0.06832145799147984    0.06814600418989483    0.06814473850825248    
  0.06972335561784332    0.07430988119563753    0.08217558259015974    0.09184554698428521    0.100084936417674    
  0.1033167929868056    0.1700130592504028    0.1619792833634653    0.14132762051471315    0.11632284650993291    
  0.09438949718152186    0.07887504619343429    0.06972334850377693    0.06530675874957466    0.06405462311049864    
  0.0653067627600046    0.06972335019948532    0.07887503677398698    0.09438950902609358    0.11632285986926252    
  0.14132761605000038    0.16197929115937837    0.1700130592504028    0.28130339979920765    0.2663252193407765    
  0.22588900491945418    0.17412090580307354    0.12754080009489496    0.09438946302923212    0.07430991306981609    
  0.06413371907686939    0.06111943413527046    0.06413372230184425    0.07430989132653511    0.09438949061555398    
  0.1275407839745247    0.17412088837323722    0.2258890258693833    0.26632526413843327    0.28130339979920765    
  0.3784854483433697    0.37000811569309483    0.3297414762071582    0.25367749954279867    0.17412091849122008    
  0.11632285798879681    0.08217559617964704    0.06530675959530806    0.06035380091417296    0.06530676281192747    
  0.08217559208104792    0.11632286719045103    0.17412092409408395    0.2536774906899831    0.3297414477972932    
  0.37000813286055284    0.3784854483433697    0.3190830321888908    0.34937940329125994    0.38223399714405243    
  0.3297413978862523    0.22588901906839362    0.14132759507846882    0.09184555310514773    0.06814601598039104    
  0.06127445752655952    0.06814601331478472    0.09184552264890532    0.14132762250602018    0.2258890169546552    
  0.3297414560865611    0.38223405683030826    0.3493793815273756    0.3190830321888908    0.17097707214692026    
  0.22733645324478663    0.3493794482017321    0.37000805646852275    0.26632525721195    0.161979305030128    
  0.10008497114017893    0.07100191953624652    0.06265065945652096    0.07100192780405422    0.1000849668170731    
  0.1619792796582422    0.26632526551921887    0.3700080817142329    0.3493794841047879    0.22733644625571253    
  0.17097707214692026    0.11414938258869478    0.1709770603611783    0.31908304975413676    0.3784854291084918    
  0.28130342821481874    0.17001302343439287    0.10331679477130587    0.07218993711611424    0.06328621367585578    
  0.07218992895425112    0.10331676537500675    0.17001306369690616    0.28130342071160624    0.378485343916746    
  0.3190830979582756    0.17097705399614016    0.11414938258869478    0.2781021653305013    0.3190830007201117    
  0.37959241269510907    0.3443207066707876    0.23797572763796765    0.14693113456424264    0.09362490426908494    
  0.0683214453127675    0.06102172896729102    0.0683214399745262    0.09362486048828798    0.14693118393509053    
  0.23797569913667954    0.3443206585253889    0.37959242611776134    0.3190830407162821    0.2781021653305013    
  0.3190830393157051    0.34937943183150333    0.3822340438842893    0.32974146072603266    0.2258889933729898    
  0.1413276184946847    0.0918455357725599    0.06814601388519259    0.06127446855574195    0.06814601747079733    
  0.09184552566091464    0.1413276160180674    0.2258890242019632    0.3297414616268204    0.38223402126581835    
  0.3493794452512621    0.3190830393157051    0.3795924089668867    0.3822340047766852    0.3593897022928939    
  0.28439122312354626    0.1942720745491899    0.12698415777107405    0.0874672246010867    0.06814472667501484    
  0.06249109770319952    0.06814474351381108    0.08746721606816632    0.1269841675579787    0.1942720698407926    
  0.2843911756048707    0.3593897384546194    0.382233988772858    0.3795924089668867    0.344320717975179    
  0.32974146869688853    0.28439119596081225    0.21823480035031517    0.15516129088221334    0.11005633050123444    
  0.08315346678333212    0.06972334817873863    0.06576900941663448    0.06972334194150258    0.0831534681753429    
  0.11005631080847085    0.1551612751180743    0.21823479694946263    0.2843911974980889    0.32974146379752495    
  0.344320717975179    0.23797568377890088    0.22588897270910033    0.19427206899202987    0.15516128316583433    
  0.12050577463568651    0.09598984295973692    0.08144064571440453    0.0743098926306685    0.0722557995017159    
  0.07430987371602571    0.08144063533878537    0.0959898584586977    0.12050577035399304    0.15516125861584323    
  0.19427211850212303    0.2258889965115204    0.23797568377890088    0.1469312007986355    0.14132761549062736    
  0.12698419188335558    0.11005631741688805    0.09598985806546947    0.08709789959581297    0.08315345694510794    
  0.0821755997385308    0.08209518829959137    0.0821755803086969    0.08315345901881456    0.08709789538249739    
  0.09598986980787139    0.11005632792496141    0.12698417692048575    0.14132761497985616    0.1469312007986355    
  0.09362487101760379    0.09184551917856339    0.08746720976234375    0.08315344972195049    0.08144063671336457    
  0.0831534461143491    0.08746724026026363    0.09184550974668543    0.09362486604913668    0.09184553546399345    
  0.08746719881054768    0.08315344758801155    0.08144063343873675    0.08315344320868663    0.08746723658149205    
  0.09184551719656714    0.09362487101760379    0.06832146770921896    0.06814601432459226    0.06814475171270162    
  0.06972334734149425    0.07430988199508053    0.08217558495990077    0.09184556212937527    0.10008493774881032    
  0.10331677236322225    0.10008495667918188    0.09184554991882145    0.08217557859725831    0.07430988700095013    
  0.06972333689159439    0.06814474858091933    0.06814600145807864    0.06832146770921896    0.06102172685605238    
  0.061274440753728204    0.06249107979588399    0.06576901065429318    0.07225580401321116    0.08209514168113109    
  0.0936248852856498    0.10331676593130983    0.10714396302069013    0.1033167490470324    0.093624861934828    
  0.0820951759208515    0.0722558142900466    0.0657689824026871    0.06249110750167944    0.06127445052304428    
  0.06102172685605238    0.0683214666346926    0.0681460168056049    0.06814473474869258    0.06972335087906319    
  0.0743098961033639    0.08217559309198308    0.09184553148460729    0.10008494654788293    0.10331677942549618    
  0.10008496057778501    0.09184553619173866    0.08217559399465205    0.07430987466432173    0.06972335278959153    
  0.06814473717652136    0.06814601650138952    0.0683214666346926    0.09362488410955051    0.09184553096086442    
  0.08746721228888348    0.08315345718573278    0.08144063267854793    0.08315344111832268    0.08746723237785338    
  0.09184551399789354    0.09362487359490389    0.09184552909640993    0.08746720646500647    0.08315347354901056    
  0.08144063759473655    0.0831534492107909    0.08746722521542527    0.0918455175314775    0.09362488410955051    
  0.14693117766607205    0.14132759320901667    0.12698418294730704    0.11005631684388037    0.09598986173364311    
  0.0870978826462691    0.08315346098328928    0.08217559194995462    0.08209517805987834    0.08217558696653825    
  0.08315345045887743    0.08709789270966685    0.09598987113006427    0.11005632920786294    0.12698417142393198    
  0.14132760646413622    0.14693117766607205    0.2379756840153001    0.2258889671695077    0.19427206958181673    
  0.15516127806841584    0.12050576757285364    0.0959898375175102    0.08144066086942041    0.0743098770890413    
  0.07225579620520137    0.07430986761957899    0.08144062482016427    0.09598987258501035    0.1205057706273016    
  0.15516125287277177    0.19427209582059077    0.2258890027800615    0.2379756840153001    0.3443207538904012    
  0.32974141906780946    0.2843912083996682    0.2182348163568065    0.15516128239514965    0.11005632710719587    
  0.08315346088661917    0.06972335145031046    0.06576902429684955    0.06972335038730945    0.083153470132163    
  0.11005632107760102    0.15516127477132213    0.21823481692988192    0.28439118845640676    0.3297414877632759    
  0.3443207538904012    0.3795924006904936    0.38223404533695743    0.3593896978294009    0.28439115895187644    
  0.19427207234008553    0.1269841514948267    0.08746723560350463    0.06814472710722724    0.06249108857394604    
  0.06814473002750361    0.08746720539893516    0.12698417293155417    0.19427207017728698    0.28439118245187733    
  0.35938975258542993    0.382233990444428    0.3795924006904936    0.31908303764157914    0.3493794246320892    
  0.3822340662900833    0.3297414231468268    0.2258890087898742    0.14132759541370205    0.09184554854434333    
  0.06814600040539441    0.061274466801474275    0.06814601253954156    0.09184554588080712    0.14132760940085481    
  0.2258890047467805    0.3297414306584872    0.3822340799679813    0.3493793887977122    0.31908303764157914    
  0.2781021653305013    0.3190830007201117    0.37959241269510907    0.3443207066707876    0.23797572763796765    
  0.14693113456424264    0.09362490426908494    0.0683214453127675    0.06102172896729102    0.0683214399745262    
  0.09362486048828798    0.14693118393509053    0.23797569913667954    0.3443206585253889    0.37959242611776134    
  0.3190830407162821    0.2781021653305013    0.3824835102364837    0.37848539948252813    0.3443207128775614    
  0.2668692122495652    0.18150345139289684    0.1189036709925101    0.08209519469251435    0.06405460495899164    
  0.05878012728808816    0.06405460796126872    0.08209515767686888    0.11890369586571152    0.18150343525858986    
  0.26686916379636444    0.34432076299890657    0.3784854195176788    0.3824835102364837    0.3784854292589461    
  0.37000810524046135    0.32974145470206223    0.2536774775705531    0.17412090579397382    0.1163228641067077    
  0.08217558812944695    0.06530675489286446    0.060353799271472844    0.06530675995303345    0.08217559147816982    
  0.11632284864334644    0.17412092053531708    0.2536774894495772    0.3297414537654082    0.37000809273558427    
  0.3784854292589461    0.34432070026059547    0.3297414486676777    0.2843912026518733    0.21823482418410947    
  0.15516127780001948    0.11005632563418959    0.08315347668594514    0.06972334018484097    0.06576901957153453    
  0.06972334854837202    0.08315345950631546    0.11005633654054635    0.15516127808550492    0.21823477672146638    
  0.2843912276280386    0.3297414462788666    0.34432070026059547    0.26686921545587705    0.25367747543327623    
  0.21823480588669397    0.17308523491420302    0.1325873446853193    0.10399366532219322    0.08709789753812461    
  0.07887504072969596    0.07653071027306944    0.07887503980496932    0.08709789590983927    0.10399364077885759    
  0.13258731900134121    0.17308524197896868    0.21823483230669136    0.2536774834567132    0.26686921545587705    
  0.18150342846070042    0.17412087613472335    0.15516128565317114    0.1325873122989592    0.11368871973018514    
  0.10161070335955091    0.09598987542994576    0.09438948869536756    0.09420724912397166    0.09438946603580287    
  0.09598985803689482    0.10161073374666567    0.11368872056977342    0.13258729096886143    0.15516130636656755    
  0.17412089109181902    0.18150342846070042    0.11890371143446528    0.11632286671878922    0.11005634401440746    
  0.10399366432415492    0.10161072882316875    0.10399366882287653    0.11005632768423658    0.11632287073647576    
  0.11890369897263388    0.11632286146228622    0.11005634672589937    0.10399364354192957    0.10161073112960498    
  0.103993651593582    0.11005632661646828    0.11632286655555293    0.11890371143446528    0.08209516820794747    
  0.08217558068713601    0.0831534584537025    0.08709789032833111    0.09598985806878617    0.11005631772887584    
  0.12698419161191224    0.14132760371335806    0.14693118530354535    0.14132760354433913    0.12698415834033547    
  0.11005631424763285    0.09598987146844686    0.0870978768180026    0.08315348236388984    0.08217558111689371    
  0.08209516820794747    0.06405463388162785    0.0653067585456156    0.0697233653473439    0.07887503819007721    
  0.09438948948236954    0.11632284060585164    0.14132763542783194    0.16197927004287802    0.1700130556317646    
  0.16197930278972675    0.1413276483020974    0.11632282928108956    0.094389493822512    0.0788750429913393    
  0.06972335923686351    0.06530674616429115    0.06405463388162785    0.05878012534376342    0.06035377606858803    
  0.06576899790082884    0.07653071051494494    0.09420724477559826    0.11890366445295734    0.1469312168477419    
  0.17001305122516341    0.17898261285814562    0.17001304439426404    0.14693117761444152    0.11890370025284504    
  0.09420725324244264    0.07653068815165    0.06576902700960316    0.06035377922653588    0.05878012534376342    
  0.0640546295112763    0.06530675603900028    0.06972335072366002    0.07887503744504988    0.09438950676910644    
  0.11632286597977955    0.14132761885676964    0.1619792751757155    0.1700130660629032    0.16197928275168935    
  0.1413276040412923    0.11632285200682259    0.09438949548515684    0.07887504560694661    0.06972334621635498    
  0.0653067566249674    0.0640546295112763    0.08209518241833112    0.08217558564222564    0.08315346068929508    
  0.08709789819840037    0.0959898678448001    0.11005629515519925    0.1269841991619912    0.14132760013112663    
  0.14693116772590287    0.1413276009076173    0.12698416375075464    0.11005633537770766    0.09598986243908372    
  0.08709788786395989    0.08315347514675382    0.08217557965429673    0.08209518241833112    0.11890370308911884    
  0.11632284679821898    0.11005633102384481    0.10399364533085935    0.10161072706825167    0.10399364495295839    
  0.11005634220170592    0.11632286014884276    0.11890370337114836    0.11632285106041156    0.1100563226819036    
  0.10399364776982288    0.1016107419019941    0.10399366045282822    0.11005632854113007    0.11632284934129898    
  0.11890370308911884    0.181503435579948    0.17412085966466892    0.15516126959063029    0.13258733624172608    
  0.11368872027567571    0.10161068623825122    0.09598988835973095    0.09438947673222414    0.09420723853519342    
  0.09438947676019405    0.09598986378583275    0.10161072171998892    0.11368871438174365    0.1325873007978176    
  0.15516128833273754    0.17412090254131854    0.181503435579948    0.2668692160293269    0.25367748134161966    
  0.21823482594419008    0.17308523910524656    0.13258733673571602    0.10399364758097975    0.08709788971078486    
  0.07887504726589138    0.07653072238544106    0.07887504444878406    0.08709789787524613    0.10399367043880164    
  0.13258732778247775    0.17308525879530756    0.218234797942425    0.25367750709042886    0.2668692160293269    
  0.3443207109089963    0.32974144442998377    0.28439118051924667    0.21823478331730473    0.1551612885010428    
  0.1100563090378288    0.08315348494366596    0.06972334196059146    0.0657690072357943    0.0697233483116707    
  0.08315345560887949    0.11005632808625723    0.15516126801684413    0.21823479276166818    0.2843912246834663    
  0.3297414339128217    0.3443207109089963    0.3784854240571621    0.37000811760583313    0.3297415062751113    
  0.25367743454858827    0.17412091001733176    0.11632285136683647    0.08217560177809471    0.06530674473967439    
  0.06035380300547851    0.06530675820289866    0.08217560423807407    0.11632285215645859    0.17412090231754251    
  0.2536774605013184    0.3297414851761372    0.370008072272366    0.3784854240571621    0.3824835102364837    
  0.37848539948252813    0.3443207128775614    0.2668692122495652    0.18150345139289684    0.1189036709925101    
  0.08209519469251435    0.06405460495899164    0.05878012728808816    0.06405460796126872    0.08209515767686888    
  0.11890369586571152    0.18150343525858986    0.26686916379636444    0.34432076299890657    0.3784854195176788    
  0.3824835102364837    0.2970118915947809    0.28130335994093586    0.23797568907038133    0.1815034349372588    
  0.1304595000029584    0.09420721177196634    0.07225581847507821    0.06111941109770362    0.057820765197280806    
  0.061119410110937814    0.07225578538072047    0.09420723676373881    0.1304594873260096    0.18150339155225384    
  0.2379757253955768    0.28130337277941303    0.2970118915947809    0.28130338618598266    0.2663252504397525    
  0.22588901341104692    0.1741208843404058    0.12754078489673862    0.09438949400420217    0.07430988861693034    
  0.06413372678163733    0.06111943711457423    0.06413373168205176    0.07430988550338796    0.0943894854395024    
  0.12754080459056133    0.17412090935015367    0.2258889891728194    0.26632527601199707    0.28130338618598266    
  0.23797568022501622    0.22588901590457414    0.19427208381244462    0.15516129367597858    0.12050576766198165    
  0.09598985327429561    0.08144064689146409    0.07430987929601372    0.07225580423623053    0.07430987972192993    
  0.08144063335529006    0.09598985882620453    0.1205057642518636    0.15516124427229375    0.1942720888506989    
  0.22588898031252033    0.23797568022501622    0.18150343399499577    0.17412091329128754    0.15516127856641032    
  0.13258731187053976    0.11368872393597954    0.10161072347239475    0.09598986977164613    0.09438948784295283    
  0.09420724361639846    0.09438948973290956    0.09598987183067322    0.10161070190902274    0.11368870763353775    
  0.13258732144504057    0.1551612938370744    0.17412092252992484    0.18150343399499577    0.13045948764267196    
  0.12754076807944129    0.12050576094414543    0.11368870948783744    0.11098264556221568    0.11368867205915496    
  0.12050577692824385    0.12754079433326246    0.13045949203956425    0.12754075986972682    0.12050576055517108    
  0.11368871472780728    0.11098262893294089    0.11368868995042905    0.12050579291174474    0.12754077608007197    
  0.13045948764267196    0.09420724932435103    0.09438949652809324    0.09598987873607863    0.10161071899469036    
  0.11368871606293492    0.13258732693946132    0.15516126995133486    0.17412090454513002    0.1815034404789308    
  0.17412090869496516    0.15516128840802698    0.13258732734205597    0.11368871304704341    0.10161072347563613    
  0.0959898613898727    0.09438949734677785    0.09420724932435103    0.0722557997122565    0.07430987887465589    