#     DFTpy    
  CRYSTAL 
    
  PRIMVEC    
  6.733999999999999    0.0    0.0    
  0.0    6.733999999999999    0.0    
  0.0    0.0    3.7099999999999995    
  PRIMCOORD    
  4    1    
  Si    0.0    0.0    0.0    
  Si    3.3670000000000004    3.3670000000000004    1.8549999999999998    
  Si    0.0    3.3670000000000004    0.9274999999999999    
  Si    3.3670000000000004    0.0    2.7824999999999993    
  BEGIN_BLOCK_DATAGRID_3D    
  3d_datagrid_density    
  BEGIN_DATAGRID_3D#0    
  29    29    17    
  0.0    0.0    0.0    
  6.733999999999999    0.0    0.0    
  0.0    6.733999999999999    0.0    
  0.0    0.0    3.7099999999999995    
  0.07388163548438802    0.13147914414983314    0.31146429499926925    0.40625581096969243    0.29519593051781273    
  0.1661848976470272    0.09486542238542554    0.06597020666896439    0.06248586413511902    0.07892527424435979    
  0.11680326224328746    0.1766090799398825    0.24610416181520015    0.300212054454463    0.3197394101400408    
  0.3002120986920021    0.24610415086020118    0.1766090941704106    0.11680327432319237    0.07892525855464495    
  0.062485863231269693    0.06597020521057612    0.0948654632603568    0.1661848874351985    0.29519598712928213    
  0.40625581060757443    0.31146422140266866    0.13147913710150824    0.07388163548438802    0.1314791361329917    
  0.19540539758654418    0.35390048416131636    0.3981760863795346    0.27662759830634287    0.15565838780147867    
  0.08981990897886595    0.06306562054535549    0.05985055048543528    0.07512607163980867    0.11014474163629044    
  0.16533399736709684    0.2299541888381466    0.2811972237903213    0.30001699790727854    0.28119721557302146    
  0.22995413266754652    0.1653340199920562    0.11014470109935098    0.07512606655363381    0.05985053675553214    
  0.06306563829964096    0.08981990656281794    0.15565840168064707    0.2766275994349269    0.39817606435681485    
  0.3539004656101544    0.1954054153248224    0.1314791361329917    0.31146431997903656    0.35390044137555676    
  0.4078767443965484    0.3509734314893942    0.22603683471305244    0.12879741889804203    0.07692568605879246    
  0.05550905119520746    0.052914076101972386    0.0652154877252904    0.09308781721615948    0.1365731611537482    
  0.18791068250347134    0.22994671771875516    0.2459314273247473    0.2299467458709201    0.18791067408915352    
  0.1365731605115953    0.093087822882113    0.0652155010366972    0.052914094333167225    0.05550902976341408    
  0.07692566848360222    0.12879742041244477    0.22603685965209971    0.3509733880887757    0.4078766173007239    
  0.35390052403508865    0.31146431997903656    0.40625578571375764    0.39817603714249644    0.35097341684233124    
  0.25736839052901334    0.16171042982415262    0.09620703585804927    0.060936885489581684    0.045939971852244396    
  0.04410957066234503    0.052824349043595925    0.07221292301489142    0.10172720683476391    0.13621156226809095    
  0.16481683153602222    0.17591919194569633    0.16481684349939357    0.13621153904149214    0.10172725711087874    
  0.07221291454866811    0.052824355867685316    0.04410956493287693    0.045939947847699295    0.06093688699953114    
  0.09620705710779164    0.16171039709659993    0.2573683316542018    0.35097339231950847    0.39817610443307183    
  0.40625578571375764    0.29519592384541926    0.27662759560227773    0.22603682260190955    0.16171044953587077    
  0.10560411482136689    0.06759468553465685    0.04628337309404065    0.03690531907859286    0.03578076834495765    
  0.041343918546218564    0.05337022239675306    0.07103328488201115    0.09110370152138676    0.10753999596701537    
  0.11389526032095326    0.10753997824871862    0.09110371807759297    0.07103330191825127    0.053370213993369955    
  0.0413439190948575    0.035780779323326774    0.036905309682724485    0.046283390328983834    0.06759469523631485    
  0.10560412098977787    0.16171040801102313    0.22603684960237144    0.2766276055932105    0.29519592384541926    
  0.16618492699242723    0.15565841217097265    0.12879739746806    0.09620705257366001    0.06759469715221264    
  0.047368157514550646    0.03539440080066107    0.02988749597651597    0.029205499046014414    0.032498866828506064    
  0.039381171463862635    0.04907563533181806    0.05971797370519333    0.06820416000430729    0.0714394835326386    
  0.06820415731453758    0.05971796084340398    0.04907562996444387    0.0393811577533967    0.03249887385255098    
  0.029205512081844673    0.029887496509578153    0.03539440273723898    0.047368153537658525    0.06759469552559899    
  0.09620703940542558    0.12879739766365156    0.1556584524067662    0.16618492699242723    0.09486543292630117    
  0.0898199143802021    0.07692568731044665    0.060936906255568725    0.04628338300526663    0.03539440310362166    
  0.02859207289820952    0.025271303396664186    0.024785968421576394    0.026667415293264326    0.030495493063182496    
  0.03566507686920728    0.041124835489844844    0.045365081577985494    0.046969937643564615    0.04536510738621087    
  0.04112484307551057    0.03566507667865223    0.030495500946917338    0.026667423908340836    0.024785964571557014    
  0.025271301929487948    0.02859208224538879    0.035394407915122696    0.046283382627058285    0.06093688237287825    
  0.07692569275932518    0.08981992951215777    0.09486543292630117    0.06597021408970669    0.06306560997739599    
  0.05550902824235519    0.04593995670274118    0.036905298884216065    0.029887475036823454    0.025271293955034264    
  0.02288103499192907    0.022391012674063685    0.02345976002295417    0.025704507934221653    0.02866717219811378    
  0.031684593655266075    0.03398184852924931    0.03486012356855772    0.033981862278217465    0.03168459743747917    
  0.028667166890874386    0.02570451580939787    0.023459751265544705    0.022391003416869823    0.02288103743586785    
  0.025271300520185263    0.029887477356212323    0.036905315428477546    0.04593993734443253    0.05550902697638772    
  0.0630655987274028    0.06597021408970669    0.06248586671815689    0.05985053508643552    0.052914088272215144    
  0.0441095705216286    0.03578077218579199    0.029205486482616814    0.024785959035994207    0.022391014593108386    
  0.021690101240415927    0.022311275080389773    0.023889276498792418    0.026016134025835767    0.028173832363386372    
  0.029806540531004833    0.030428720877201932    0.02980654447557458    0.028173839592391798    0.02601612629517411    
  0.023889259992450042    0.022311266094578768    0.021690096489575084    0.022391017156407105    0.02478597163252382    
  0.02920549782937035    0.03578077794657539    0.04410955423564052    0.052914080763821314    0.05985055729666302    
  0.06248586671815689    0.07892527526055847    0.07512604627702303    0.0652154992466506    0.052824370192254444    
  0.04134392423621463    0.03249887526562255    0.02666742380939486    0.023459752213393636    0.02231126879931093    
  0.022728715243038957    0.024240868905276696    0.026379725972304348    0.02860015311926645    0.0302791374940814    
  0.03090608157926341    0.030279130838731707    0.02860012940440219    0.026379734203335538    0.024240875121128817    
  0.022728722126943282    0.022311284784429907    0.02345975100654359    0.026667409802305014    0.03249889341232334    
  0.04134394221060121    0.052824351200457954    0.06521550356778708    0.07512608396278138    0.07892527526055847    
  0.11680324255711308    0.11014468984012371    0.09308781307520149    0.0722129456384838    0.05337023222906016    
  0.03938116343153941    0.030495488004075803    0.025704525637677823    0.02388926090910047    0.02424087177135575    
  0.026121974248523947    0.02889672772683069    0.03181878733032472    0.03403906003428412    0.03486128984540402    
  0.03403906201126064    0.03181877394534118    0.02889674066573932    0.026121980617214418    0.024240860858160997    
  0.023889266600779186    0.025704512142455792    0.030495499413000074    0.03938116825103864    0.05337021354718069    
  0.07221291160694539    0.09308782927142169    0.11014475532791002    0.11680324255711308    0.1766090323914224    
  0.16533398294642748    0.13657314171155915    0.10172726413789258    0.07103327719769358    0.0490756145529229    
  0.03566505427109131    0.028667165204019036    0.02601612335812179    0.026379733489002535    0.028896748057128576    
  0.03271615537601419    0.03679315387133345    0.03992980323370358    0.041104919515307065    0.03992978447115619    
  0.03679314706009406    0.032716158649432094    0.02889674170706169    0.026379734397985008    0.026016121504780575    
  0.028667162868421275    0.035665074313703075    0.04907562388327164    0.07103327656112489    0.10172720786356526    
  0.13657316975413    0.16533400107680044    0.1766090323914224    0.24610413813456758    0.2299541284560361    
  0.18791067785281176    0.13621149956172712    0.09110371019369037    0.0597179813662045    0.04112485136824554    
  0.03168460256335603    0.028173833458554176    0.028600136467922154    0.03181877920359112    0.03679314705234603    
  0.04220830953306609    0.04643764587542681    0.04802937952322508    0.04643764220464631    0.04220831091712334    
  0.03679313795116628    0.0318187699564013    0.02860014390700464    0.02817383731436407    0.03168459944102313    
  0.04112484082429125    0.05971797142717    0.09110372532987666    0.13621147724350213    0.18791068439988548    
  0.22995419795265046    0.24610413813456758    0.3002119951587175    0.2811972195468233    0.22994676589810123    
  0.16481685587047495    0.10753999306978339    0.06820416992413396    0.04536508594159001    0.03398185365706519    
  0.02980654321754192    0.030279135668989043    0.03403902871153484    0.039929787603579084    0.04643765978764344    
  0.0515842111071081    0.05352878055901966    0.05158421957766028    0.04643767076419292    0.039929816654238934    
  0.03403905651350788    0.03027912697345422    0.029806530504041095    0.03398185588699858    0.04536509155061834    
  0.06820419590917225    0.1075399779299686    0.16481682934643346    0.22994670322857974    0.2811972004714791    
  0.3002119951587175    0.3197394874998125    0.3000170128720367    0.245931433209556    0.1759191200378125    
  0.11389519032237445    0.07143947815509746    0.04696993835118371    0.03486013251635378    0.030428733105919613    
  0.030906093913308477    0.03486127920721571    0.04110490739428354    0.048029381127055064    0.05352878875634037    
  0.0556229199418243    0.05352881828613346    0.0480293618034632    0.04110490667425206    0.03486126915546415    
  0.030906083193195225    0.030428740731048197    0.03486013975035783    0.04696995162035976    0.07143946676911142    
  0.11389526681369512    0.17591911037789135    0.24593142183000583    0.30001700028465506    0.3197394874998125    
  0.30021201676010334    0.28119723197549357    0.22994674165635254    0.16481687765488148    0.10753996773871206    
  0.06820415660955373    0.04536507941702223    0.03398184581387669    0.02980654381627931    0.030279132964342176    
  0.034039064852545216    0.03992980850361166    0.04643765261228039    0.05158421690485604    0.05352878152855803    
  0.0515842057723861    0.04643763050363392    0.03992981460306798    0.03403902781932047    0.030279140908997318    
  0.029806532284736478    0.0339818602854332    0.04536509218838434    0.06820417201052265    0.1075399658612369    
  0.1648167971885316    0.22994670824146346    0.2811972031320133    0.30021201676010334    0.24610420423129054    
  0.22995417627040446    0.1879106847092487    0.13621149168942767    0.09110371549577197    0.059717985515945766    
  0.04112485248672871    0.03168460499248308    0.028173828073671327    0.028600142066957462    0.031818759902127486    
  0.0367931288489028    0.042208332147976334    0.04643763934651068    0.04802939256347356    0.046437631585035215    
  0.04220831123578041    0.036793151101021486    0.03181876385341805    0.028600144132054927    0.02817384176528745    
  0.031684601009939244    0.0411248494543476    0.0597179730028563    0.09110372992111278    0.13621149342844469    
  0.18791066678962162    0.2299542112278937    0.24610420423129054    0.17660901590980746    0.16533397101507835    
  0.13657312804044328    0.10172727601471417    0.0710332904625588    0.04907562117676781    0.035665068536600834    
  0.02866717410414949    0.026016121366768896    0.026379726726632816    0.028896746643067052    0.032716140789808903    
  0.036793181125495296    0.039929811677887235    0.0411048897308313    0.03992980443874283    0.03679315062424161    
  0.03271614491618703    0.028896747404102786    0.026379729142615257    0.026016120510248594    0.028667171117276086    
  0.03566506627132243    0.049075637506412924    0.0710332810880746    0.10172722936778045    0.13657316988358156    
  0.1653340058529675    0.17660901590980746    0.11680323814682123    0.11014474693615446    0.09308778639738302    
  0.07221294188055619    0.05337021872038746    0.03938116866608863    0.030495490657274034    0.025704522738548265    
  0.023889255248163193    0.024240871734699604    0.026121975552405058    0.02889674087886416    0.0318187776031408    
  0.034039068782493756    0.03486128296372615    0.03403905360936351    0.03181875860402221    0.028896768851201866    
  0.02612197451457832    0.024240867747840882    0.023889261653179467    0.02570451321996112    0.030495499364628847    
  0.03938115721128974    0.05337022079905794    0.07221290748718852    0.09308784498801606    0.11014476589470786    
  0.11680323814682123    0.0789252734957732    0.07512605844404252    0.06521550106891358    0.05282436574619786    
  0.04134392790459346    0.032498869714561444    0.026667412210459252    0.023459756335123105    0.022311278252526427    
  0.02272871303115832    0.024240872094287994    0.0263797399277564    0.02860014693931346    0.030279131092489357    
  0.030906083590701725    0.030279131047120603    0.028600141495347328    0.026379746757529552    0.02424087375432797    
  0.022728721306247385    0.022311280449597303    0.023459758696625352    0.0266674206660128    0.03249886577896165    
  0.04134393467246598    0.05282434592235323    0.06521548205229928    0.07512608855117087    0.0789252734957732    
  0.06248585785724719    0.059850544545200716    0.05291409228746295    0.04410957940791132    0.035780764798972034    
  0.02920549564913012    0.02478595818781956    0.022391017442437943    0.021690100604796467    0.022311273362513203    
  0.02388926712163766    0.026016138564133914    0.028173830385611633    0.029806541170423223    0.030428715533376633    
  0.029806555049782347    0.028173836226927804    0.026016135543860664    0.02388926117284988    0.02231127386477082    
  0.02169010042937816    0.022391015743078415    0.024785971638454234    0.029205497849451836    0.03578077605376768    
  0.04410957984189554    0.0529140798838919    0.059850553421395766    0.06248585785724719    0.06597021119414936    
  0.06306560207784495    0.055509032631158126    0.04593995379080117    0.03690529720907803    0.02988747335372881    
  0.025271294416832176    0.02288103529468601    0.022391005789295114    0.023459744848343445    0.025704510697155604    
  0.02866716897398704    0.031684602046508706    0.03398185506238678    0.03486013163160342    0.03398186247761031    
  0.03168459421101828    0.028667166891523394    0.025704522492630427    0.023459741431970847    0.02239100801415284    
  0.022881030250644908    0.025271306171782963    0.029887480114177224    0.03690532198292983    0.045939944661335684    
  0.05550903091575623    0.06306558395724679    0.06597021119414936    0.09486543230653938    0.08981990568367788    
  0.07692568686808923    0.06093690181287047    0.046283370598320536    0.03539440071711816    0.028592076511856263    
  0.02527130949118841    0.024785963052542416    0.02666741880713772    0.03049550484572116    0.03566508081874433    
  0.041124840983171256    0.04536506947910183    0.04696993620554888    0.045365088675888066    0.04112483594817146    
  0.03566507096827942    0.030495484714051738    0.026667409654861897    0.024785958000585858    0.02527130568490793    
  0.02859208391842319    0.03539440311117512    0.04628338909706523    0.06093689125095195    0.0769256657983655    
  0.08981992083128748    0.09486543230653938    0.16618491147135014    0.15565839850817398    0.12879741323675062    
  0.09620706529169934    0.06759469668090592    0.047368155603513554    0.03539440565091243    0.02988749762892973    
  0.029205496785395493    0.032498865281187284    0.0393811776985434    0.04907563174742583    0.05971796299379732    
  0.06820416258770315    0.07143949661176861    0.06820417440571926    0.05971796124754854    0.0490756370407691    
  0.03938116304404084    0.03249886759997371    0.02920550200383476    0.02988748339666783    0.035394398516832494    
  0.04736815821060403    0.06759471604513338    0.09620704662305997    0.128797389255399    0.1556584504497362    
  0.16618491147135014    0.29519593381955395    0.2766275547179322    0.2260368272671838    0.1617104822427422    
  0.1056041225292788    0.06759468110893393    0.046283359360020385    0.036905317119408185    0.03578076912966115    
  0.041343927772431746    0.05337021957884319    0.07103327372488738    0.09110373585611461    0.10753997260904133    
  0.11389526769171078    0.10754000827176614    0.09110372823674513    0.07103328063995669    0.053370208080444057    
  0.041343922904366705    0.03578077552499986    0.03690532241190643    0.046283381210379074    0.06759468662916737    
  0.10560410228561873    0.16171041488751806    0.22603686126785774    0.2766276575538516    0.29519593381955395    
  0.40625582479266537    0.3981760605237675    0.35097338396966105    0.2573684962631977    0.16171042410678307    
  0.09620702614882991    0.060936864040330475    0.045939947290846626    0.04410956807844279    0.05282436155804738    
  0.07221292146559787    0.10172724223575831    0.13621148725892515    0.16481682718087334    0.17591919398781355    
  0.1648168173001243    0.13621151282608018    0.10172727814327144    0.07221292011568561    0.0528243368416096    
  0.04410956744584405    0.04593996257428818    0.060936900528585594    0.0962070466222    0.16171043287454245    
  0.2573682953303504    0.3509734207673169    0.398176120613931    0.40625582479266537    0.31146429875533477    
  0.3539003995339681    0.40787667978975933    0.35097343585380175    0.22603685706580506    0.12879741381316406    
  0.07692568750465174    0.05550905077938015    0.052914089101567946    0.06521548825610313    0.09308783006325098    
  0.13657318786751152    0.1879106495884753    0.22994670062261746    0.2459314543126876    0.22994670218636734    
  0.1879106131256955    0.1365731825973321    0.09308782921877315    0.06521549153405244    0.05291408634765807    
  0.055509042958490705    0.07692567929677759    0.12879743780134256    0.2260369024102914    0.35097342715906116    
  0.4078766472976151    0.3539004979879433    0.31146429875533477    0.13147916391805436    0.19540540848195995    
  0.35390047401469565    0.3981760946187391    0.27662756940497707    0.15565840884122958    0.08981990534289903    
  0.06306562866670717    0.05985055345349702    0.07512606081301713    0.1101447096966597    0.16533398773039917    
  0.22995415616387968    0.28119720113328256    0.30001702248278994    0.28119725382534744    0.22995424723057456    
  0.1653340275274003    0.11014469867732579    0.0751260472304333    0.05985053072911057    0.06306562276454505    
  0.08981991503444225    0.15565841750156859    0.2766275764643931    0.3981760427647907    0.35390042482055223    
  0.19540539111134692    0.13147916391805436    0.07388163548438802    0.13147914414983314    0.31146429499926925    
  0.40625581096969243    0.29519593051781273    0.1661848976470272    0.09486542238542554    0.06597020666896439    
  0.06248586413511902    0.07892527424435979    0.11680326224328746    0.1766090799398825    0.24610416181520015    
  0.300212054454463    0.3197394101400408    0.3002120986920021    0.24610415086020118    0.1766090941704106    
  0.11680327432319237    0.07892525855464495    0.062485863231269693    0.06597020521057612    0.0948654632603568    
  0.1661848874351985    0.29519598712928213    0.40625581060757443    0.31146422140266866    0.13147913710150824    
  0.07388163548438802    0.12727314660888953    0.19113934210996966    0.35173896832222473    0.3990819216583835    
  0.2774941888603564    0.1549581795815585    0.08724517376247631    0.058025331160653205    0.050417314461860166    
  0.05709920311122613    0.07629683939421665    0.1069607592502207    0.14337710482103214    0.17385802954645826    
  0.18576259856289065    0.1738580491895388    0.14337711495922112    0.10696076902427544    0.07629685088453253    
  0.05709919056399971    0.050417306145013135    0.05802533165836099    0.08724519110759253    0.1549582031088186    
  0.2774942183317915    0.39908185882726244    0.3517389867693492    0.19113933421059376    0.12727314660888953    
  0.1911128803265174    0.2536406530694145    0.382377100175193    0.3865793205700915    0.2597479972675358    
  0.14534463167367936    0.08278041378094354    0.05565666888656465    0.04858089083250282    0.05483228725526152    
  0.07269871187891219    0.101089407673982    0.13471576105617242    0.16281492288230867    0.17376911059016642    
  0.16281490509272573    0.13471572071725677    0.10108944771083425    0.07269868110863917    0.054832277112406375    
  0.048580881234509495    0.05565666784801912    0.0827804247340641    0.1453446251700125    0.2597480552496599    
  0.3865792915109023    0.38237698486108296    0.25364070805799516    0.1911128803265174    0.3515693281397118    
  0.38215515476633755    0.40690355033155806    0.3335047527103957    0.21197711493378926    0.12071103947970248    
  0.07132147487307712    0.049503556182163934    0.04375045651201758    0.04886308198747596    0.06336562888633461    
  0.08606476268519862    0.11261242702774965    0.1346499122237718    0.14322875799171944    0.134649895715239    
  0.11261239688506305    0.08606479613170712    0.0633656373034195    0.04886308909374619    0.04375046867455633    
  0.049503543359500336    0.07132146898763608    0.12071105160395584    0.21197714857139452    0.33350469752684064    
  0.40690350394257246    0.3821553206707859    0.3515693281397118    0.3991969857123218    0.3865254136576505    
  0.3335782469464783    0.24198307491641322    0.15214489558263194    0.09078908179891601    0.05705273077378681    
  0.041664733232500736    0.03754285175011668    0.041248979734866735    0.05164209913200747    0.06753044603281852    
  0.08568564682144654    0.10055092527886467    0.10631212222972965    0.10055093363698339    0.08568562778277528    
  0.0675304848908659    0.051642092713097366    0.041248963718295804    0.037542837145764535    0.04166472183955509    
  0.05705274737006414    0.090789089626579    0.1521448487342611    0.24198302193270438    0.33357821910128316    
  0.38652548037469525    0.3991969857123218    0.27907227536286067    0.2610464032618837    0.21304150517782855    
  0.15285093720048454    0.10036523232025096    0.06451968562121727    0.04394862063220671    0.034185653682650086    
  0.03153929040055538    0.03400028370853931    0.040711918470820806    0.050653521481070524    0.06171938600906669    
  0.07059452170106482    0.0739831773454142    0.0705945268457049    0.061719395781765884    0.05065353844488379    
  0.04071191430615156    0.03400028220564728    0.03153929357728622    0.03418564576398757    0.04394863302392087    
  0.06451968375012701    0.10036523683833125    0.15285085658718328    0.21304158517391933    0.2610463185764183    
  0.27907227536286067    0.1590710183822944    0.1490501342971937    0.12360856940876024    0.09273723709405493    
  0.06546772899980846    0.046007846047376746    0.03422303022660219    0.028352889673199235    0.02672247283339067    
  0.028271619289372076    0.032334680050137746    0.03811921598619689    0.04437584917143233    0.0492849247625755    
  0.05113506305044284    0.049284932053121656    0.04437583375306822    0.038119213698785535    0.03233466138581849    
  0.028271617128306333    0.02672248810223754    0.028352883058551725    0.034223036369749146    0.04600783608462465    
  0.06546772379637435    0.09273721885838689    0.12360858193773347    0.149050183854475    0.1590710183822944    
  0.09487399081314575    0.08983678446400738    0.07695260897523773    0.06097596095291618    0.04630365436662511    
  0.03529647833754779    0.028275907807163658    0.024597903807658947    0.023520538441340257    0.024469092669986623    
  0.026912741955968867    0.030274869154992105    0.03378718106318259    0.036493839188946206    0.037520105808737055    
  0.03649386313541704    0.03378717419749469    0.03027486524792745    0.026912738579711822    0.024469101823058732    
  0.023520530596289346    0.024597899820804184    0.028275918041714032    0.03529647701555908    0.046303652688733425    
  0.06097595250885443    0.07695260181494291    0.08983680333675673    0.09487399081314575    0.07152469737542398    
  0.06823440469128335    0.059667442599172775    0.04888902950566053    0.03878925908219259    0.030941505591790645    
  0.025727265590790714    0.022883726792292076    0.02196923405842889    0.022529504472507927    0.024141830042642858    
  0.02636181991080913    0.028623139156938048    0.030343410704151245    0.0310066254175302    0.030343420777714906    
  0.028623145778256802    0.026361816167737605    0.02414183245317083    0.022529496432977223    0.0219692294097745    
  0.02288372969884297    0.0257272721936427    0.030941510720892247    0.03878926878514656    0.04888902329526409    
  0.059667430906880106    0.06823439635859953    0.07152469737542398    0.07571833161611659    0.07214716450183638    
  0.06281660824360621    0.0511002668437509    0.04019428307310056    0.03175947804800769    0.02615899853999024    
  0.023050206921089087    0.02190491986433172    0.02223675382929456    0.023592275988169497    0.02552974585456525    
  0.027520973960222003    0.029029911148334697    0.029605353147083686    0.029029923473169527    0.02752098045606291    
  0.02552973528203219    0.02359226348408489    0.022236752778514727    0.021904918714541075    0.02305020441812733    
  0.026159007046140215    0.031759494603801064    0.04019428497381716    0.05110025019501206    0.06281659303039658    
  0.07214717439277923    0.07571833161611659    0.10699203473373656    0.10107318987945137    0.08584473934809911    
  0.06710725553168025    0.05011947843368128    0.03745291717545277    0.029337354557867127    0.024889116559210445    
  0.023135502508754572    0.023336083973021938    0.02487925657119186    0.027185309831620843    0.029627491729353188    
  0.03148630233448644    0.03217521897703682    0.031486301959958524    0.029627483343531283    0.02718532105235129    
  0.024879247359745886    0.023336092396302785    0.023135510347609804    0.024889109182061376    0.029337345684482888    
  0.03745291990280506    0.050119492042254646    0.06710720915312698    0.08584476115282756    0.10107322947629489    
  0.10699203473373656    0.17272993225584066    0.1616920604049483    0.13357587648710909    0.09954303684146516    
  0.06958868966036724    0.0481662837285557    0.035037856412539085    0.02811810764689121    0.02539277700272523    
  0.025512822763374274    0.027600582854764594    0.030863664002635658    0.0343991555432789    0.037123630370043535    
  0.03813175324997104    0.037123625422600726    0.03439914780846911    0.03086368253134296    0.02760058429661055    
  0.02551281954289522    0.02539278177549691    0.028118091351436173    0.03503786320006361    0.048166301533471276    
  0.06958867778964095    0.09954300910265894    0.1335758628436442    0.16169211974003028    0.17272993225584066    
  0.27143264033123476    0.25379517540786095    0.20714730151122113    0.14905141472513492    0.09831313937428976    
  0.06325961362276034    0.04268478912851993    0.03227637515162844    0.02826754503309905    0.028339148242957492    
  0.03123710436754115    0.035914352755253835    0.041067842536221894    0.04510562423677913    0.04661837064373023    
  0.045105599145036986    0.04106785473812072    0.035914367446247285    0.03123710088565315    0.02833914319744585    
  0.02826754410582809    0.0322763782788241    0.042684805118289905    0.06325962353676173    0.09831313897670463    
  0.14905135219822035    0.20714735910501367    0.25379516795149676    0.27143264033123476    0.36547822160551785    
  0.3468063354266716    0.2890505063667051    0.20679589101854104    0.13150471135881742    0.08009727638383568    
  0.05088147592370658    0.0365603154577138    0.03115635704082736    0.031199737205019874    0.034978980774412374    
  0.04120959827000072    0.04821506955795564    0.053784049055347775    0.05588511051736198    0.05378406590005073    
  0.0482150579918669    0.041209600383710805    0.03497897138766816    0.031199738621811392    0.03115635840162261    
  0.036560305314323    0.05088145875642554    0.08009728079826774    0.13150471769684613    0.20679585569507603    
  0.2890505330721586    0.34680642370243725    0.36547822160551785    0.4074733241325025    0.3970898239229909    
  0.34689412290198773    0.2533664398890997    0.15899688420914893    0.0937559054287763    0.05733535419184169    
  0.03985859788940456    0.033347679123874804    0.033364551758063514    0.037827309941174315    0.045295918136842334    
  0.053806390832595065    0.06064829162513593    0.06324863986683646    0.06064832151403938    0.05380640889776559    