#     DFTpy    
  CRYSTAL 
    
  PRIMVEC    
  1.5350049795289646    -2.658706614415391    0.0    
  1.5350049795289646    2.658706614415391    0.0    
  0.0    0.0    5.189979090275862    
  PRIMCOORD    
  2    1    
  Si    1.5350049795289646    0.8862355381384637    1.2974947725689654    
  Si    1.5350049795289649    -0.8862355381384637    3.8924843177068955    
  BEGIN_BLOCK_DATAGRID_3D    
  3d_datagrid_density    
  BEGIN_DATAGRID_3D#0    
  15    15    23    
  0.0    0.0    0.0    
  1.5350049795289646    -2.658706614415391    0.0    
  1.5350049795289646    2.658706614415391    0.0    
  0.0    0.0    5.189979090275862    
  0.06852623391571813    0.07115720649645675    0.07931592599782089    0.09287587123475768    0.11029464633525816    
  0.12843391069936982    0.1424064043124353    0.14761808904037702    0.1424064309629735    0.12843393154821142    
  0.11029464256153484    0.09287588820688399    0.07931590502542753    0.07115719598161636    0.06852623391571813    
  0.07115719005366211    0.07115636058697489    0.0765761959378459    0.08756814261490115    0.1033443803285111    
  0.12163040327446165    0.13830019931556095    0.14824857139016373    0.14824855947263882    0.13830080895842528    
  0.1216300708045569    0.10334483917646038    0.08756771837971973    0.07657641065265254    0.07115719005366211    
  0.07931589521108566    0.07657619830593969    0.0793167547726412    0.08756745671535413    0.10101821566167216    
  0.11826085525176479    0.1360809659913534    0.14964926700265244    0.1547027640003419    0.14964886551317494    
  0.13608116702205847    0.11826082206144774    0.10101820753596544    0.08756769329022444    0.07931589521108566    
  0.09287587959353387    0.08756817240692477    0.08756746210621662    0.09287603366314241    0.10334394470122553    
  0.1182612999097278    0.13540407265065188    0.1507904647600648    0.15998916007537306    0.15998931707611602    
  0.15078976073944392    0.13540441344813992    0.1182607934499765    0.10334483678791724    0.09287587959353387    
  0.11029465056474953    0.1033444301902792    0.10101821661564202    0.10334392562125229    0.11029596850587638    
  0.12162970094900472    0.1360810717511098    0.15078920972350404    0.16210586365541974    0.1664573126380769    
  0.16210670037332198    0.15078977647262    0.1360811878357308    0.12163006423580153    0.11029465056474953    
  0.12843392657267036    0.12163044260638999    0.11826087220812456    0.11826129151553118    0.12162971821359565    
  0.1284328545870244    0.1383011070449983    0.14964938086269247    0.15998993314908128    0.16645698592398409    
  0.16645732267404645    0.15998932063130206    0.14964889436523918    0.13830080201424355    0.12843392657267036    
  0.1424064294140391    0.13830024147611117    0.13608095799890113    0.13540403839090165    0.13608105419592656    
  0.13830109383705558    0.14240695991302665    0.14824796126421794    0.1547023169872229    0.15998992784426336    
  0.16210584506262016    0.15998919648125803    0.15470276654463877    0.14824851131076258    0.1424064294140391    
  0.14761807169862035    0.14824859153240555    0.14964930916416938    0.1507904206569175    0.1507892224946141    
  0.1496493647202733    0.14824797416603872    0.1476182685665151    0.14824800994027543    0.14964940516302483    
  0.15078922349758292    0.15079047430022363    0.1496493454052381    0.14824855121897335    0.14761807169862035    
  0.14240638664143512    0.14824857757155832    0.15470277025368306    0.15998918244005303    0.16210584626348581    
  0.15998991987483394    0.1547022869014524    0.14824794155000914    0.14240693896757764    0.13830108044419703    
  0.13608105858360456    0.13540405402987823    0.13608097680884718    0.13830017097955696    0.14240638664143512    
  0.1284338897982185    0.1383008425477959    0.14964888210407326    0.15998927131054616    0.1664573111186796    
  0.16645702915808427    0.15998990970731447    0.14964938497453406    0.1383011083949923    0.1284328666888578    
  0.12162970944966574    0.11826133243009056    0.11826086168822797    0.12163040634895621    0.1284338897982185    
  0.11029462794156324    0.12163012658786108    0.13608122330307837    0.15078975961674218    0.1621067011710657    
  0.1664573224629251    0.1621058876316579    0.15078921880719212    0.13608109071183405    0.12162972756457174    
  0.11029595352675797    0.10334395343730833    0.10101820344497515    0.10334439645879377    0.11029462794156324    
  0.09287586843285296    0.10334488622713396    0.11826082372797216    0.13540439262339676    0.15078978189870526    
  0.15998931318408302    0.15998919972933837    0.15079045128593485    0.13540403386192265    0.11826131515616924    
  0.10334391650702401    0.09287605060886708    0.08756746522147225    0.08756815357459796    0.09287586843285296    
  0.07931589984241326    0.08756773284216832    0.10101818812353139    0.11826080089614724    0.13608118587726264    
  0.14964885117851678    0.1547027684607463    0.14964932237317288    0.13608096751019508    0.11826086417921561    
  0.10101818854226556    0.08756747054014949    0.07931673840658983    0.07657619210032707    0.07931589984241326    
  0.07115719609022575    0.07657643842824717    0.08756768940621401    0.10334484685436525    0.12163005856667908    
  0.13830080094875633    0.14824852816707093    0.14824855823512353    0.13830018754063697    0.12163040435285055    
  0.10334438376370608    0.08756814344374003    0.07657618875821513    0.07115632511625898    0.07115719609022575    
  0.06852623391571813    0.07115720649645675    0.07931592599782089    0.09287587123475768    0.11029464633525816    
  0.12843391069936982    0.1424064043124353    0.14761808904037702    0.1424064309629735    0.12843393154821142    
  0.11029464256153484    0.09287588820688399    0.07931590502542753    0.07115719598161636    0.06852623391571813    
  0.07191419318767128    0.07491226522508451    0.08409738049482429    0.09930237243580195    0.11891480273478733    
  0.13933677291768257    0.1550762733242052    0.1609830821504509    0.15507678031931832    0.1393368461513397    
  0.11891329104042861    0.09930253244173651    0.08409756860319545    0.07491231675236674    0.07191419318767128    
  0.07491231808939154    0.07491188603886978    0.07966580394935761    0.08921688621590637    0.10284332623496034    
  0.1185563254684649    0.13272643956527203    0.1410716932377019    0.14107238424827323    0.13272554897101244    
  0.11855710634630201    0.10284390244827009    0.08921696805412328    0.07966559420114408    0.07491231808939154    
  0.08409755105173664    0.08239194581255015    0.08409778567544773    0.0892169940291754    0.09748845429562461    
  0.10804988028363943    0.1189619847542235    0.12719700029448042    0.13022076969299193    0.12719702561784724    
  0.11896228944432832    0.10804993325132527    0.09748771473968093    0.08921694675156776    0.08409755105173664    
  0.09930253070772443    0.09755961119272909    0.0975600311959705    0.09930177099707217    0.1028435007628908    
  0.10804932730405119    0.11429220088125591    0.12011018918722755    0.12364109324578335    0.12364062576865986    
  0.12011082292825728    0.11429117309395258    0.10804992147851206    0.10284389303412213    0.09930253070772443    
  0.11891329092256395    0.11963619179073673    0.12001210401953524    0.11963581957253477    0.11891482476764548    
  0.11855658000561012    0.11896192130218602    0.12011088870159482    0.12145359160435322    0.12206885073011156    
  0.12145358929508022    0.12011085599170797    0.11896229063170022    0.11855711202073806    0.11891329092256395    
  0.13933680400931306    0.1455452249674687    0.14949303554203355    0.14949268044216518    0.14554463042495355    
  0.13933574749761482    0.13272681356683325    0.12719620495857817    0.1236410849803031    0.1220678362873419    
  0.1220688162296665    0.12364062141969735    0.12719702774123806    0.13272552886210548    0.13933680400931306    
  0.1550767798822105    0.16941547208044086    0.18038628009657712    0.18457008565884275    0.1803871521075257    
  0.1694161175251192    0.15507692453590252    0.1410717551488162    0.13022135637901344    0.12364107607754746    
  0.12145357645387686    0.12364111479541172    0.13022076970576266    0.14107232272209191    0.1550767798822105    
  0.16098307686055158    0.18393771981488008    0.20425809297057984    0.21622823905022942    0.2162269199453695    
  0.20425781168817086    0.1839381731608203    0.1609827018471856    0.1410717978705851    0.12719620784645738    
  0.12011088892649303    0.12011017228022622    0.12719701658580213    0.1410716833854639    0.16098307686055158    
  0.15507626106120304    0.18393817097713572    0.21329625575881128    0.23509336312541268    0.24315448185280097    
  0.2350938914673933    0.21329472837628816    0.18393813176845697    0.1550768870671515    0.1327267710367943    
  0.11896187055699448    0.11429216828248179    0.1189619784074279    0.13272642249080993    0.15507626106120304    
  0.1393367737992301    0.16941656916382591    0.2042565898375908    0.23509227379941006    0.2531876076320497    
  0.253189307341688    0.23509387664800155    0.20425782447626778    0.1694161010670385    0.1393357496043008    
  0.11855661176445664    0.10804935480199082    0.10804988305775552    0.11855632372373999    0.1393367737992301    
  0.1189147879240104    0.14554414678978111    0.18038726748273942    0.2162283130796501    0.24315653172082705    
  0.2531875953713154    0.24315454488804591    0.21622692558888834    0.18038718497787504    0.14554463888632532    
  0.11891480628078384    0.10284351303431832    0.09748844103474144    0.10284335932770769    0.1189147879240104    
  0.09930235579457836    0.11963570028620629    0.14949307595473918    0.1845691677348826    0.21622834582133685    
  0.23509228352245873    0.23509339337719196    0.21622825619588562    0.1845701059615687    0.14949272574899652    
  0.11963581371884971    0.0993017744845712    0.08921699697928608    0.08921688140526932    0.09930235579457836    
  0.08409734848665401    0.09755974400403307    0.12001290161834277    0.14949304789727524    0.18038725486307974    
  0.20425657202854894    0.21329624365044972    0.20425809108646942    0.18038628246313734    0.14949301184307726    
  0.12001208391571165    0.09756004264176521    0.0840977898186551    0.07966580435787016    0.08409734848665401    
  0.0749122392382894    0.08239230543966618    0.09755971552004314    0.11963564225626826    0.1455440570757076    
  0.16941653491949582    0.18393812835145895    0.18393768814416822    0.1694154523865399    0.14554517423128285    
  0.11963611999116913    0.0975595805013085    0.08239193461646342    0.07491184768269867    0.0749122392382894    
  0.07191419318767128    0.07491226522508451    0.08409738049482429    0.09930237243580195    0.11891480273478733    
  0.13933677291768257    0.1550762733242052    0.1609830821504509    0.15507678031931832    0.1393368461513397    
  0.11891329104042861    0.09930253244173651    0.08409756860319545    0.07491231675236674    0.07191419318767128    
  0.08167830962480013    0.08568214826746286    0.09777500472361828    0.11780145668830723    0.1439603860327418    
  0.1712141434704046    0.1921438696085232    0.20003913006699198    0.19214591366301154    0.17121378227804568    
  0.1439587924430094    0.11780170244646881    0.09777588206339491    0.08568178642085321    0.08167830962480013    
  0.08568179448299616    0.08568325877720516    0.09085987372426767    0.10114088174212528    0.11584879665351891    
  0.1328036533299308    0.14801714556408832    0.15706519135676106    0.15706422642086684    0.14801674096439418    
  0.13280339187040394    0.11585047672918142    0.10113947110110398    0.09086055910727209    0.08568179448299616    
  0.097775864276922    0.09667299287253561    0.09777470691238195    0.10113984663685718    0.10674852477965154    
  0.11411191330523189    0.12185020590927763    0.12781228438352524    0.13005638443794618    0.12781205200236004    
  0.121851139334616    0.11411157743718407    0.10674828564601639    0.10113946393309274    0.097775864276922    
  0.11780171206902608    0.1190960173448845    0.11909655535618048    0.11780250041387688    0.1158489975272236    
  0.1141122092488368    0.11329536670249431    0.11336564805498438    0.11366893186514468    0.11367067348600404    
  0.11336519908924189    0.11329529472285044    0.11411156891437023    0.11585048046403432    0.11780171206902608    
  0.1439588310285521    0.15237255058222599    0.15553723697923855    0.1523721467969154    0.1439589573772522    
  0.1328037466315121    0.12184992550802341    0.11336574129448462    0.1081980668819896    0.1064626116480875    
  0.10819721065669531    0.1133652163437091    0.12185114725038022    0.13280339854360143    0.1439588310285521    
  0.17121376421066375    0.19185433603790913    0.2041146209835184    0.20411464857322306    0.19185299147260929    
  0.17121514877101643    0.14801688742779576    0.12781265463339145    0.11366857400984794    0.10646371718970998    
  0.1064626038964195    0.11367064695898982    0.12781207114510618    0.14801675529604133    0.17121376421066375    
  0.19214587516385462    0.22783467019542092    0.25412034011590673    0.26371322039533207    0.2541231123029388    
  0.22783421039940988    0.19214458821425845    0.15706378484770597    0.13005775384303686    0.11366853073859784    
  0.1081980351926835    0.11366890879943356    0.13005636593290937    0.15706419438422048    0.19214587516385462    
  0.20003914918984414    0.24938131611022762    0.290802725055805    0.31298611067168614    0.312984168178989    
  0.2908032264453782    0.24938292725881778    0.20004073811868522    0.15706385039928653    0.1278126646280033    
  0.11336575289824603    0.11336565992174362    0.12781229772829636    0.1570651699107412    0.20003914918984414    
  0.19214385013974203    0.2493827227116696    0.3040289703026203    0.33858348632145363    0.34926532863585597    
  0.3385828083797218    0.30402787769036205    0.24938293470360567    0.19214453874487933    0.14801684160351197    
  0.12184993824840201    0.11329537409577091    0.12185021350551618    0.14801712355554508    0.19214385013974203    
  0.1712141227804161    0.22783675990218297    0.2908013044037227    0.33858197995946643    0.3601250780643317    
  0.3601298079560853    0.3385827589956662    0.29080321083768307    0.22783421675520724    0.17121517794633098    
  0.13280375295619445    0.11411222568189583    0.11411191609343817    0.13280365784907558    0.1712141227804161    
  0.1439603870994377    0.1918527489894305    0.25412112657511365    0.3129843231029768    0.3492690664823054    
  0.3601250193060718    0.34926540419475843    0.312984165984642    0.2541231259325574    0.19185299493615127    
  0.14395892161718032    0.11584902243985058    0.10674850561047379    0.11584878408461666    0.1439603870994377    
  0.11780144148486969    0.15237231776542773    0.20411442797260776    0.2637147812805002    0.31298432745560584    
  0.33858200901905966    0.3385834806495756    0.3129861184279371    0.26371320555335925    0.20411469664625384    
  0.1523721532517725    0.1178025007295779    0.10113984612661799    0.10114089149191485    0.11780144148486969    
  0.09777498117912284    0.11909646414832856    0.15553814016876286    0.20411438066063858    0.25412112762725286    
  0.290801306727331    0.3040289923204539    0.29080268873532733    0.25412036292184753    0.20411461171366704    
  0.1555372353883385    0.11909656724110762    0.09777470535204544    0.09085985228341277    0.09777498117912284    
  0.08568212838696299    0.0966736515050045    0.11909643686829981    0.15237227411410337    0.19185267862704228    
  0.22783676454506685    0.24938266164871106    0.24938128359778716    0.22783461856042764    0.19185432395870922    
  0.15237246597554066    0.11909596641545883    0.09667298882702297    0.08568321446415997    0.08568212838696299    
  0.08167830962480013    0.08568214826746286    0.09777500472361828    0.11780145668830723    0.1439603860327418    
  0.1712141434704046    0.1921438696085232    0.20003913006699198    0.19214591366301154    0.17121378227804568    
  0.1439587924430094    0.11780170244646881    0.09777588206339491    0.08568178642085321    0.08167830962480013    
  0.09571628170653959    0.1012140928872355    0.11771394458871431    0.14510095685279653    0.1810822425708065    
  0.21822835499099347    0.24615486075641052    0.25655075566835767    0.24616259157554068    0.21822805389043018    
  0.1810768279295992    0.1451018770675645    0.1177152607394418    0.10121407235420628    0.09571628170653959    
  0.10121408399356634    0.10121411287769225    0.10762915038649527    0.12028576802708156    0.13843558847618298    
  0.1592815216150072    0.17793331222344466    0.18918734969921835    0.18918767279232807    0.1779277111405257    
  0.15928243746858647    0.13843908854020953    0.12028586118351549    0.10762676629452046    0.10121408399356634    
  0.11771523413530639    0.11693863750313488    0.1177131258897932    0.12028449236325015    0.12494259635690837    
  0.13121637475761727    0.13781956378273175    0.14310046012322744    0.1451910570335645    0.14310073012720997    
  0.13782243021730115    0.13121712995440493    0.12493754872608571    0.12028584856382883    0.11771523413530639    
  0.14510186433150954    0.14924020171699912    0.14924291864276046    0.14510307264135477    0.1384347281040096    
  0.13121668929779803    0.1251121661185758    0.12108797893742786    0.11922884840728024    0.1192291878371822    
  0.12108908293549948    0.12510857178662296    0.13121709369691306    0.13843909688366507    0.14510186433150954    
  0.18107684856318895    0.1974016731745511    0.20348154595584622    0.19740041941189077    0.18108143050670766    
  0.15928247110303534    0.1378191135473124    0.12108951134538928    0.11080333410359913    0.10734041545465621    
  0.11080198577751978    0.12108910054883532    0.13782241889947222    0.15928241577760555    0.18107684856318895    
  0.21822800421118843    0.2533310121410504    0.27324139620661475    0.2732391998703372    0.2533237349068802    
  0.218229505861758    0.17793329358826993    0.14309858683561893    0.11922934688637465    0.10733880849447264    
  0.10734038839222679    0.1192291812057744    0.1431007285965869    0.17792768402264253    0.21822800421118843    
  0.24616256022912444    0.30061777697516057    0.33541457512616046    0.3463053836403022    0.3354293114592142    
  0.3006167329248449    0.24615458091152687    0.18918894510842965    0.14519187028335231    0.11922931902253765    
  0.11080330437768918    0.11922881007695738    0.14519105705709567    0.18918764082119016    0.24616256022912444    
  0.25655076441137975    0.32601826586572796    0.36840729411499357    0.37956664169944904    0.37955966207758624    
  0.3684042699174776    0.32603238167109616    0.2565482726329884    0.18918900211476464    0.1430986038248447    
  0.121089550598954    0.12108798349027819    0.14310050828663984    0.18918733295990756    0.25655076441137975    
  0.24615480040728643    0.3260293112307128    0.3762866852085747    0.3780062522052022    0.36901487899655766    
  0.3780044865899889    0.3762837772136385    0.3260323638440457    0.24615450760036878    0.17793326685365543    
  0.13781911387944415    0.12511215926661268    0.13781955450998937    0.1779332996860677    0.24615480040728643    
  0.21822837787311042    0.3006191074495785    0.36840752975000246    0.37800010915477283    0.3540715835109757    
  0.35408155292458404    0.3780044371432691    0.368404285073435    0.300616748100649    0.2182295211957674    
  0.1592825011697529    0.13121671961895945    0.131216367878532    0.15928149287959714    0.21822837787311042    
  0.18108221566944324    0.2533250674103079    0.3354234143722912    0.37955256420333405    0.36903256728965045    
  0.3540715823857204    0.36901489806234505    0.37955973472578264    0.3354294007727612    0.25332377195121286    
  0.18108138137794422    0.13843476004734642    0.1249425764686971    0.1384356056650787    0.18108221566944324    
  0.1451009304175408    0.19740143892117296    0.2732404793800657    0.34631078259793624    0.37955263208018203    
  0.3780001525995117    0.378006239173998    0.37956666140756173    0.34630537409364226    0.2732392160380095    
  0.19740043295411433    0.14510310878256608    0.1202844918077942    0.12028579090185856    0.1451009304175408    
  0.1177139468334173    0.1492430012669502    0.20348089068186276    0.273240450345152    0.33542342291272537    
  0.36840751487364193    0.37628666435819447    0.36840733267226267    0.33541461039882664    0.2732414094278823    
  0.20348153627136387    0.14924293251794457    0.11771313019755276    0.10762912215911742    0.1177139468334173    
  0.10121406498887055    0.11693778222049254    0.14924299838625596    0.197401382325501    0.2533249708651063    
  0.3006190707810943    0.32602926319935016    0.3260181859726618    0.30061774619186604    0.2533309879810793    
  0.19740162780639287    0.14924015571172647    0.11693863563031086    0.10121407335787527    0.10121406498887055    
  0.09571628170653959    0.1012140928872355    0.11771394458871431    0.14510095685279653    0.1810822425708065    
  0.21822835499099347    0.24615486075641052    0.25655075566835767    0.24616259157554068    0.21822805389043018    
  0.1810768279295992    0.1451018770675645    0.1177152607394418    0.10121407235420628    0.09571628170653959    
  0.10989893310190961    0.11697801702623156    0.13825407510416857    0.17356832759200164    0.21952875984838377    
  0.265390182458801    0.2977739031827599    0.30917112141072295    0.29779671836480404    0.2653923415048555    
  0.21951184972989682    0.17357057104188572    0.1382580432541146    0.11697780786871302    0.10989893310190961    
  0.11697782406443262    0.1169772079749961    0.12500216410141796    0.1406706550275684    0.16298793911015397    
  0.18849862309641427    0.21109663347472266    0.22458839186653315    0.22459006886554203    0.21108117414110764    
  0.18849731082167429    0.16300200663697326    0.14066912131122317    0.12499666494118478    0.11697782406443262    
  0.13825800238366495    0.13754920609186622    0.1382530551618138    0.14066518051233798    0.14517621780296566    
  0.15133513788718106    0.15792349074735354    0.1633172121764964    0.16548687263253484    0.16331552850019368    
  0.15793510530554142    0.15133700028793606    0.1451605857346042    0.1406691080267826    0.13825800238366495    
  0.17357058958037247    0.18008867057413508    0.1800944787613207    0.17357589631619358    0.16298566824701835    
  0.15133773409061693    0.14122667799096505    0.1342769617418255    0.13088579074982495    0.1308873489013539    
  0.13427868739714927    0.14121567990511802    0.15133693521357006    0.1630020159043038    0.17357058958037247    
  0.21951184025769346    0.2425087701236215    0.250993862227298    0.2425033434328746    0.2195293615224614    
  0.18849785219829746    0.1579226140098336    0.13428100504817217    0.11984538272959883    0.11499862973787861    
  0.11984387392758677    0.13427873975712495    0.15793507777596827    0.18849728348227768    0.21951184025769346    
  0.2653922609191275    0.3096952645020245    0.3323938425280007    0.33239169122495466    0.30966991689363027    
  0.26539445298959474    0.21109749300142933    0.1633120877363649    0.13088635163014328    0.1149979262573323    
  0.11499861809793424    0.1308873664173124    0.16331557072884756    0.21108116483671405    0.2653922609191275    
  0.29779670651470097    0.3562198884450781    0.37893239043205384    0.38108814353287424    0.37896924257920706    
  0.35622111824965597    0.29777323413436546    0.22459367187895898    0.1654885008554682    0.1308863554477439    
  0.11984533728323968    0.1308857909537259    0.1654868606816043    0.2245900660998023    0.29779670651470097    
  0.30917114573572874    0.37365377919875675    0.3729881003522569    0.340586729443219    0.34056937642226215    
  0.37297895138004666    0.37369283089430855    0.30915975894133135    0.22459372346991524    0.16331213030560462    
  0.13428101012797136    0.1342769363766812    0.1633172644538398    0.22458838042698764    0.30917114573572874    
  0.2977738418615048    0.3736842850277843    0.3601886571728851    0.2794036216864441    0.23854405822747693    
  0.2794039784111116    0.3601779021059584    0.37369276889191544    0.297773145953974    0.2110974722199048    
  0.15792261710654829    0.1412266661747468    0.15792346300716034    0.21109664774654696    0.2977738418615048    
  0.26539018567093725    0.3562280984780601    0.3729870229033931    0.2793932194923324    0.19276545353874486    
  0.192779296410257    0.2794039598801638    0.3729789766091424    0.3562210869045193    0.2653944587211905    
  0.18849783175101772    0.15133776440303875    0.15133510877467465    0.1884986106005928    0.26539018567093725    
  0.2195287621564661    0.3096739772709298    0.3789557394068356    0.3405544958230945    0.23857660914340562    
  0.19276542843159636    0.23854409453713582    0.3405694565836845    0.3789693276646728    0.3096699508051527    
  0.21952931761455627    0.1629856796092289    0.1451761922587427    0.16298797884183827    0.2195287621564661    
  0.17356832547204545    0.242509951022966    0.3323948640640327    0.3811007884469256    0.34055453682823433    
  0.27939318826088805    0.2794036525948958    0.34058677092328976    0.3810881512514679    0.3323917792953789    
  0.24250335361150135    0.173575916611631    0.14066522681172725    0.14067065296077746    0.17356832547204545    
  0.1382540414429879    0.1800956293126134    0.25098737511632707    0.33239479098448044    0.3789557052425151    
  0.37298700033506976    0.36018859316497354    0.3729881206550108    0.3789323992983038    0.33239380928066936    
  0.2509938644833652    0.18009447349973487    0.13825306657155262    0.12500214216971184    0.1382540414429879    
  0.11697799680608209    0.13754712879067216    0.18009561467069005    0.2425098562109769    0.30967394100012446    
  0.35622808834738534    0.37368422836940085    0.37365367166981983    0.35621986139726325    0.30969521222713664    
  0.24250871053668716    0.1800886327126014    0.13754924159704368    0.11697715354589859    0.11697799680608209    
  0.10989893310190961    0.11697801702623156    0.13825407510416857    0.17356832759200164    0.21952875984838377    
  0.265390182458801    0.2977739031827599    0.30917112141072295    0.29779671836480404    0.2653923415048555    
  0.21951184972989682    0.17357057104188572    0.1382580432541146    0.11697780786871302    0.10989893310190961    
  0.11914077867183319    0.1271823515597352    0.15151109051314743    0.1920723218735541    0.24429265879154052    
  0.29439725160545427    0.3270147956128815    0.3375451861623085    0.32704304104320486    0.2944035519825365    
  0.24427537920035094    0.19206984324256868    0.15152151107116013    0.12718072938483238    0.11914077867183319    
  0.1271807539986792    0.12717752488171852    0.13630812133243558    0.1540298958993473    0.17921723524536273    
  0.20795764151964186    0.23302245931855892    0.24753755293413848    0.24754030425028467    0.2330043203572289    
  0.20795546652009309    0.1792318132271142    0.15402947219987387    0.1362970670088261    0.1271807539986792    
  0.15152148158775375    0.15073616772510487    0.15151196445991946    0.15402547395403163    0.1585442396924344    
  0.1648956103756681    0.17190882046642963    0.1775847901230197    0.17980277894887775    0.17757973512678057    
  0.17192455027073889    0.16489567552126663    0.1585293906564665    0.15402942717382806    0.15152148158775375    
  0.19206985251627193    0.19981074106225596    0.19982280995933877    0.19207763248740314    0.17921526329045603    
  0.16489457457392095    0.15259556178881278    0.14412161716467436    0.1398513926335082    0.13985673844883958    
  0.14412427093109823    0.15258123202093285    0.1648956412072481    0.17923183722729502    0.19206985251627193    
  0.24427535893664631    0.2706284504774822    0.28015560224773417    0.2706168767387328    0.2442915294906517    
  0.20796147036140675    0.1719066652595705    0.1441280115286677    0.1271419270369443    0.12140043832287684    
  0.12713808130471413    0.144124296756128    0.17192454395375348    0.2079554895651283    0.24427535893664631    
  0.2944035018316222    0.3406225232547419    0.3612422765488885    0.36124125865003937    0.3406019446360014    
  0.2943982167555405    0.233025402275541    0.1775779779452876    0.1398507851753315    0.12140236580788545    
  0.1214004244199512    0.1398567799108703    0.1775797395859971    0.23300429096430944    0.2944035018316222    
  0.3270430586951278    0.3774485712531886    0.3794638498772483    0.37058357919081053    0.3794922058116626    
  0.377458357879206    0.32701444693160936    0.2475412778797609    0.17980914234378803    0.13985080541080974    
  0.12714190263068448    0.13985138388419588    0.17980277649875662    0.24754024720993908    0.3270430586951278    
  0.33754518580053083    0.3818440081936602    0.33332608456372054    0.2674555800447378    0.26744939216238717    
  0.3333157773503838    0.38188961876672917    0.3375327558766235    0.24754131417108322    0.17757800531499765    
  0.14412800673213377    0.14412158835095504    0.17758484789936843    0.24753750958387621    0.33754518580053083    
  0.3270147636601889    0.3818769210031152    0.30377174054074413    0.17795786709633615    0.13026229910501733    
  0.17796254165280412    0.3037563962974715    0.3818895988142872    0.32701438883350853    0.23302536835326285    
  0.17190665377185027    0.1525955501763245    0.1719088339984644    0.23302246973077703    0.3270147636601889    