#     DFTpy    
  CRYSTAL 
    
  PRIMVEC    
  4.273862068965516    0.0    0.0    
  0.0    4.273862068965516    0.0    
  0.0    0.0    4.273862068965516    
  PRIMCOORD    
  4    1    
  Si    0.0    0.0    0.0    
  Si    0.0    2.136931034482758    2.136931034482758    
  Si    2.136931034482758    0.0    2.136931034482758    
  Si    2.136931034482758    2.136931034482758    0.0    
  BEGIN_BLOCK_DATAGRID_3D    
  3d_datagrid_density    
  BEGIN_DATAGRID_3D#0    
  19    19    19    
  0.0    0.0    0.0    
  4.273862068965516    0.0    0.0    
  0.0    4.273862068965516    0.0    
  0.0    0.0    4.273862068965516    
  0.060376019579935436    0.10863894291553362    0.2690059374925873    0.3816184051518616    0.3126186989097846    
  0.2040428577117793    0.1344428008403528    0.09917897914553704    0.08373630766491692    0.07960250320703542    
  0.08373631171524518    0.09917898269697417    0.1344428248600683    0.20404286251270867    0.31261867080395983    
  0.38161839463144126    0.26900591850690947    0.10863894231384538    0.060376019579935436    0.10863895028863683    
  0.1636625227416885    0.31091473276224946    0.3814575423689342    0.3002474787710535    0.19800269856016486    
  0.13399210633919775    0.10161693157876588    0.0874911560931722    0.0837363313838298    0.08749113783766005    
  0.10161692987328622    0.1339921028065828    0.19800269494181427    0.3002474791485213    0.3814575497545227    
  0.3109147247561017    0.16366252280995267    0.10863895028863683    0.2690059417473975    0.3109147145981841    
  0.3785873915328981    0.35850304868969135    0.26637569024160535    0.18414447548195753    0.13541338724507837    
  0.11146426926541696    0.10161694211988254    0.09917898009292009    0.10161693799107067    0.11146426085741552    
  0.1354133864979642    0.18414450150467518    0.2663756695349704    0.3585030482556014    0.37858741496827286    
  0.31091471793109987    0.2690059417473975    0.38161835239051384    0.38145759660864564    0.358503075645424    
  0.2956416876363562    0.2235693425208285    0.17226258832780877    0.14538120425993364    0.13541337348646168    
  0.13399207646767805    0.13444281769615507    0.133992111045572    0.13541336984000912    0.14538121877727933    
  0.17226259982312422    0.22356934502233808    0.29564168778137523    0.358503017731722    0.38145759746366953    
  0.38161835239051384    0.3126187048205195    0.3002474566630277    0.26637569471086003    0.22356935330313973    
  0.18890118394798042    0.17186014616722928    0.17226261237241697    0.18414451221060213    0.1980027092588747    
  0.20404288390734007    0.19800271032770086    0.18414450404534902    0.17226260055427595    0.17186015518474354    
  0.18890117178133786    0.22356934010594226    0.2663756932385768    0.30024748885417546    0.3126187048205195    
  0.20404286884806996    0.19800270556004154    0.18414450299828175    0.1722625988121009    0.17186015254880796    
  0.18890114174058528    0.2235693643657916    0.26637568329046585    0.3002474812839067    0.3126187230475591    
  0.3002474955071527    0.266375687087344    0.22356934620584468    0.18890117141024634    0.17186013969421554    
  0.17226259533081356    0.18414450412988112    0.19800270518885216    0.20404286884806996    0.1344428189907805    
  0.13399211917348813    0.1354133757383567    0.14538120653867515    0.17226261263937642    0.22356934854421867    
  0.29564168876689234    0.35850305312698655    0.381457537214498    0.3816183639333448    0.3814575749673277    
  0.35850303459332844    0.29564169714577243    0.2235693428273156    0.17226260702311805    0.14538123164914826    
  0.1354133740104704    0.1339921129999264    0.1344428189907805    0.0991789857971489    0.10161693026023272    
  0.11146428896501703    0.13541337403005915    0.1841445235283691    0.2663757004782505    0.3585030703069862    
  0.37858739930423657    0.31091468313837595    0.2690059577612144    0.3109147185562288    0.3785874387927939    
  0.35850306456306175    0.2663757156423788    0.18414449615555192    0.13541337919753327    0.11146427311867375    
  0.10161695131117186    0.0991789857971489    0.08373632007462584    0.08749112766297389    0.1016169255190455    
  0.13399209230408404    0.198002713680039    0.30024745043419    0.38145759610665975    0.31091473051749263    
  0.16366252332407827    0.10863895305563111    0.16366253566539776    0.31091470478632344    0.3814575665709977    
  0.30024746996438856    0.1980027327021525    0.1339920791390078    0.10161693531886888    0.08749114033469266    
  0.08373632007462584    0.07960251786939243    0.08373633407559107    0.09917897621408346    0.13444282751828118    
  0.20404289810198398    0.3126186953532539    0.3816183970535843    0.2690059160523585    0.10863893120549008    
  0.06037601291139981    0.10863893774122486    0.26900593837846887    0.38161839806801184    0.312618692774047    
  0.2040428575282809    0.13444283998410167    0.09917897146542559    0.08373633337971084    0.07960251786939243    
  0.08373632838489801    0.08749114379450834    0.1016169238873468    0.13399209040404791    0.1980027169887598    
  0.3002474852624976    0.38145756509935835    0.31091470244358954    0.16366252450834684    0.10863894233699457    
  0.16366253974389014    0.3109147259240976    0.38145758872013646    0.30024747824898723    0.19800273026014328    
  0.13399209977308094    0.10161691963549796    0.08749114371175333    0.08373632838489801    0.09917896890236699    
  0.10161693013717014    0.11146426431645405    0.1354133865332565    0.1841445105350013    0.2663756680997896    
  0.35850307177978624    0.37858743712935944    0.3109147109127156    0.2690059322130288    0.31091475598424956    
  0.37858740839994987    0.3585030520256217    0.2663756926709269    0.18414450882161487    0.13541335273481495    
  0.11146427524988026    0.10161693894477818    0.09917896890236699    0.13444281549365508    0.1339921065137676    
  0.1354133627746994    0.14538122625479788    0.17226260425243867    0.22356934502313117    0.29564169087255837    
  0.35850303756115903    0.3814575337069012    0.38161834319605276    0.3814575847801166    0.35850305051942627    
  0.29564168996799417    0.22356935169350084    0.17226260094095117    0.1453812126263315    0.13541337187863217    
  0.13399210948364806    0.13444281549365508    0.2040428529267881    0.19800270812252857    0.18414451476191865    
  0.17226259181624648    0.17186016959203895    0.1889011609556448    0.22356935812532996    0.2663757013916689    
  0.30024747337662316    0.3126187090372949    0.3002474816694711    0.26637570838952696    0.2235693382748797    
  0.18890117437859494    0.17186016189815342    0.17226257838073808    0.1841445036580553    0.19800271259445731    
  0.2040428529267881    0.3126186959053914    0.30024744697308503    0.26637569483821627    0.22356935050620086    
  0.1889011702654907    0.17186010960939838    0.17226262040806162    0.18414450040028732    0.19800271258797006    
  0.2040428829401238    0.19800271487957663    0.18414448481399337    0.17226260721177283    0.1718601548359255    
  0.18890116824630804    0.22356935110675957    0.26637570392527715    0.30024749634371084    0.3126186959053914    
  0.3816183937133496    0.38145760721523514    0.35850307545129334    0.29564170775541215    0.22356937914683245    
  0.17226259269542565    0.1453812213431656    0.13541338139349213    0.13399207109449898    0.13444280480103002    
  0.13399209824706043    0.13541337359051453    0.14538121043756794    0.17226258980263756    0.2235693506385997    
  0.2956417234852051    0.35850303647021425    0.38145758157046655    0.3816183937133496    0.2690059330197831    
  0.3109147474265094    0.37858742000461126    0.3585030517909793    0.2663757127982727    0.18414449802694527    
  0.13541338488992355    0.11146427966206952    0.10161692779086258    0.09917899068726047    0.10161692747179177    
  0.11146427618940383    0.13541337227610659    0.18414452509169976    0.26637569212724355    0.3585030255565169    
  0.37858741604400165    0.31091473027472594    0.2690059330197831    0.1086389470692832    0.16366251341991656    
  0.31091474495892535    0.3814575630938686    0.3002474997386933    0.19800268369722449    0.13399210937658795    
  0.1016169346096566    0.08749114567848101    0.08373633106411489    0.08749114821335371    0.10161692623023302    
  0.13399210011573498    0.19800270061513356    0.30024748356647063    0.3814575735672933    0.3109147342913293    
  0.1636625255863385    0.1086389470692832    0.060376019579935436    0.10863894291553362    0.2690059374925873    
  0.3816184051518616    0.3126186989097846    0.2040428577117793    0.1344428008403528    0.09917897914553704    
  0.08373630766491692    0.07960250320703542    0.08373631171524518    0.09917898269697417    0.1344428248600683    
  0.20404286251270867    0.31261867080395983    0.38161839463144126    0.26900591850690947    0.10863894231384538    
  0.060376019579935436    0.10863894741780872    0.16366254575135625    0.31091472939143955    0.3814575613806578    
  0.30024750368658687    0.19800271229231847    0.13399209511635118    0.10161691978260813    0.0874911366354903    
  0.08373631178165636    0.08749114111090545    0.10161692655957012    0.13399210787756935    0.19800270000317668    
  0.3002474947735127    0.3814575980989811    0.3109147350855991    0.16366253608963435    0.10863894741780872    
  0.1636625321021858    0.21888119005597348    0.3428185635925548    0.3763639064046436    0.2878741974666082    
  0.19216634684841102    0.13330323525156468    0.10363524170810406    0.09083867238781657    0.08749116195191098    
  0.09083867718784695    0.10363523272071481    0.13330325375456448    0.1921663592790818    0.2878741943870393    
  0.37636387049652054    0.342818571795764    0.21888118451883268    0.1636625321021858    0.3109147365965437    
  0.34281855584914683    0.3836717027796383    0.3453956961700461    0.25452485488849874    0.17846847670974852    
  0.13384884548083867    0.11219289937652349    0.10363521936416256    0.10161694096701239    0.10363522912705381    
  0.11219288030332887    0.13384883166597608    0.1784684844920574    0.254524809815955    0.3453957170114789    
  0.38367173735326326    0.34281855514375653    0.3109147365965437    0.3814575649916191    0.37636393834999254    
  0.3453956741269487    0.2812234740494418    0.21333630969131123    0.1663685418600923    0.14221132611414217    
  0.13384883846845988    0.13330321836356612    0.1339921024506502    0.1333032429358497    0.1338488403968666    
  0.1422113330043543    0.16636854414083332    0.21333630849874174    0.2812234687220475    0.3453957086531764    
  0.37636388182509317    0.3814575649916191    0.3002474940715201    0.28787417167023455    0.25452484931849395    
  0.2133363209654378    0.18075473403338507    0.16524924797306703    0.1663685487267548    0.17846849896603126    
  0.19216634703132318    0.1980027341740963    0.19216636162064016    0.1784685023554352    0.1663685344672063    
  0.16524924389822382    0.1807547359182113    0.21333631520450255    0.2545248346167872    0.28787419243176016    
  0.3002474940715201    0.198002721212856    0.1921663328164966    0.1784684886250425    0.16636853088936343    
  0.16524924259183144    0.1807547024609545    0.2133363169407172    0.2545248229872147    0.28787418987736185    
  0.30024750790940924    0.2878742070419782    0.2545248269214263    0.21333633564960555    0.1807547322534184    
  0.1652492404539661    0.16636854940201817    0.17846850394896416    0.1921663533643371    0.198002721212856    
  0.13399212769292018    0.13330324653154635    0.1338488513942104    0.14221132160277217    0.16636854821960373    
  0.21333631387696708    0.2812234587152332    0.34539571403050284    0.37636386050157344    0.38145755909332146    
  0.37636392591502477    0.345395712051939    0.2812234880915828    0.21333632437326436    0.1663685311409245    
  0.14221134468550953    0.13384881786742514    0.133303252553801    0.13399212769292018    0.10161693240504165    
  0.10363522732128103    0.11219288811911296    0.13384883438830586    0.1784684980127064    0.25452481481745415    
  0.34539570327717756    0.3836717036694085    0.3428185686641233    0.3109147527223711    0.34281856386427373    
  0.3836717631353162    0.34539571267715435    0.2545248456453782    0.1784685028392246    0.13384883820336846    
  0.1121928847915126    0.10363522403487407    0.10161693240504165    0.08749114413928565    0.09083866197450716    
  0.1036352266172173    0.13330322956725948    0.19216636319956468    0.2878741526438545    0.3763639440610046    
  0.34281858404453414    0.21888118579983157    0.163662540321302    0.21888119017207616    0.3428185561878532    
  0.37636390497699596    0.2878741706945161    0.19216638493142096    0.13330322640705033    0.10363522137746373    
  0.09083868789214768    0.08749114413928565    0.08373632204486836    0.0874911545496908    0.10161692894689855    
  0.13399209885893554    0.19800272348919867    0.30024747787075606    0.38145755607895526    0.3109147190108701    
  0.16366250426449902    0.10863893173272282    0.16366252324472477    0.31091472147026333    0.3814575792644627    
  0.3002474776553954    0.19800272331968444    0.13399210742584314    0.1016169229836256    0.087491153663899    
  0.08373632204486836    0.08749115035805743    0.09083866658401064    0.10363523121601802    0.133303232425495    
  0.19216635493209744    0.287874180744129    0.37636389569399537    0.3428185728910546    0.21888119316433205    
  0.16366254732107655    0.21888118957329641    0.342818585547097    0.3763639011865798    0.28787419874866493    
  0.1921663721553434    0.13330323828365329    0.10363520988732657    0.0908386824042899    0.08749115035805743    
  0.10161692688127605    0.10363523312025365    0.11219287022527782    0.13384884605627162    0.17846850575232046    
  0.2545248118511474    0.3453957003990724    0.3836717794859893    0.34281857412854855    0.3109147569691068    
  0.3428185901290596    0.3836717298310941    0.34539570369828726    0.25452484172315265    0.17846849290655634    
  0.13384884012770396    0.11219289769035341    0.10363522590872119    0.10161692688127605    0.13399210551627797    
  0.1333032507638101    0.1338488439785721    0.14221133485796772    0.16636854029216402    0.21333632128352797    
  0.281223459927765    0.3453956966207326    0.37636386890808526    0.3814575501270193    0.3763638837925356    
  0.34539571530959556    0.2812234634588697    0.21333631225990313    0.16636853054106973    0.14221132105571438    
  0.13384883995720157    0.13330326538684034    0.13399210551627797    0.1980027115583982    0.1921663739690802    
  0.17846850191776123    0.1663685470606688    0.16524926061531364    0.18075472923985317    0.2133363299344238    
  0.2545248547178727    0.28787417871419096    0.30024747948751873    0.28787420692022797    0.25452483595039177    
  0.21333631685814775    0.1807547334045513    0.16524925502643803    0.1663685240464451    0.17846847314354236    
  0.19216637224860977    0.1980027115583982    0.30024748294828074    0.2878741559603687    0.2545248256660573    
  0.21333631184701785    0.18075473475728637    0.1652492074900609    0.1663685522109565    0.1784684931986615    
  0.19216635646942146    0.19800270424895414    0.19216637142891965    0.17846846727106255    0.16636853472301927    
  0.16524923947962472    0.18075472738278547    0.21333632087118756    0.2545248531599372    0.28787418436698536    
  0.30024748294828074    0.3814575314375354    0.37636393289416775    0.34539570817708337    0.2812234895973736    
  0.21333631921737362    0.16636854561095776    0.1422113108302322    0.13384883847101994    0.13330323084554704    
  0.13399208594057127    0.13330325910132504    0.1338488459666854    0.14221132705755243    0.16636852989455533    
  0.21333630357038025    0.28122348397619223    0.3453957015808773    0.3763639278984565    0.3814575314375354    
  0.3109147205905912    0.3428185976113424    0.38367173301969965    0.3453956879752303    0.2545248541926312    
  0.17846848717263922    0.13384884875749659    0.11219288537647633    0.10363523063113918    0.10161694113385138    
  0.10363522535180109    0.11219289902696626    0.13384884127457344    0.17846850190997984    0.25452482571436785    
  0.34539569635655004    0.3836717422804713    0.34281862307116884    0.3109147205905912    0.1636625352630148    
  0.2188811933765114    0.3428185693522934    0.37636388652785874    0.2878741972737282    0.19216635361414464    
  0.13330325108826355    0.10363522528673833    0.09083868238601944    0.08749115256263773    0.09083867599959192    
  0.10363522123915939    0.13330325860680134    0.19216634767374458    0.287874213246065    0.3763639070018472    
  0.34281858313689234    0.21888119089300015    0.1636625352630148    0.10863894741780872    0.16366254575135625    
  0.31091472939143955    0.3814575613806578    0.30024750368658687    0.19800271229231847    0.13399209511635118    
  0.10161691978260813    0.0874911366354903    0.08373631178165636    0.08749114111090545    0.10161692655957012    
  0.13399210787756935    0.19800270000317668    0.3002474947735127    0.3814575980989811    0.3109147350855991    
  0.16366253608963435    0.10863894741780872    0.26900592445183674    0.31091474488164483    0.37858741993394135    
  0.35850305872602806    0.26637567244694094    0.18414450351523648    0.13541337645667914    0.11146426218562971    
  0.10161691797527089    0.09917897973356934    0.10161692553875276    0.11146427729270256    0.1354133812001125    
  0.18414451295473697    0.2663756711773226    0.35850307784535873    0.37858739420027904    0.31091476248167643    
  0.26900592445183674    0.31091472614793714    0.34281856207000977    0.3836717237505399    0.3453956905165046    
  0.25452486598851365    0.17846848717812555    0.13384885412217398    0.1121928925807063    0.10363522097377459    
  0.10161693804549804    0.10363522630718304    0.11219288726266072    0.13384883196012026    0.178468484269944    
  0.2545248575966952    0.34539567650702807    0.3836717391577241    0.34281857124010934    0.31091472614793714    
  0.3785873979614472    0.3836717088644259    0.3686165728791632    0.30416748107382485    0.22395337084386124    
  0.16480236462309916    0.13157799485007388    0.11678596438959642    0.1121928944970539    0.1114642833319926    
  0.11219290238981909    0.11678595694010961    0.13157798852864033    0.16480238165982417    0.2239533666710844    
  0.30416749539859106    0.3686165921045643    0.3836717403394106    0.3785873979614472    0.35850306385589714    
  0.3453957374817914    0.3041674886423876    0.24375278889374644    0.18814835264756335    0.15213726812242145    
  0.13522194131909568    0.13157799853401606    0.13384881069554927    0.1354133868039985    0.1338488438487653    
  0.13157800114451718    0.1352219582497198    0.15213728237935373    0.1881483408647738    0.2437528002386128    
  0.304167485340537    0.34539573138185514    0.35850306385589714    0.2663756850057455    0.25452482546291066    
  0.2239533643179903    0.18814835545050804    0.16111954146444496    0.14930739412993813    0.15213728702371307    
  0.16480238942206743    0.17846849774666224    0.1841445054812078    0.17846848616373448    0.16480238985849424    
  0.1521372922974813    0.1493074077848575    0.1611195439565074    0.1881483367262616    0.2239533679097199    
  0.2545248314982213    0.2663756850057455    0.18414452076344606    0.17846847452542192    0.16480238668375544    
  0.1521372731748593    0.1493073932459807    0.16111952712193195    0.18814836600401016    0.22395336959833562    
  0.25452484422412375    0.26637570716193704    0.25452483912721463    0.22395334795583194    0.18814834871869693    
  0.161119555413364    0.1493073992852112    0.15213728328948942    0.16480239036488298    0.17846847826745998    
  0.18414452076344606    0.13541337383551535    0.13384884858706786    0.13157799170394754    0.13522195782880256    
  0.152137286920565    0.18814835000393196    0.24375277592684147    0.30416750497456196    0.3453956694258531    
  0.35850304597784466    0.3453957074028129    0.30416747926357907    0.24375279421218823    0.18814833605159864    
  0.15213727559796356    0.13522197944571587    0.1315779860292319    0.13384884793243249    0.13541337383551535    
  0.11146426110169586    0.11219288233907146    0.11678595999005482    0.1315779906464924    0.16480239794484355    
  0.22395335351906867    0.3041674727650642    0.3686165982747309    0.3836717078890648    0.37858742080920793    
  0.38367173285675915    0.36861663485458424    0.3041674864770637    0.223953366392878    0.1648023769411698    
  0.1315779908117    0.11678597001623822    0.11219289127288912    0.11146426110169586    0.10161693531787885    
  0.103635216296754    0.11219288218616233    0.13384883506478534    0.1784684966637469    0.25452478990888266    
  0.34539572834767196    0.38367173773825713    0.3428185920573565    0.31091473789109114    0.3428186017039339    
  0.3836717008023248    0.3453957083797223    0.2545248228543681    0.1784685219783644    0.13384881548865402    
  0.1121928809479694    0.10363521846006968    0.10161693531787885    0.0991789877467101    0.10161694123358861    
  0.11146426457203948    0.1354133763330247    0.18414452172553442    0.26637567447443816    0.3585030309384248    
  0.37858740458789925    0.31091469429129504    0.2690059084912561    0.31091472909375545    0.37858743091043046    
  0.3585030536043632    0.26637567519793803    0.18414450626500883    0.135413388214566    0.1114642771550146    
  0.10161694310606574    0.0991789877467101    0.10161692976636598    0.10363522749626139    0.1121928795722734    
  0.13384884394393762    0.1784684939584336    0.25452482464046416    0.3453957277666995    0.38367173387739706    
  0.3428185824394679    0.31091472655522523    0.34281860309958917    0.38367173603433385    0.34539571718863366    
  0.25452481633520474    0.17846850240527423    0.13384881906198215    0.11219288151232594    0.10363521956689332    
  0.10161692976636598    0.11146427170356123    0.11219288751261017    0.11678596532855066    0.13157799783894245    
  0.16480239482894737    0.22395333020902436    0.304167481178845    0.36861659274135694    0.3836717178269291    
  0.37858741907148946    0.3836717400918435    0.36861658774987244    0.30416746914795895    0.2239533685374911    
  0.1648023866605416    0.1315779897549007    0.1167859690882311    0.11219288830253221    0.11146427170356123    
  0.1354133642245783    0.13384885147898684    0.1315780093358021    0.13522195335123194    0.15213727953022305    
  0.18814834435808186    0.24375279631881197    0.304167477850025    0.3453956677027398    0.3585030311535608    
  0.34539571227613003    0.30416748427161633    0.24375278561674205    0.1881483467097207    0.1521372754681823    
  0.13522195900799971    0.13157800501346237    0.1338488591139201    0.1354133642245783    0.18414448896851263    
  0.17846850526391309    0.1648023875548676    0.15213726870864824    0.14930742183328363    0.16111953773675147    
  0.18814835418609238    0.2239533654760206    0.25452481365382573    0.2663757113558037    0.25452484996703767    
  0.22395336369680935    0.1881483413188573    0.16111955138386358    0.1493074177205618    0.1521372642246999    
  0.16480236485105326    0.17846849953124172    0.18414448896851263    0.26637570941281824    0.2545248268087575    
  0.22395335979774392    0.1881483455208676    0.16111954405144727    0.14930737688275492    0.1521372909078901    
  0.16480237226782896    0.17846851527655572    0.18414452997993197    0.1784685053958827    0.1648023519715903    
  0.15213727218991138    0.14930739872541887    0.16111954474521406    0.18814834121600707    0.22395336365132096    
  0.25452483941937504    0.26637570941281824    0.35850302595165845    0.34539575032352243    0.30416747409212286    
  0.24375278386613744    0.18814836195599097    0.15213728550595915    0.1352219529213937    0.1315779827595383    
  0.13384881414864333    0.1354133653324207    0.13384885149742914    0.13157799478785387    0.1352219570187616    
  0.15213727068006866    0.18814833712545617    0.24375280405328686    0.3041674886879676    0.34539570512115286    
  0.35850302595165845    0.37858741200460433    0.38367174480260474    0.3686165736506446    0.3041674939122646    
  0.22395337231068999    0.1648023821869666    0.13157800257718288    0.11678595939761287    0.1121928917137629    
  0.11146428868892509    0.11219289563270196    0.11678596163709379    0.1315779931732402    0.16480239185671608    
  0.22395335653988246    0.30416748224868745    0.368616570057201    0.3836717231473913    0.37858741200460433    
  0.3109147211076071    0.34281857436783925    0.3836717226962771    0.3453956782548822    0.25452485993486784    
  0.17846847362932397    0.1338488506656618    0.11219287976839885    0.10363524419738214    0.10161694133715338    
  0.10363523164863876    0.11219287152506482    0.13384884897329402    0.17846848479983374    0.2545248720215694    
  0.34539571157491655    0.3836717451456277    0.34281857536601396    0.3109147211076071    0.26900592445183674    
  0.31091474488164483    0.37858741993394135    0.35850305872602806    0.26637567244694094    0.18414450351523648    
  0.13541337645667914    0.11146426218562971    0.10161691797527089    0.09917897973356934    0.10161692553875276    
  0.11146427729270256    0.1354133812001125    0.18414451295473697    0.2663756711773226    0.35850307784535873    
  0.37858739420027904    0.31091476248167643    0.26900592445183674    0.3816183875860522    0.381457568722137    
  0.3585030678919849    0.29564168309910493    0.22356938059362985    0.17226259369592578    0.14538120621053552    
  0.13541337684890892    0.13399208415078276    0.13444281198127578    0.13399209098003073    0.13541337783278265    
  0.14538121910035995    0.17226260741273386    0.22356934526923902    0.29564170555360997    0.35850304454432336    
  0.3814575596000842    0.3816183875860522    0.38145757282935944    0.3763639297059507    0.3453956931637871    
  0.2812234591949732    0.21333631793276797    0.16636852247060252    0.14221132370287956    0.13384885265259167    
  0.13330324702472815    0.13399211620367946    0.13330324348821476    0.13384885354525017    0.14221133436373778    
  0.16636853155339243    0.21333630910173854    0.2812234568510717    0.34539571032621325    0.37636391923834694    
  0.38145757282935944    0.3585030397022586    0.34539569125506014    0.3041674387065212    0.24375277751057314    
  0.188148357164999    0.1521372607807552    0.1352219655545841    0.13157799139214535    0.1338488439356303    
  0.13541337686232724    0.13384885347479972    0.13157798924275033    0.1352219565645671    0.1521372843654471    
  0.18814832903655582    0.24375277624633485    0.3041674680912546    0.345395702724964    0.3585030397022586    
  0.2956416777246551    0.28122349024225013    0.2437527972819258    0.19797463216419503    0.16011431236287646    
  0.13823734886983713    0.1314923419213235    0.13522196179770463    0.14221130714953015    0.14538119907690575    
  0.142211336972457    0.1352219428597572    0.1314923493259457    0.13823736839152787    0.16011430546764738    
  0.19797463963572554    0.24375278279102472    0.2812234721941947    0.2956416777246551    0.22356936948535894    
  0.21333629255617167    0.18814836410191946    0.16011429268339344    0.13995549547248926    0.13276517544700372    
  0.13823736500830278    0.1521372853112558    0.16636853845031405    0.17226262705001955    0.16636854675848195    
  0.15213729635910317    0.13823735243804347    0.13276517783778144    0.1399554750053761    0.16011429576210945    
  0.188148357270111    0.21333633114883507    0.22356936948535894    0.17226260394649143    0.16636854121828962    
  0.15213727639222988    0.13823736938313286    0.13276517021866532    0.13995546148615196    0.1601143157624549    
  0.18814834143164835    0.2133363192951167    0.223569375349276    0.21333634382163288    0.18814833953433652    
  0.1601142977103524    0.139955476803915    0.132765176150938    0.1382373630050054    0.15213727750689476    
  0.16636853602869678    0.17226260394649143    0.14538121146355604    0.14221134149117862    0.1352219504730112    
  0.13149234273183988    0.1382373723226769    0.16011430707191662    0.19797463782311928    0.24375280306690036    
  0.2812234302612214    0.29564167171916933    0.28122346265768533    0.2437527870365196    0.19797463903240142    
  0.16011431331297676    0.13823735035201004    0.13149236113304205    0.13522193332883012    0.14221133408145178    
  0.14538121146355604    0.13541338167934922    0.1338488532664163    0.13157800473998654    0.13522194447195082    
  0.1521372966479993    0.18814834424971183    0.24375280854046338    0.304167483872259    0.34539567999679194    
  0.35850306092236994    0.3453956842317357    0.3041674859660473    0.24375279932688002    0.1881483530525159    
  0.15213728538186144    0.13522195310820703    0.13157800661183436    0.13384886288328773    0.13541338167934922    
  0.13399210887580698    0.133303217782694    0.13384885228420215    0.14221133033992028    0.16636855272256848    
  0.2133363099652017    0.2812234824342933    0.34539570963789124    0.37636390707039064    0.381457585308112    
  0.37636391428705446    0.3453956894957102    0.28122345955754025    0.21333631866009523    0.1663685553750952    
  0.14221130929506468    0.13384884207879305    0.13330324327183715    0.13399210887580698    0.13444281836082306    
  0.1339921173234296    0.1354133656943623    0.14538121611856958    0.17226261977984905    0.223569353706196    