#     DFTpy    
  CRYSTAL 
    
  PRIMVEC    
  1.6728796782890512    -2.897512597746115    0.0    
  1.6728796782890512    2.897512597746115    0.0    
  0.0    0.0    5.656144876827586    
  PRIMCOORD    
  2    1    
  Si    1.6728796782890512    0.9658375325820383    1.4140362192068965    
  Si    1.6728796782890516    -0.9658375325820383    4.242108657620689    
  BEGIN_BLOCK_DATAGRID_3D    
  3d_datagrid_density    
  BEGIN_DATAGRID_3D#0    
  15    15    25    
  0.0    0.0    0.0    
  1.6728796782890512    -2.897512597746115    0.0    
  1.6728796782890512    2.897512597746115    0.0    
  0.0    0.0    5.656144876827586    
  0.04475372384233787    0.0464629034064927    0.0514909093354269    0.05972042154052845    0.07063520246106676    
  0.08230151739636543    0.09158621395825177    0.09522202554698436    0.09158623260581182    0.08230153283169646    
  0.07063519839383861    0.05972043409663128    0.05149091321718716    0.04646289962032109    0.04475372384233787    
  0.04646290276987424    0.04646174787434239    0.04984249521175237    0.05654833095923807    0.06637288918835399    
  0.07813403016718341    0.08918082126402746    0.09610992856978359    0.09611046371931102    0.08918015623261243    
  0.07813498391365349    0.06637198423321129    0.05654881345932702    0.04984186798691287    0.04646290276987424    
  0.051490907541022694    0.049842484922980206    0.05149145983323048    0.05654842674313152    0.06504542457546769    
  0.0763384279896056    0.08845312403457721    0.09814123239967354    0.10191932510857186    0.09814229151543015    
  0.08845265608537897    0.07633823340122182    0.06504611474650551    0.056548806710941556    0.051490907541022694    
  0.05972041885624798    0.0565483385484257    0.05654843178260836    0.059720006290052606    0.06637228636841795    
  0.07633782343505661    0.08839719287977943    0.09982534070503227    0.10690730985182849    0.10690621091342012    
  0.09982479966693775    0.08839829970643759    0.07633822988015067    0.06637195560576394    0.05972041885624798    
  0.07063520653727963    0.06637288074137632    0.06504542285479704    0.06637228585130804    0.07063540719550636    
  0.07813519914164206    0.08845351981265158    0.09982445688385808    0.10887254902204972    0.1123078212574212    
  0.10887323686813989    0.09982479583579422    0.08845268114867033    0.07813500857864822    0.07063520653727963    
  0.08230152047609893    0.07813403173157285    0.07633842688705876    0.0763378274989923    0.07813520872324678    
  0.08229954999394389    0.08918073274479431    0.09814079620785406    0.10690781204173708    0.11230617173171809    
  0.11230778961611801    0.10690620733515983    0.09814228128797571    0.08918017094455341    0.08230152047609893    
  0.09158620703498985    0.08918080176223714    0.08845313073323416    0.0883971939283184    0.08845350324250094    
  0.0891807347306949    0.09158665209785384    0.09610991445091557    0.10191967832279294    0.10690778522539865    
  0.10887255056184902    0.10690732786335248    0.10191934495395889    0.09611045191868212    0.09158620703498985    
  0.09522202001451667    0.0961099202825289    0.09814123217808093    0.0998253440866533    0.09982445349085617    
  0.09814081431774588    0.09610989393152522    0.095222294912498    0.09610990440587393    0.09814082663299283    
  0.0998244588896796    0.09982535694510809    0.09814123614595274    0.09610988829780309    0.09522202001451667    
  0.09158622093236407    0.09611046829896873    0.10191931766619299    0.10690730656308146    0.10887253817803112    
  0.10690779915037198    0.10191969207815235    0.09610990089095506    0.09158663448188097    0.08918073012823881    
  0.08845350144220056    0.08839721389244225    0.0884531141388637    0.08918079394317253    0.09158622093236407    
  0.08230151299230268    0.08918016395683842    0.09814227159356326    0.10690620698534876    0.11230780316374352    
  0.11230614096976319    0.10690779231606011    0.09814082050988804    0.08918073951866319    0.08229956246876538    
  0.07813518895666426    0.07633782294511146    0.07633843747067523    0.07813403063243358    0.08230151299230268    
  0.07063519026738622    0.07813500983262212    0.08845268324340798    0.09982479414561274    0.10887325348773608    
  0.11230779831945577    0.10887256387710587    0.09982445223656113    0.08845349999817863    0.07813519826494963    
  0.07063540778674421    0.0663722820118646    0.06504542671959186    0.0663728739082063    0.07063519026738622    
  0.059720434123500775    0.06637197102214688    0.07633825241708463    0.08839830122469829    0.09982479860247112    
  0.10690622779253714    0.10690732336409296    0.09982535258708647    0.08839720342154399    0.07633783193870596    
  0.06637228106036869    0.05972001111026212    0.05654843462343042    0.05654832164599705    0.059720434123500775    
  0.05149090407049923    0.05654881010680932    0.06504610680123753    0.0763382384399169    0.08845266177463665    
  0.09814226977440102    0.10191934419726421    0.09814122281792104    0.08845310870111796    0.07633843417614598    
  0.06504541811937484    0.05654843262430761    0.051491452312581454    0.04984249609772851    0.05149090407049923    
  0.046462898673632194    0.049841859174245134    0.05654882039912119    0.06637197060649822    0.07813501018072586    
  0.08918016614570137    0.09611045006040322    0.09610990950934468    0.0891808069270186    0.07813403948401947    
  0.06637286784272868    0.05654832698286659    0.04984249617085571    0.04646174390252498    0.046462898673632194    
  0.04475372384233787    0.0464629034064927    0.0514909093354269    0.05972042154052845    0.07063520246106676    
  0.08230151739636543    0.09158621395825177    0.09522202554698436    0.09158623260581182    0.08230153283169646    
  0.07063519839383861    0.05972043409663128    0.05149091321718716    0.04646289962032109    0.04475372384233787    
  0.04643223717759681    0.04831632446624317    0.05400727681758986    0.06350123265498837    0.07616126404806838    
  0.08975905467176648    0.10061175177145874    0.10483462196692271    0.10061271598434945    0.08975789651010418    
  0.0761617822618165    0.06350154203647056    0.05400738718150255    0.04831584541288779    0.04643223717759681    
  0.04831584631256465    0.048317583444719266    0.05119706161633386    0.05692890998898693    0.06529074540000426    
  0.07526245544729514    0.08460695424398193    0.0905015349297235    0.09049816829530259    0.08461063258883651    
  0.07525985880660706    0.06529200329672415    0.056926930093905564    0.051199631248691806    0.04831584631256465    
  0.054007383875453036    0.05304858635224426    0.0540074930354849    0.05692745520503855    0.061827787937015745    
  0.06841283461513764    0.07550774725063884    0.08118817998907964    0.08343626002625705    0.08118745682106014    
  0.07550732569780802    0.06841434507220673    0.06182781469869419    0.05692692427060878    0.054007383875453036    
  0.06350153551319207    0.06277090722385556    0.06277115120974758    0.06350136304253837    0.06529121093355755    
  0.06841387900220904    0.07265263579618138    0.07688866020580924    0.07960141524756258    0.07960202612913587    
  0.0768891380915536    0.07265170959791843    0.06841433232741212    0.06529198527546329    0.06350153551319207    
  0.0761617883289134    0.07737161142569632    0.07792937312502562    0.07737167168918167    0.076161022514546    
  0.0752612742104028    0.07550798928650565    0.07688727767979443    0.07845774775607188    0.0791360726156098    
  0.07845728510647319    0.07688914128869156    0.07550732609481928    0.07525985813744253    0.0761617883289134    
  0.08975787840163241    0.09516495820854194    0.09862461999238026    0.09862628661638738    0.0951639811235368    
  0.08975952375335607    0.08460684769480127    0.08118928390650734    0.07960130468228083    0.07913746312103309    
  0.07913605448324465    0.07960202449035832    0.08118744636094737    0.08461063848105375    0.08975787840163241    
  0.10061271464298183    0.11210007611265123    0.12141451749134641    0.12496586775541967    0.1214127834147794    
  0.11210039194530393    0.10061270969486702    0.09049932250785614    0.08343573310366281    0.07960130112382319    
  0.07845771498974546    0.0796014231709648    0.08343630505344315    0.09049817827883617    0.10061271464298183    
  0.1048346219864832    0.12263613695267876    0.13981745803106407    0.150436084853192    0.15043511286283534    
  0.13982110581228793    0.12263381197742868    0.10483672870013667    0.0904993236686816    0.08118929194990183    
  0.07688727322216782    0.07688867499009022    0.08118818116126097    0.09050153581278768    0.1048346219864832    
  0.10061177131611618    0.12263563234198999    0.14691327436565232    0.16630605606280086    0.1736778876691744    
  0.1663054190139443    0.14691491617473623    0.12263382685557124    0.10061269815485346    0.08460683983526439    
  0.07550796590136136    0.07265264645436387    0.07550774818950196    0.08460696063593161    0.10061177131611618    
  0.0897590574993524    0.11210074083712378    0.13981937872450045    0.16630698425563956    0.18252128971718487    
  0.182519673600763    0.16630540655246162    0.1398210970458864    0.11210041629817677    0.08975953652591166    
  0.07526127932214166    0.06841387614007464    0.0684128467728904    0.07526245466296769    0.0897590574993524    
  0.0761612562245271    0.09516407779011603    0.12141425613369934    0.15043370016589    0.17367728506627264    
  0.182521266737959    0.1736778943208738    0.15043509485838727    0.12141279173300694    0.09516397940031435    
  0.07616102286291487    0.06529120943070627    0.061827777619815776    0.06529074005189832    0.0761612562245271    
  0.06350124846315475    0.0773724103048381    0.09862480167910459    0.12496793676922696    0.15043369728393177    
  0.16630696417455604    0.16630605761537562    0.15043608185547827    0.12496586057400538    0.09862629486733689    
  0.07737168176939495    0.06350136081622702    0.05692745239282017    0.056928905456986215    0.06350124846315475    
  0.05400727164467398    0.06277049965893816    0.07793027475853107    0.09862480515197619    0.12141426635594785    
  0.13981939338832877    0.14691329031580125    0.139817460845622    0.12141449953400318    0.09862462346133315    
  0.07792936512738131    0.0627711509091844    0.054007481967222416    0.051197071884760685    0.05400727164467398    
  0.04831632300195578    0.0530498514845177    0.06277051496422804    0.0773724064850534    0.09516406667114732    
  0.1121007310243332    0.12263562039121124    0.12263612449474065    0.11210008412389863    0.0951649516439251    
  0.07737160398397612    0.06277090854947712    0.05304859985616688    0.04831758754217461    0.04831632300195578    
  0.04643223717759681    0.04831632446624317    0.05400727681758986    0.06350123265498837    0.07616126404806838    
  0.08975905467176648    0.10061175177145874    0.10483462196692271    0.10061271598434945    0.08975789651010418    
  0.0761617822618165    0.06350154203647056    0.05400738718150255    0.04831584541288779    0.04643223717759681    
  0.051122026080575894    0.05360881267840718    0.06133963822185617    0.0746122321875219    0.09257578293466216    
  0.11221615480274086    0.1280468547093779    0.13416220184266614    0.12804707854580807    0.11221695955440673    
  0.09257371940443708    0.07461327816164383    0.06134032468393455    0.05360823665376415    0.051122026080575894    
  0.05360824186019216    0.05360811341580866    0.056700294644275784    0.0630939834320367    0.07257580670115209    
  0.08398084529598318    0.0947363790487262    0.10143494888069256    0.10143428993570777    0.09473705501284314    
  0.08397879397873932    0.07257787998728225    0.06309199144281356    0.056701732393513234    0.05360824186019216    
  0.061340319026270566    0.06080789792856875    0.061341596111858465    0.06309176663573954    0.06630554511324337    
  0.07096905384664508    0.07627001199611345    0.08058678242357564    0.08228336808324503    0.08058607449288704    
  0.07627068069514079    0.07097085669307486    0.06630444008783218    0.06309199179477475    0.061340319026270566    
  0.07461326826399556    0.07601336935439315    0.07601299968928013    0.07461205050508113    0.072576718895369    
  0.07097161036403118    0.07047093366214824    0.07084847558771278    0.07139422615524077    0.07139411007517112    
  0.07084904514216415    0.0704700246279382    0.07097085306580397    0.07257787107336257    0.07461326826399556    
  0.0925737421153468    0.09952423778265741    0.10222817242736726    0.09952495529180676    0.09257535547222469    
  0.08397755699943178    0.07627026729560044    0.07084965343625    0.06793785982425689    0.0670822431762926    
  0.06793901837408456    0.07084904784381359    0.07627067662028963    0.08397878880569228    0.0925737421153468    
  0.11221694685007201    0.12897022815073547    0.13938314615396957    0.13938533964665356    0.12896844461780724    
  0.11221887174286711    0.09473631255827868    0.08058531195739684    0.07139367523873268    0.06708442386970653    
  0.06708223299357922    0.07139410739475865    0.08058605480507909    0.09473704883753666    0.11221694685007201    
  0.12804706364505983    0.15758006183032033    0.18121889538193678    0.19018496518363256    0.18121384694519344    
  0.15758058720345589    0.12804678338074135    0.1014364637218728    0.08228303850662445    0.07139366392584195    
  0.06793783448281156    0.07139422900398118    0.08228337380578772    0.10143429076595198    0.12804706364505983    
  0.1341622037358037    0.17537708033768376    0.2148053027320549    0.23861005842617922    0.23861161646327667    
  0.2148143631833984    0.1753761961772482    0.1341597079338402    0.10143648129645406    0.08058533160881318    
  0.07084964708165939    0.07084847939257682    0.08058679060354108    0.10143495507098255    0.1341622037358037    
  0.12804686650034397    0.17537552640592077    0.22748803141471874    0.26742672573505877    0.2818814961551207    
  0.26742589306803766    0.22748911763677435    0.17537621942771062    0.12804677479462342    0.09473629909473671    
  0.07627024982947954    0.0704709376125693    0.07626999829734417    0.09473636160233158    0.12804686650034397    
  0.11221617082057517    0.1575803883522682    0.21481128908891067    0.26742780528146126    0.29726001591904416    
  0.2972512293708059    0.2674259162474297    0.21481435948614697    0.15758061548830452    0.11221887186448233    
  0.08397754097231652    0.07097162076191271    0.07096907913076722    0.08398084789990773    0.11221617082057517    
  0.09257576479500707    0.12896904478358734    0.1812180237965675    0.23860625722522824    0.2818777041563349    
  0.29726000864366314    0.28188149576690175    0.23861160752447785    0.1812138460272112    0.1289684410167576    
  0.09257534636321363    0.07257670396130628    0.06630555843224412    0.07257578333612218    0.09257576479500707    
  0.07461223942768305    0.09952482891649043    0.13938485326836442    0.19018682942691795    0.23860625706743097    
  0.26742782719054914    0.2674267380673339    0.2386100846958772    0.19018493807192302    0.1393853553380817    
  0.09952497297522317    0.07461205248460293    0.06309175937611365    0.06309398286689086    0.07461223942768305    
  0.06133963020208764    0.07601431562709537    0.1022268916404578    0.1393848312000196    0.18121803030479444    
  0.2148113291926593    0.2274880528935509    0.21480531002187508    0.18121888321381321    0.1393831407128517    
  0.10222817308062161    0.07601300534752782    0.06134159178322223    0.05670030057590377    0.06133963020208764    
  0.05360880934148531    0.06080837245457176    0.07601432233131139    0.0995248210397842    0.12896902677192018    
  0.1575803948145636    0.17537553788919055    0.17537709814839758    0.15758004832456673    0.12897024446904226    
  0.09952422982823228    0.07601336799113108    0.06080791456911072    0.053608119639395026    0.05360880934148531    
  0.051122026080575894    0.05360881267840718    0.06133963822185617    0.0746122321875219    0.09257578293466216    
  0.11221615480274086    0.1280468547093779    0.13416220184266614    0.12804707854580807    0.11221695955440673    
  0.09257371940443708    0.07461327816164383    0.06134032468393455    0.05360823665376415    0.051122026080575894    
  0.05798331677533369    0.061483172181840656    0.07248483906738173    0.09175057195958614    0.1184182627702799    
  0.14806077921286345    0.17203778994340987    0.18124317713089938    0.17204079749862    0.1480627108092053    
  0.11841251904412833    0.09175218018950522    0.0724853022481526    0.06148294831002445    0.05798331677533369    
  0.06148295149317245    0.061483594421262125    0.06540665660102786    0.07368426251579312    0.08617594448899085    
  0.10145705922938208    0.11603451693704062    0.12502035825188437    0.1250209056923346    0.1160307005475574    
  0.10145528951679886    0.08618030068285944    0.07368289103587482    0.06540733355536595    0.06148295149317245    
  0.07248530222548655    0.07219410611287641    0.07248556376383469    0.07368287665449189    0.07634358674597845    
  0.0806838275506145    0.08600190247788068    0.09046041608808127    0.09219279276823798    0.09045969141779965    
  0.0860052504071962    0.0806850967031388    0.07634013828890085    0.07368288565465277    0.07248530222548655    
  0.09175217231836473    0.09528873416599895    0.09528740737363044    0.09175150554122902    0.08617618016068652    
  0.08068734076908643    0.07677863645727309    0.07474562826730212    0.0740617515238829    0.0740632778096586    
  0.07474488021550264    0.076777892648565    0.0806850969522116    0.08618025953809808    0.09175217231836473    
  0.11841253428033911    0.13207187045751265    0.13735735822192605    0.13207460139206684    0.1184173415217639    
  0.1014522907523204    0.08600307522641328    0.0747473020125772    0.068351643460412    0.06634583405593403    
  0.06835309013638052    0.07474487659664955    0.08600525498089451    0.10145530027264661    0.11841253428033911    
  0.14806271099619137    0.17897706637017533    0.1981922578082442    0.19819093334971888    0.17897165379249994    
  0.14806689433713452    0.11603276660140854    0.0904578373406638    0.07406137126080524    0.06634906554543586    
  0.06634582565355467    0.07406329541336722    0.09045968065358173    0.11603069501613693    0.14806271099619137    
  0.17204078745730342    0.224162078128989    0.26439663575069844    0.27904140377483433    0.2643947752836557    
  0.22416026355570848    0.1720382712569554    0.12502461409806603    0.09219291159917045    0.07406134292692779    
  0.06835164976060774    0.07406176230682689    0.0921927968891642    0.12502090745904734    0.17204078745730342    
  0.18124318367366157    0.2515266851997714    0.3123435537162654    0.3429668346910072    0.34296609418847257    
  0.3123627966447494    0.2515312423913287    0.18123606804381898    0.125024608564091    0.09045784440740472    
  0.07474731754710154    0.074745633457549    0.09046043839751135    0.12502033162543802    0.18124318367366157    
  0.17203781749489824    0.2515309767962507    0.32849422321707133    0.36956117254333803    0.37808552389661493    
  0.36955771852291724    0.32850133016305766    0.25153127691106203    0.17203825380169419    0.11603277070670684    
  0.08600305896617853    0.07677865941277032    0.08600190486299288    0.11603450994614976    0.17203781749489824    
  0.14806077247870764    0.2241586819192723    0.31235737614741765    0.3695656727415901    0.3822505033607069    
  0.3822414685712212    0.36955770878385646    0.31236281958902273    0.2241602724522089    0.14806692894418813    
  0.10145227711033923    0.08068733672773644    0.08068383821863931    0.10145706349974355    0.14806077247870764    
  0.11841823535392573    0.1789725064613996    0.26440474819947146    0.3429469850377679    0.37808435344127855    
  0.38225055351249676    0.37808558425467126    0.34296612796897513    0.2643947883800053    0.17897165082606772    
  0.11841731521095497    0.08617615786880782    0.07634359231556435    0.0861759428120582    0.11841823535392573    
  0.09175058588419853    0.13207545122608624    0.19819141462303722    0.2790490628989469    0.3429469823072185    
  0.3695657041252324    0.36956122120835794    0.3429668808746973    0.27904141281902706    0.19819093518447684    
  0.13207460384130554    0.09175151222240152    0.07368289049521812    0.07368425092741496    0.09175058588419853    
  0.0724848395178802    0.09528956658188886    0.1373540876972259    0.19819139348200854    0.2644047018853811    
  0.3123573607542534    0.3284942617581294    0.3123434943289211    0.2643966158405561    0.19819227819838275    
  0.13735734652096143    0.09528741161821112    0.07248555117608177    0.06540666385920389    0.0724848395178802    
  0.061483169462842505    0.0721947965747985    0.09528958016798762    0.13207546206749118    0.17897250616444907    
  0.2241587237841956    0.25153097307264466    0.2515266625066681    0.22416210156380664    0.17897708030982487    
  0.1320718486572146    0.09528872509070449    0.07219411737849518    0.06148359528204511    0.061483169462842505    
  0.05798331677533369    0.061483172181840656    0.07248483906738173    0.09175057195958614    0.1184182627702799    
  0.14806077921286345    0.17203778994340987    0.18124317713089938    0.17204079749862    0.1480627108092053    
  0.11841251904412833    0.09175218018950522    0.0724853022481526    0.06148294831002445    0.05798331677533369    
  0.06547152513152035    0.07014600350404215    0.08493527910033245    0.11133338271742098    0.14867518047773726    
  0.19022084887750468    0.22318961306749446    0.23562951276729713    0.22322559362850974    0.19022281597588003    
  0.14864429162431253    0.11133956947925762    0.08493810362395629    0.0701469877235069    0.06547152513152035    
  0.07014699424924599    0.07014789871324996    0.07523838316064606    0.0860393719512035    0.10258262261620185    
  0.12314389897146165    0.14288148487064795    0.15495806380939273    0.15495889451987455    0.1428539986067152    
  0.12314467255026902    0.10260457158876032    0.08603614122664423    0.07523469223186614    0.07014699424924599    
  0.08493810104246143    0.08472515634525477    0.08493478874574835    0.08603306988060473    0.08888594601499977    
  0.09381936018776241    0.1000782124702105    0.10543552138472505    0.1075115393166769    0.10543399706694633    
  0.10009668060754232    0.09382099197089239    0.08886463469194783    0.08603613709513293    0.08493810104246143    
  0.11133956711394877    0.11680317907267315    0.11680461098669337    0.11134164295601523    0.10258059359785317    
  0.093824997812597    0.08724861169440853    0.0834118827032685    0.0818551852824693    0.0818582449631143    
  0.08341320661752652    0.08723430323209552    0.09382098202189842    0.10260455679750477    0.11133956711394877    
  0.14864430401753673    0.16906676965504608    0.17683609079245416    0.16906879783843604    0.14867629994307235    
  0.1231381975609682    0.10007957670739354    0.08341755727866292    0.07388653188402713    0.07086012679912318    
  0.07388533600826774    0.08341320541405725    0.10009668479169138    0.12314467100833405    0.14864430401753673    
  0.19022281264591145    0.2351267010947503    0.2618534687802608    0.26184201794774126    0.23508708649279783    
  0.1902289697996653    0.1428772867577182    0.10542747877919854    0.08185714743307414    0.07085898745222748    
  0.0708601139025757    0.08185826062821237    0.10543399696293206    0.14285401544266216    0.19022281264591145    
  0.22322560390390497    0.2944115637743098    0.34109490902010486    0.3550388848095785    0.34114632568048087    
  0.29440310518476265    0.22319769792697716    0.154970478123825    0.1075102192960126    0.08185714112996036    
  0.07388651817958787    0.08185518349831163    0.10751156715538013    0.1549589011474862    0.22322560390390497    
  0.23562953672636544    0.32642082857079757    0.37830573621217695    0.38242422680768723    0.3823857419686319    
  0.37832377495155295    0.32647604730448104    0.235598680677119    0.15497049131799656    0.10542749124365786    
  0.08341755168603053    0.08341190443010736    0.10543551953735684    0.154958031010566    0.23562953672636544    
  0.22318962307204127    0.326472915884556    0.3836443123590754    0.35721916678007753    0.32906133008566624    
  0.3572127635956367    0.3836406994275274    0.3264760792335458    0.22319771440415961    0.14287727230231767    
  0.1000795482614372    0.08724862027263666    0.10007821438270527    0.14288148300446982    0.22318962307204127    
  0.1902208729569764    0.29440513201051277    0.3783282776610107    0.3572085362103756    0.2901248813977    
  0.290164222993521    0.357212752030774    0.37832374406781183    0.29440308112727165    0.1902289969142887    
  0.12313819437464604    0.09382501086376407    0.09381936723663628    0.1231438953514633    0.1902208729569764    
  0.14867517948832937    0.23508930840294523    0.34115432406748725    0.3823276542596609    0.329134425607023    
  0.2901248622864883    0.3290613356668036    0.3823857304541827    0.341146327005444    0.235087076564358    
  0.14867628702607555    0.10258059377324089    0.0888859492176857    0.10258260925134836    0.14867517948832937    
  0.11133340452038114    0.16908044546175893    0.2618386489820431    0.35508645108609443    0.382327644791951    
  0.3572085282031073    0.35721911606593987    0.3824242178630705    0.3550388590429418    0.26184204898028074    
  0.16906881595963938    0.11134164235853519    0.08603308006842517    0.08603936584694054    0.11133340452038114    
  0.08493526623489171    0.11680555966452082    0.17682916886338848    0.2618386520720891    0.3411543494718034    
  0.37832828913001976    0.38364436606611624    0.3783056911132504    0.3410948625962304    0.2618534939113381    
  0.1768360897194085    0.11680459900702583    0.08493477129033293    0.07523838206650281    0.08493526623489171    
  0.07014600917379352    0.08472807835325658    0.11680558100696618    0.16908045871925423    0.23508928937279117    
  0.294405160883772    0.32647292229804203    0.32642083946078065    0.29441156836898075    0.23512670951501233    
  0.16906675815292782    0.11680317078377647    0.08472517432233509    0.07014790694391831    0.07014600917379352    
  0.06547152513152035    0.07014600350404215    0.08493527910033245    0.11133338271742098    0.14867518047773726    
  0.19022084887750468    0.22318961306749446    0.23562951276729713    0.22322559362850974    0.19022281597588003    
  0.14864429162431253    0.11133956947925762    0.08493810362395629    0.0701469877235069    0.06547152513152035    
  0.07128592625724506    0.07693399999529624    0.09490319706444197    0.12736083964755185    0.17370729940975482    
  0.2247925270631941    0.2641342944279499    0.27855421655872536    0.2642286039564655    0.22480312310766598    
  0.17362852495452885    0.12737195301828388    0.09491491415163743    0.07693548324712912    0.07128592625724506    
  0.07693548640879394    0.076934704770494    0.08306975431033028    0.09615634890131895    0.11632696459695271    
  0.14161373056813023    0.16592496746813173    0.18072157573191633    0.18072372874435239    0.16585780830321362    
  0.14161235715357653    0.11638542249348688    0.0961491704404078    0.08305528309921535    0.07693548640879394    
  0.09491490467178497    0.09470150553489261    0.09490278555244959    0.0961386428977083    0.09953119799415226    
  0.10531030278068419    0.11260399344894342    0.11892602884379762    0.12138457372623802    0.11892025651867923    
  0.11265157317714453    0.10531400058667105    0.0994747483440294    0.09614917501397452    0.09491490467178497    
  0.1273719466856659    0.13422874630320955    0.1342394749673213    0.12738312926853707    0.11632374504223379    
  0.10532002999117247    0.09689135620995107    0.09174264895417378    0.08959771118079139    0.08960228674407231    
  0.09174910962643812    0.09685047584599621    0.10531399900975923    0.11638540644452308    0.1273719466856659    
  0.17362853494584513    0.19898728518830888    0.2084723862344771    0.1989789121585632    0.17370977979882213    
  0.14160227625296534    0.11260557175876697    0.09175908609788024    0.0798544875381363    0.076084353487755    
  0.07985148526479853    0.09174911556891115    0.11265158033795467    0.14161234757394223    0.17362853494584513    
  0.22480312262215688    0.2783621849512225    0.30802243208933705    0.30800779826737035    0.2782581359880944    
  0.22481146650379932    0.1659212697454368    0.11890470738464008    0.08960029757422765    0.07608229829604514    
  0.07608432503932133    0.08960226747820159    0.11892023398007605    0.16585779545526344    0.22480312262215688    
  0.2642286082564278    0.3416119681039803    0.3775181480348676    0.3824748456358523    0.3776520353810662    
  0.3416044731627188    0.2641445295141088    0.18074860405072762    0.12138456825973873    0.08960030263295318    
  0.07985445402230426    0.0895977003515942    0.12138460989447873    0.18072374373123606    0.2642286082564278    
  0.27855424781717886    0.3685994405257915    0.3760119445439837    0.3319225056502623    0.33183907590973427    
  0.3760106181752661    0.3687456290359222    0.278484690769586    0.1807486361402447    0.11890472412253805    
  0.09175908782650279    0.09174266182837841    0.11892604918648499    0.1807215469534638    0.27855424781717886    
  0.26413434309319356    0.368722676071532    0.35929950562222224    0.24604585661020717    0.1903793751076036    