#     DFTpy    
  CRYSTAL 
    
  PRIMVEC    
  1.8072709068352877    -3.1302850336797974    0.0    
  1.8072709068352877    3.1302850336797974    0.0    
  0.0    0.0    3.401868124137931    
  PRIMCOORD    
  1    1    
  Si    0.0    0.0    0.0    
  BEGIN_BLOCK_DATAGRID_3D    
  3d_datagrid_density    
  BEGIN_DATAGRID_3D#0    
  17    17    15    
  0.0    0.0    0.0    
  1.8072709068352877    -3.1302850336797974    0.0    
  1.8072709068352877    3.1302850336797974    0.0    
  0.0    0.0    3.401868124137931    
  0.07245306657442613    0.12204915029134536    0.2841083321099548    0.4064921089426171    0.3326195243849375    
  0.20267559514714986    0.11739456809629525    0.07705469148381153    0.06554239289679513    0.07705468315338415    
  0.11739457111699135    0.20267558311504744    0.33261952418438484    0.4064921316720434    0.28410833894989684    
  0.12204917292803535    0.07245306657442613    0.1220491398567497    0.1220492444654285    0.23310460219650347    
  0.3850272927516942    0.37903496008806287    0.25350402155567014    0.1472535840634451    0.08974725302022983    
  0.06649103090300859    0.06648835323068994    0.08975086966945196    0.1472483259343174    0.2535132642115273    
  0.3790356763415372    0.3849801284006567    0.23314202657064712    0.1220491398567497    0.2841083703526947    
  0.23310458620276633    0.2841425763013089    0.3850059643152337    0.39146341168613835    0.28335314998012756    
  0.17099262601396897    0.10177215493194725    0.06878254425195772    0.05925760834662119    0.06878282161596572    
  0.10177079697656893    0.17099528230800856    0.2833339562042842    0.39152545139348666    0.38498017204023305    
  0.2841083703526947    0.40649207021059297    0.3850272434703269    0.38500597385270446    0.40647339325298565    
  0.379013131335387    0.2833821777924854    0.1801268432361048    0.10927857644500372    0.07105677852394969    
  0.055163915001708516    0.05515849789895616    0.0710632101018968    0.10927089140348079    0.18014632538799052    
  0.28333395967540176    0.37903566794998494    0.40649207021059297    0.33261953019272733    0.37903496969395206    
  0.39146339571808486    0.37901313461073666    0.3326495369718698    0.25352413639638494    0.17096647381802793    
  0.10927935231296473    0.07199419015965464    0.053376900749700674    0.0478588831377399    0.05337638294146542    
  0.07199530719847536    0.10927089400128154    0.17099529137845    0.2535132919435111    0.33261953019272733    
  0.2026755676773078    0.25350400882555224    0.2833531560626295    0.28338221068780856    0.25352415653374855    
  0.2026407100892629    0.14724579527898304    0.1017897770232055    0.07105783312106151    0.05337776336466356    
  0.04560395428675797    0.045605283593387246    0.053376394340457226    0.07106320421125734    0.10177078403254407    
  0.14724837757157816    0.2026755676773078    0.11739461537235792    0.14725357062070185    0.17099263608617052    
  0.1801268444129023    0.17096647639943266    0.14724578156071796    0.1174211206060994    0.0897518083795168    
  0.06876847675043289    0.05516100311374534    0.047858951882793    0.04560395553428421    0.04785889281999453    
  0.055158511105818354    0.06878282033973607    0.08975089756329124    0.11739461537235792    0.07705468412133276    
  0.08974725697335605    0.10177213682096742    0.10927859021650249    0.10927936439548691    0.10178978538756055    
  0.08975180860654512    0.07703249000013966    0.06648780401542088    0.05927223884186197    0.05516100960429325    
  0.053377777261290706    0.05337691559250267    0.05516391662658886    0.059257618771981435    0.06648837253826086    
  0.07705468412133276    0.06554238518371248    0.06649102947944109    0.06878254480206851    0.07105677216792051    
  0.07199419119058509    0.07105783757263913    0.06876845923391789    0.06648780035000458    0.06556500905631255    
  0.06648779788609875    0.06876847133853531    0.07105784013148801    0.07199419822789964    0.07105678955535666    
  0.06878252591767788    0.06649103632449013    0.06554238518371248    0.07705467081396454    0.06648834917416198    
  0.05925761498202847    0.05516392909570155    0.05337689897007398    0.053377776500760366    0.055161003854780254    
  0.05927225567305119    0.06648781106792664    0.07703246497791748    0.08975180547700272    0.1017897624675288    
  0.10927933459486455    0.10927857548674416    0.10177214959508321    0.08974725004973184    0.07705467081396454    
  0.11739461468488041    0.08975090013061918    0.06878284261846684    0.0551585153894057    0.047858865173021826    
  0.045603960064615624    0.04785894428406751    0.05516101693412653    0.06876847194899229    0.0897517871270637    
  0.11742112975695876    0.1472457817413809    0.17096648547018875    0.18012686475055703    0.17099264116230323    
  0.14725359289839396    0.11739461468488041    0.20267557858120364    0.14724832304715635    0.10177079922737158    
  0.07106320608013425    0.05337638208645955    0.045605295892992635    0.0456039556158298    0.05337777637876768    
  0.07105783274822726    0.10178974607771459    0.14724579279306946    0.20264075181469576    0.2535241425500876    
  0.2833821808724301    0.2833531163979706    0.25350406887262183    0.20267557858120364    0.3326195517334579    
  0.2535132833089767    0.17099527668089254    0.10927090687373227    0.07199529269579438    0.05337639048768894    
  0.04785886505528605    0.05337690983534124    0.07199419840097415    0.10927934454420944    0.170966472987552    
  0.25352416422512786    0.3326495832338107    0.37901319220231466    0.39146341360941705    0.3790350050672564    
  0.3326195517334579    0.40649202019353614    0.3790355972772079    0.28333396867217364    0.18014631061705744    
  0.10927089722458456    0.07106319992071779    0.05515849144357074    0.055163930584131576    0.07105678141010846    
  0.10927857998434082    0.18012683466670004    0.2833821719376037    0.37901317750793206    0.4064733926335483    
  0.3850059471332602    0.3850272831604633    0.40649202019353614    0.2841083668259263    0.3849801148812995    
  0.3915253927579248    0.2833339682304335    0.1709952949281904    0.10177080962477804    0.06878282832480176    
  0.059257627233578324    0.06878254754933617    0.10177213001551162    0.17099262980338345    0.28335318850837676    
  0.39146348166031125    0.38500597593030006    0.28414255007051487    0.23310458958741928    0.2841083668259263    
  0.12204916080908206    0.23314199530099325    0.3849800668824762    0.37903564705881504    0.25351327026581366    
  0.14724834198188544    0.08975088941794014    0.06648835440721032    0.06649102587268317    0.0897472326751203    
  0.14725357936383593    0.2535040639649876    0.37903502415787654    0.38502725533510934    0.23310458950592747    
  0.12204925064425302    0.12204916080908206    0.07245306657442613    0.12204915029134536    0.2841083321099548    
  0.4064921089426171    0.3326195243849375    0.20267559514714986    0.11739456809629525    0.07705469148381153    
  0.06554239289679513    0.07705468315338415    0.11739457111699135    0.20267558311504744    0.33261952418438484    
  0.4064921316720434    0.28410833894989684    0.12204917292803535    0.07245306657442613    0.1299723230439999    
  0.18581468646431795    0.3325899507242874    0.4053779305442595    0.31303740160610244    0.18950702573193817    
  0.11080770886868324    0.07349500730838861    0.06279560789969092    0.07349498948569967    0.11080771191763643    
  0.18950699669077542    0.31303738138577486    0.4053778902924406    0.33258999024398184    0.18581469107211404    
  0.1299723230439999    0.18581468392321682    0.18578956415788236    0.290830925100576    0.4007855262521471    
  0.3617138176271808    0.23687067234826992    0.13831802769907645    0.08524968436171884    0.06366951711127455    
  0.06366629742841601    0.08525388151975245    0.13831205056835086    0.236880471791516    0.3617092295722504    
  0.400755955391107    0.2908498956244357    0.18581468392321682    0.3325899931310099    0.2908309252711147    
  0.3326453973352511    0.40075937000381595    0.37641064166466026    0.26511659513598007    0.16019829139768943    
  0.09636489645005507    0.06579520695265831    0.05693442772377467    0.06579492556794683    0.09636509286417727    
  0.16019786141999517    0.2651072954250323    0.37644926761470787    0.400756022082826    0.3325899931310099    
  0.4053778829948396    0.4007855751331443    0.40075939526712395    0.4053484816072692    0.36169920522820587    
  0.2651423318618632    0.16864526788074868    0.10331817798469492    0.06793140044984829    0.05313479201890508    
  0.05313113121212682    0.06793572588039848    0.10331303322777492    0.16865892585282372    0.2651072641330234    
  0.3617092544325322    0.4053778829948396    0.31303734600856487    0.3617137986668251    0.37641060799922044    
  0.36169924327672665    0.31307462479181003    0.2368810609358267    0.1601781376375691    0.10331853783497154    
  0.06881706261844202    0.051483646383199286    0.04632988201671921    0.051483434246325156    0.06881751856633603    
  0.10331303980576334    0.16019784270916604    0.2368805053185618    0.31303734600856487    0.1895069834425221    
  0.2368707002854971    0.2651165371967276    0.2651423214014169    0.23688109030546434    0.18947380503423988    
  0.13831377522301097    0.0963784184371516    0.0679322182979194    0.05148404341804411    0.04422446843825388    
  0.04422493796692129    0.05148344270142894    0.06793572338619482    0.09636507864245893    0.13831206757954595    
  0.1895069834425221    0.11080775774724298    0.13831803589059288    0.16019831944856633    0.16864526495257426    
  0.16017816362848486    0.1383137882112204    0.11083250692739963    0.08525275821538061    0.06578448680436397    
  0.05313292797855003    0.046329853108612803    0.04422446737128395    0.046329889280917164    0.05313113950310443    
  0.065794928755312    0.08525390244878715    0.11080775774724298    0.07349499837883988    0.08524968458682779    
  0.09636488441288052    0.10331819430493826    0.103318561397629    0.09637842651745557    0.08525276254015701    
  0.07347439855501657    0.06366693248216164    0.056945068178205514    0.05313293786818307    0.05148406292739599    
  0.0514836546484338    0.05313479353774214    0.05693442185585877    0.06366631728069244    0.07349499837883988    
  0.06279560120060705    0.0636695138797747    0.06579521676436226    0.06793139331213845    0.0688170536243242    
  0.06793221590373377    0.06578447158094479    0.06366693185428388    0.06281597007228945    0.06366692933483253    
  0.06578448504837998    0.06793222081173436    0.06881706524494666    0.06793141208994069    0.065795202055614    
  0.063669528127662    0.06279560120060705    0.07349498790981705    0.06366630707442507    0.0569344311179428    
  0.05313480014162615    0.05148365255679438    0.05148405670623775    0.053132929706013306    0.05694510008185697    
  0.06366694348950079    0.0734743709018736    0.0852527575534856    0.09637839987989148    0.10331853894840293    
  0.10331818060799847    0.09636488654983483    0.08524967878754874    0.07349498790981705    0.11080774800559247    
  0.0852539018701985    0.0657949351287557    0.053131146912905304    0.04632987801259404    0.044224464861370605    
  0.04632985304722036    0.053132936995728006    0.06578448373374028    0.08525273811574684    0.1108325044983036    
  0.13831376254453923    0.16017816143640956    0.16864528706125206    0.160198315589149    0.13831804258534652    
  0.11080774800559247    0.1895070088558019    0.13831205255834597    0.0963650924595284    0.06793572952770552    
  0.05148344413643999    0.044224958870053115    0.044224472342900466    0.05148405369700537    0.06793220831045652    
  0.09637839162239578    0.13831375630680187    0.18947380261278116    0.23688107524060695    0.26514230878320527    
  0.2651165053657806    0.23687070010554848    0.1895070088558019    0.3130373992323038    0.2368804911176947    
  0.16019784909411836    0.10331305088130645    0.06881750916827838    0.051483451999973485    0.04632987769196516    
  0.05148364329079174    0.06881707067603546    0.10331853721905175    0.1601781402092876    0.2368810663457517    
  0.3130746909334193    0.36169924326289576    0.3764106080127645    0.3617138201164227    0.3130373992323038    
  0.405377845936738    0.3617091923045337    0.26510730149311934    0.16865892479817451    0.10331302086781365    
  0.06793571560995879    0.053131133637029745    0.05313479805161837    0.06793140302771004    0.10331818651411988    
  0.16864527689174977    0.26514232493025786    0.3616992297692196    0.4053485300264427    0.40075943022639127    
  0.40078555486974043    0.405377845936738    0.33259002525498016    0.40075596962537785    0.3764492465461566    
  0.2651073155681219    0.1601978552124745    0.09636509131092656    0.06579492101426244    0.05693442990899669    
  0.06579521793853044    0.09636487097326563    0.16019830766678858    0.265116593532151    0.3764106601999012    
  0.400759423702059    0.3326453442623957    0.2908309434980608    0.33259002525498016    0.18581469788843227    
  0.2908498948378173    0.4007559401173165    0.3617092270920032    0.23688048765983366    0.13831205606177582    
  0.08525389828186204    0.0636663072803287    0.06366950178846098    0.08524966712624354    0.1383180330398474    
  0.23687068722189145    0.36171383820011305    0.4007855319464235    0.29083090578621623    0.18578957684125663    
  0.18581469788843227    0.1299723230439999    0.18581468646431795    0.3325899507242874    0.4053779305442595    
  0.31303740160610244    0.18950702573193817    0.11080770886868324    0.07349500730838861    0.06279560789969092    
  0.07349498948569967    0.11080771191763643    0.18950699669077542    0.31303738138577486    0.4053778902924406    
  0.33258999024398184    0.18581469107211404    0.1299723230439999    0.30870818652065335    0.3461808141078787    
  0.40171115663840357    0.3677416773549528    0.2569514050264453    0.15547816284229912    0.09385181864986299    
  0.06427540742734165    0.05570260562916567    0.0642754020269103    0.09385181183120052    0.15547815666798334    
  0.25695138117586236    0.367741698147797    0.40171116940259316    0.3461808301933991    0.30870818652065335    
  0.34618078479074127    0.34614547616804814    0.3920524332529097    0.39279780404021897    0.3035994965367588    
  0.19310475324749896    0.11542384453306748    0.07365076961643649    0.0563917411326557    0.05638951425531613    
  0.07365355653427973    0.11542034280202887    0.19310964908257572    0.30359500090657754    0.39279059947753303    
  0.3920520371988962    0.34618078479074127    0.401711169936042    0.3920525027712809    0.4017525889911366    
  0.39278361027694086    0.32002777286876777    0.216116072628725    0.132573251285985    0.08249324080594729    
  0.05809594281734823    0.05095141112997923    0.05809561226297541    0.08249354788571717    0.13257248241597724    
  0.2161150643448746    0.3200384539048677    0.3927906118571948    0.401711169936042    0.36774162819882666    
  0.39279772874705177    0.3927836051544605    0.3677199703537808    0.3035963222078346    0.2161265513993155    
  0.13921508473461508    0.08802247341708583    0.059835233712027175    0.0478560543568167    0.0478553328218703    
  0.05983634155293837    0.08802119776974901    0.13921886638663922    0.21611505891437682    0.30359498393060214    
  0.36774162819882666    0.25695137773558896    0.30359949816173265    0.32002778753535877    0.30359635521639206    
  0.25697237657824273    0.19310526984428375    0.13256628895114173    0.08802290955516058    0.060556079105915886    
  0.04649996828828708    0.042280979996117    0.04649979568297968    0.06055634546162518    0.0880211953164556    
  0.1325724872632922    0.19310965597774263    0.25695137773558896    0.15547814299399562    0.1931047757407323    
  0.2161160495268033    0.21612655824254598    0.1931053370478668    0.15546317570560725    0.11542327418429844    
  0.08249779828826011    0.05983497540818547    0.04650046336498288    0.04053891397656035    0.04053947234563103    
  0.04649980388023863    0.0598363289945076    0.08249354019751581    0.11542037554654168    0.15547814299399562    
  0.093851850684237    0.11542385337607022    0.13257325536089665    0.1392150996803051    0.1325663091506092    
  0.11542329939884227    0.09386285753764835    0.07365175933784357    0.058092556468076546    0.04785566377794725    
  0.04228084486231891    0.040538914720772236    0.042280989663676216    0.0478553395789344    0.05809561144534584    
  0.07365356194249725    0.093851850684237    0.06427539774859456    0.07365077428093786    0.08249322308193112    
  0.08802248471111364    0.08802292348555359    0.08249779909433436    0.07365175379361558    0.06426620259776315    
  0.056390430243323256    0.05095478206196033    0.04785567357915541    0.04650047488946265    0.04649998539015542    
  0.047856063318324406    0.050951416207919056    0.056389521527310665    0.06427539774859456    0.055702603821272866    
  0.05639173934280647    0.05809594411158019    0.05983523703268754    0.06055607112426827    0.059834990140971586    
  0.05809255623291916    0.0563904282673557    0.055711705753502525    0.056390433783176305    0.05809256427520165    
  0.05983497798068558    0.060556081040524415    0.05983525791281559    0.05809593541410831    0.056391745717599355    
  0.055702603821272866    0.06427539772233261    0.0563895189811018    0.050951423568267366    0.04785606810138317    
  0.04649997168042359    0.046500473981823574    0.04785567542512443    0.05095479695451506    0.05639043450157354    
  0.06426618253556166    0.07365174686619537    0.08249777047374815    0.0880229130309176    0.08802247186868001    
  0.08249323122946473    0.07365076606305151    0.06427539772233261    0.09385184918804251    0.07365356178635783    
  0.058095616163993405    0.04785534187583189    0.04228097066244184    0.04053891346219434    0.042280840559484216    
  0.04785568128938134    0.05809256272221185    0.07365174499020487    0.09386285900155263    0.11542327141649526    
  0.132566297383183    0.1392151178224655    0.1325732359051389    0.11542385300421276    0.09385184918804251    
  0.15547815763305653    0.11542034721970418    0.08249353696827262    0.05983634354014743    0.04649979720663684    
  0.04053948668699276    0.04053891342163551    0.0465004587163264    0.059834968507222926    0.08249776490999036    
  0.1154232674672241    0.15546319495647884    0.19310531458320013    0.2161265349904431    0.2161160363730154    
  0.19310473820523977    0.15547815763305653    0.25695139206525097    0.19310963944950613    0.13257247236022307    
  0.08802121506914731    0.06055633325488337    0.04649980368532067    0.04228096733875449    0.04649997140363849    
  0.06055606854717288    0.08802291093800722    0.13256628072996346    0.19310527023465948    0.25697248626647745    
  0.3035963888870891    0.3200277697955676    0.3035995113560976    0.25695139206525097    0.3677416091499671    
  0.30359497206354397    0.2161150385435374    0.1392188779078371    0.08802120062424576    0.05983632799570142    
  0.047855328618403206    0.047856061020871296    0.05983524502136526    0.08802247088812074    0.13921510299533046    
  0.21612653661011183    0.3035964162482129    0.3677200478604961    0.39278364702022156    0.3927977716061765    
  0.3677416091499671    0.4017111853015481    0.3927906109189731    0.32003845515944956    0.2161150569972255    
  0.13257248831191826    0.08249355568455993    0.05809561653107096    0.05095142563145771    0.0580959407616208    
  0.08249321875494092    0.13257324663888992    0.21611605761071048    0.32002778920484837    0.3927836186344094    
  0.4017526211515071    0.3920524866712378    0.4017111853015481    0.34618081639387005    0.3920521157875594    
  0.39279058945022033    0.30359497528631296    0.1931096637076882    0.1154203620014845    0.07365354887804464    
  0.05638952812954615    0.05639172608215599    0.07365075091170725    0.11542386337997229    0.19310475842739078    
  0.30359947343510063    0.3927977670264853    0.39205247837098955    0.34614551927188786    0.34618081639387005    
  0.30870818652065335    0.3461808141078787    0.40171115663840357    0.3677416773549528    0.2569514050264453    
  0.15547816284229912    0.09385181864986299    0.06427540742734165    0.05570260562916567    0.0642754020269103    
  0.09385181183120052    0.15547815666798334    0.25695138117586236    0.367741698147797    0.40171116940259316    
  0.3461808301933991    0.30870818652065335    0.39768902818286594    0.3908580428386815    0.3528032197019119    
  0.27301830194943344    0.18302538434642823    0.11438007422167906    0.0731011267637348    0.052733705709275984    
  0.04673729958153307    0.05273369310925434    0.07310112026306935    0.11438007121698511    0.18302538878797614    
  0.2730183349502921    0.3528031927915259    0.3908580767761476    0.39768902818286594    0.3908579936541203    
  0.3908510455908734    0.3675054252031648    0.3047455175616325    0.21714575761553787    0.13946811767048636    
  0.08769351716766852    0.05926108676734249    0.04721423252480564    0.047213535632051745    0.059261714076651206    
  0.08769305388398248    0.13946904707940888    0.21714480998912902    0.3047440238553032    0.3675053526185579    
  0.3908579936541203    0.35280324219227693    0.367505475258988    0.3528109911233038    0.30474198834343075    
  0.2300625584934909    0.1549619899593699    0.09920289958823722    0.06538408131096662    0.04840493757025581    
  0.04335164776796923    0.04840508137194744    0.06538384310671856    0.09920243245582042    0.15496209262777857    
  0.23006435467210906    0.3047440590201763    0.35280324219227693    0.2730182472244574    0.30474551029796537    
  0.3047420092351576    0.2730152876103213    0.2171459264548905    0.1549639035064485    0.10363502419474456    
  0.06917499120862262    0.04961321550918017    0.04110064702023488    0.04110065129847426    0.04961322658538156    
  0.06917549784369073    0.10363537511380201    0.1549620998491481    0.2171447996143533    0.2730182472244574    
  0.18302534590807332    0.2171457337898445    0.23006254707747203    0.21714593684154027    0.18302776131156498    
  0.13946798282953443    0.09920106806527934    0.06917614797933803    0.050105208996499694    0.040084294571103594    
  0.03703457080845895    0.04008411670221869    0.050105151574729445    0.0691754901530812    0.09920241091535592    
  0.139469050762268    0.18302534590807332    0.1143800563693506    0.1394681321114375    0.1549619572393591    
  0.1549638961312325    0.13946795452295443    0.1143778628240864    0.08769454138791999    0.0653840640765516    
  0.04961311424812533    0.04008388739033993    0.03574375920770959    0.03574402299937435    0.040084118183863114    
  0.04961321497729115    0.06538382246406409    0.08769308222956626    0.1143800563693506    0.07310114645272892    
  0.08769351316863293    0.09920290806295806    0.10363502646864531    0.09920108249058998    0.08769454767930099    
  0.0731017881802621    0.05926118211925221    0.04840482492446609    0.04110056776479583    0.03703505708807607    
  0.035743757456117006    0.037034579893242305    0.041100662244804416    0.04840507471745849    0.05926171749193885    
  0.07310114645272892    0.05273368640939865    0.0592610952167242    0.06538406167359062    0.06917501558990656    
  0.06917616047063406    0.06538407053785518    0.05926117599566578    0.052732989820172015    0.04721378502622543    
  0.04335203562534707    0.041100576313575804    0.040083899838008676    0.040084306713033487    0.04110066152255346    
  0.04335165092648998    0.047213550505393165    0.05273368640939865    0.04673729533757538    0.047214232079890894    
  0.04840492911606202    0.04961320828464519    0.05010520335820606    0.04961312920099419    0.04840482806145802    
  0.04721378445418098    0.04673824577050254    0.04721378426365077    0.048404840051023704    0.04961311360719199    
  0.05010521330980472    0.049613223972610324    0.048404928409357596    0.04721424087830713    0.04673729533757538    
  0.052733689868343384    0.047213544655692066    0.04335165999396302    0.041100669503063306    0.04008429414372672    
  0.0400839040248768    0.04110056924205187    0.04335205537370221    0.04721379225405008    0.05273297271832956    
  0.05926117283911086    0.06538405295860214    0.06917616031643611    0.06917499563296034    0.06538406430441727    
  0.05926108832572471    0.052733689868343384    0.07310115579188077    0.05926172588904614    0.048405077616307426    
  0.04110065316238978    0.0370345679993667    0.035743760003957396    0.03703505234937915    0.041100574798084065    
  0.04840483209477117    0.05926118284630307    0.07310178840329563    0.08769454712738631    0.09920106857139539    
  0.1036350258355042    0.09920290766983676    0.08769351033531486    0.07310115579188077    0.11438007608440239    
  0.08769306756909755    0.06538382127956832    0.04961322545756505    0.040084115207163824    0.03574403906688024    
  0.03574376611981442    0.040083893023931984    0.04961311407817007    0.06538405721420143    0.08769454238133356    
  0.11437788454144598    0.13946795919500268    0.15496388976747233    0.15496194251222742    0.1394681311658232    
  0.11438007608440239    0.18302536485778262    0.13946905547106545    0.09920242621271838    0.0691755052411494    
  0.0501051356264735    0.040084110499967296    0.037034564504817846    0.04008429984968547    0.05010521545280106    
  0.06917616088692564    0.09920106941571594    0.1394679418574229    0.18302780299711913    0.21714590695369165    
  0.23006253771399438    0.2171457848587569    0.18302536485778262    0.273018262745794    0.21714478387153502    
  0.15496210717881556    0.1036353632116588    0.06917549197898444    0.04961321843026028    0.0411006511603337    
  0.04110066593063171    0.04961321184196766    0.06917499039166591    0.10363503525247851    0.15496388237946748    
  0.21714597062748736    0.27301527813091253    0.30474198539461483    0.30474550678714624    0.273018262745794    
  0.3528032263392006    0.30474404502746283    0.23006434089885994    0.1549621015365315    0.09920242265698223    
  0.06538383327518116    0.04840507349736519    0.04335165734704306    0.04840493553786685    0.06538405562841597    
  0.09920292459924972    0.1549619760814685    0.23006256049864807    0.3047420093046978    0.3528109837991523    
  0.36750546687220226    0.3528032263392006    0.39085802469245706    0.3675053290258612    0.30474404386419524    
  0.21714480008740017    0.13946902449520757    0.0876930697255322    0.05926171224240395    0.047213547431514756    
  0.04721421916412797    0.05926108308101361    0.08769350439711038    0.13946813761858742    0.21714572222239095    
  0.3047454621472851    0.36750541523216107    0.3908510756968799    0.39085802469245706    0.39768902818286594    
  0.3908580428386815    0.3528032197019119    0.27301830194943344    0.18302538434642823    0.11438007422167906    
  0.0731011267637348    0.052733705709275984    0.04673729958153307    0.05273369310925434    0.07310112026306935    
  0.11438007121698511    0.18302538878797614    0.2730183349502921    0.3528031927915259    0.3908580767761476    
  0.39768902818286594    0.28659313400471575    0.2709093596646355    0.2281232761732964    0.1715097705071367    
  0.11837083149430486    0.07908260029628958    0.05465554821256943    0.042075487828766474    0.038287994569385995    
  0.04207548007386551    0.054655543089275456    0.07908259028650669    0.11837083372894033    0.17150982248290803    
  0.22812325670793765    0.2709093793255798    0.28659313400471575    0.270909329278842    0.2709073099840319    
  0.24168157512841312    0.19211427871166997    0.138053063567126    0.09353112331773523    0.06342588330301958    
  0.04615492071794374    0.0385801170464561    0.03857958159964761    0.046155200185865636    0.06342552682263934    
  0.09353149211866671    0.1380526578512424    0.19211460543137537    0.24168032916610585    0.270909329278842    
  0.22812327767972157    0.24168160384293963    0.22812436652061846    0.1921133150761403    0.14565653523201275    
  0.1023941839148865    0.07020983462675996    0.04993130100797474    0.03931852039441576    0.0360857448491733    
  0.03931874504630884    0.04993140570314893    0.07020966037026909    0.1023943492241376    0.14565622718482876    
  0.19211463476550683    0.22812327767972157    0.1715097593603146    0.19211425058154186    0.19211333881402395    
  0.17151010081369691    0.13805303395166205    0.10239442364479769    0.07278468425666615    0.05222991889671929    
  0.040069878245039596    0.03460518289158261    0.03460531548969508    0.04006949042466736    0.05223009868565061    
  0.07278458268055195    0.10239436156848736    0.13805267752922518    0.1715097593603146    0.11837081307478996    
  0.13805304351112768    0.14565651082204525    0.1380530396978715    0.11837088238081879    0.09353105860624722    
  0.0702096093037039    0.0522299389586431    0.04037472105714623    0.033928251713651825    0.031922136288992806    
  0.033928310531539635    0.04037475914467506    0.05223009683319946    0.07020964678118237    0.09353150945918456    
  0.11837081307478996    0.07908257915732705    0.0935311097761555    0.10239414896054636    0.10239441913609483    
  0.09353104420134885    0.07908238697210719    0.06342621216902457    0.049931180791327016    0.040070186841619115    
  0.0339276944746624    0.03105543048212679    0.031054976567989268    0.03392830741884    0.040069485823487544    