#     DFTpy    
  CRYSTAL 
    
  PRIMVEC    
  1.4522801602729127    -2.515423024416957    0.0    
  1.4522801602729127    2.515423024416957    0.0    
  0.0    0.0    4.910279618344827    
  PRIMCOORD    
  2    1    
  Si    1.4522801602729127    0.838474341472319    1.2275699045862065    
  Si    1.452280160272913    -0.838474341472319    3.682709713758619    
  BEGIN_BLOCK_DATAGRID_3D    
  3d_datagrid_density    
  BEGIN_DATAGRID_3D#0    
  13    13    21    
  0.0    0.0    0.0    
  1.4522801602729127    -2.515423024416957    0.0    
  1.4522801602729127    2.515423024416957    0.0    
  0.0    0.0    4.910279618344827    
  0.08929967076928336    0.09438718737679677    0.10939908336583701    0.13309606203836738    0.16069866534227772    
  0.1836279280540138    0.19277964162090636    0.18362793942150163    0.16069870349275692    0.13309604808958145    
  0.10939908640704482    0.09438720589850029    0.08929967076928336    0.0943871735617133    0.09438679850775514    
  0.10443258721441766    0.12394863437592987    0.15022735463855888    0.1763245906835338    0.19307284616198356    
  0.19307121264469373    0.17632407190534236    0.15022799952293137    0.12394865895700237    0.10443255780639894    
  0.0943871735617133    0.10939908198749866    0.1044325722489822    0.10939930634953492    0.12394896122687941    
  0.14655178678070252    0.17252923401182102    0.19381404259490842    0.20216201880946644    0.19381639367420617    
  0.1725284894652884    0.14655146489632262    0.12394867203185567    0.10939908198749866    0.1330960588080237    
  0.12394863775532458    0.12394898566005927    0.13309529759861985    0.15022752504764203    0.17252850712842321    
  0.1942630173611621    0.20783376344844365    0.2078321090729719    0.19426260085543667    0.17252850790578472    
  0.15022803540043683    0.1330960588080237    0.16069865961670543    0.15022733316558404    0.14655176655154534    
  0.15022752985897278    0.1606997861009717    0.17632367562738135    0.1938158282244238    0.2078321500582638    
  0.21317287149583813    0.20783209385216567    0.19381636440949332    0.17632409984307962    0.16069865961670543    
  0.1836279364177559    0.1763245481473065    0.1725292394278553    0.17252847047341494    0.1763236378522119    
  0.18362802173489312    0.19307199911806144    0.2021619406791538    0.20783212275742047    0.20783376745849327    
  0.2021620144624164    0.19307122220982395    0.1836279364177559    0.1927796864655825    0.19307284297175223    
  0.19381406456567807    0.19426303381513824    0.19381581741100748    0.19307203616408386    0.1927793062541851    
  0.19307200746792247    0.19381585337507407    0.1942630319367301    0.1938140201091147    0.19307281921231784    
  0.1927796864655825    0.18362792225139943    0.19307120959414462    0.20216203208037817    0.20783376217514857    
  0.20783209154811244    0.2021620060773105    0.19307196923596118    0.18362798472183492    0.17632364190164732    
  0.172528514628264    0.17252925802286917    0.17632459825393387    0.18362792225139943    0.16069865280341303    
  0.17632409172362842    0.19381637564362977    0.20783208305215714    0.21317284559661023    0.20783213117204116    
  0.19381581967466    0.1763236146300028    0.16069982987566162    0.15022752354921026    0.14655177928242633    
  0.15022730330079742    0.16069865280341303    0.13309606453019723    0.15022800083716498    0.17252850946918616    
  0.194262564861252    0.20783207468574913    0.20783378949911444    0.19426304869150463    0.17252847326536355    
  0.15022752706310036    0.13309532082731887    0.12394898811492248    0.12394864914250575    0.13309606453019723    
  0.1093990690922268    0.12394864800791122    0.1465514735288083    0.1725284877939563    0.19381634881751636    
  0.2021620306906582    0.19381401157700492    0.17252924285294394    0.14655178835468735    0.12394896421711987    
  0.1093992814352167    0.10443257992095141    0.1093990690922268    0.09438717963694372    0.10443254726767834    
  0.12394866479364146    0.15022800306506984    0.1763240837139302    0.1930712466184117    0.19307282487779134    
  0.17632454315002458    0.15022732677040196    0.12394862079193969    0.10443257307191739    0.09438681351119223    
  0.09438717963694372    0.08929967076928336    0.09438718737679677    0.10939908336583701    0.13309606203836738    
  0.16069866534227772    0.1836279280540138    0.19277964162090636    0.18362793942150163    0.16069870349275692    
  0.13309604808958145    0.10939908640704482    0.09438720589850029    0.08929967076928336    0.0951074946760045    
  0.1007966233907122    0.11746907355039626    0.1436300671952684    0.17414881053395895    0.19944497507741285    
  0.20944631985927212    0.19944454014057983    0.17414948184077858    0.1436298466089749    0.11746722464370533    
  0.10079683083786302    0.0951074946760045    0.1007968198394186    0.10079560786069813    0.10918912214888774    
  0.12546670326863488    0.1471599953050336    0.16845315227579608    0.18202105992538525    0.18202071384673912    
  0.1684516240150654    0.14716042192988413    0.12546870237909755    0.10918863657026724    0.1007968198394186    
  0.11746721064217762    0.11481684317495285    0.11746867163745939    0.12546750794342085    0.1380111694540703    
  0.15215395087386402    0.16361541565359314    0.1681301640244296    0.16361708830755503    0.15215505990090894    
  0.13800774929371615    0.125468700423781    0.11746721064217762    0.14362983990621858    0.14200512345334285    
  0.14200338920364572    0.14363022965062747    0.1471598846421637    0.15215302451387214    0.15722357448767554    
  0.1604768881832182    0.16047633641493236    0.15722176243459174    0.15215508866593988    0.14716049008576157    
  0.14362983990621858    0.17414947125590877    0.17889973254927183    0.18077396456073347    0.17890004423569078    
  0.17414999487353586    0.1684516581712634    0.16361772929643836    0.16047595573545465    0.1593473818899602    
  0.16047630975374352    0.16361706126153272    0.16845163632257126    0.17414947125590877    0.19944455088902366    
  0.21590501969133244    0.22604989611403453    0.22605209432092568    0.21590296337692788    0.1994453096583536    
  0.18202142080065056    0.16812871098477963    0.16047596158878522    0.16047689804065088    0.1681301529162422    
  0.1820206639328205    0.19944455088902366    0.20944636399113528    0.23943819316715378    0.26283222821201807    
  0.2716398807979214    0.2628312716664811    0.23943892811372655    0.20944413091864383    0.1820214250531545    
  0.16361774244508182    0.15722358331983277    0.16361543913316096    0.18202106564134807    0.20944636399113528    
  0.1994449411815022    0.23943769636352355    0.2768623933557292    0.2987981726373311    0.2987975916875022    
  0.27686320016755833    0.23943888683780434    0.19944525669045987    0.16845161063872968    0.15215301498830405    
  0.15215396341287254    0.16845313955027727    0.1994449411815022    0.17414880205438035    0.2159032617783803    
  0.26283387704608335    0.29879760220403967    0.3117004072978927    0.29879762397939896    0.2628312711975345    
  0.21590292934649508    0.17415006378329348    0.14715987783535223    0.13801116999145288    0.14715999924486742    
  0.17414880205438035    0.14363009054970569    0.1789011959152051    0.22605086395073917    0.27163802284974325    
  0.2987976164130118    0.2987981983694122    0.27163987934568373    0.22605210627658748    0.17890005508054205    
  0.1436302676465117    0.12546751646505747    0.12546673048111495    0.14363009054970569    0.11746904280785006    
  0.1420043004229648    0.180772764180832    0.22605082793836148    0.2628338779711677    0.27686240925721023    
  0.2628321822712248    0.226049878272925    0.1807739823735984    0.14200335340888215    0.11746865738914669    
  0.10918911075123347    0.11746904280785006    0.10079659292435902    0.11481530359041373    0.14200431146778733    
  0.17890121378355758    0.2159032727704775    0.239437706544683    0.23943817603441833    0.21590502541606696    
  0.1788997601226239    0.14200510959290757    0.11481682907022862    0.10079562779326437    0.10079659292435902    
  0.0951074946760045    0.1007966233907122    0.11746907355039626    0.1436300671952684    0.17414881053395895    
  0.19944497507741285    0.20944631985927212    0.19944454014057983    0.17414948184077858    0.1436298466089749    
  0.11746722464370533    0.10079683083786302    0.0951074946760045    0.11153827553432967    0.11886996504502054    
  0.14036064024853878    0.17382719615066036    0.21254717497566938    0.24401225627718917    0.25606763487898815    
  0.24401153723730326    0.2125517333627354    0.17382593486129178    0.14035852327458645    0.11887004975854416    
  0.11153827553432967    0.11887002963602918    0.11887074012666937    0.12769699620995437    0.14422421351997142    
  0.16568254261701468    0.1865712876462442    0.19971709874175256    0.19971755428279783    0.1865715016075441    
  0.16567926075369416    0.14422629292669975    0.1276978555861803    0.11887002963602918    0.14035851440381722    
  0.1390962959218055    0.14035866936943567    0.14422728274776425    0.1503149234501305    0.1572874431052863    
  0.16306890829963921    0.16535644272599542    0.1630688943759468    0.1572863402950312    0.1503167572755731    
  0.1442262726261853    0.14035851440381722    0.17382591083652282    0.17899502649372145    0.17899430723340576    
  0.17382597052246715    0.16568198727478492    0.15728455877129083    0.1508038988580701    0.14727182304987643    
  0.1472708460604512    0.15080504947829163    0.15728636500493665    0.16567929402553327    0.17382591083652282    
  0.21255172884441648    0.23275232457370837    0.240282802925824    0.23275242524009201    0.21254784710698116    
  0.18657280422244207    0.16307093383578017    0.14727094299924923    0.14167811331829236    0.14727082215162487    
  0.1630688917730621    0.18657150827302682    0.21255172884441648    0.24401153774062342    0.2843907544637845    
  0.30685473474395775    0.30685648279540745    0.2843960882648322    0.24401016677621673    0.19971654657491833    
  0.1653553442978006    0.14727093639312006    0.14727180714032512    0.16535645417213835    0.19971754269876182    
  0.24401153774062342    0.25606767254919144    0.31477676278391215    0.35214499556526824    0.3627611367426861    
  0.35213578466716944    0.3147776839689395    0.2560692225830403    0.19971654953157505    0.1630709375435793    
  0.15080390186556292    0.1630689126078872    0.19971713499283233    0.25606767254919144    0.24401222141794737    
  0.31477729115219055    0.36614660068151966    0.38250902619244087    0.3825176158328821    0.36614465991579687    
  0.3147776191311676    0.24401015646294016    0.18657273106956648    0.15728455966681526    0.15728744432799707    
  0.18657124674634232    0.24401222141794737    0.21254717597575784    0.284396230942676    0.3521367854945046    
  0.3825170846950121    0.3857188042730139    0.38251764164900426    0.3521358043916884    0.2843961070433934    
  0.21254783515804335    0.16568202548900016    0.15031489407969023    0.16568251390277175    0.21254717597575784    
  0.17382719807537655    0.2327516508339604    0.3068550500322999    0.3627597502407789    0.3825170984074279    
  0.38250906325069395    0.3627611108675952    0.3068564540466401    0.23275243022244743    0.1738259948514845    
  0.144227308473296    0.14422425967342004    0.17382719807537655    0.14036062076582342    0.17899350549483448    
  0.2402848938748325    0.3068550596307101    0.35213675351244805    0.36614662137423853    0.3521449877961082    
  0.3068547157089226    0.24028281766128107    0.1789942509343644    0.14035863518442646    0.12769698154600898    
  0.14036062076582342    0.11886996085372564    0.1390955183461966    0.17899347931228318    0.23275165232616388    
  0.2843962199275639    0.3147773324684937    0.31477672268770956    0.2843907334854002    0.23275234370522024    
  0.17899502232715453    0.13909629169806273    0.11887074113486154    0.11886996085372564    0.11153827553432967    
  0.11886996504502054    0.14036064024853878    0.17382719615066036    0.21254717497566938    0.24401225627718917    
  0.25606763487898815    0.24401153723730326    0.2125517333627354    0.17382593486129178    0.14035852327458645    
  0.11887004975854416    0.11153827553432967    0.13489508880962578    0.1443772777747491    0.17250166526547983    
  0.21605093219997937    0.26455907414446594    0.3012169370777191    0.31416348744931816    0.3012095050640651    
  0.26460402368249025    0.21604247403941895    0.17248968569588854    0.1443775424801745    0.13489508880962578    
  0.1443775524271094    0.1443796558903062    0.15457629930413916    0.1733821064945289    0.1973983930625608    
  0.2203463188740144    0.23442446698700561    0.23444572161232588    0.2203488712386444    0.19736241320617937    
  0.17338719751005338    0.15458898469666665    0.1443775524271094    0.1724896851117451    0.17223572565968728    
  0.1725020902296193    0.17339229436437203    0.17510806183528943    0.17766600319430456    0.1800203819208273    
  0.1809308120339285    0.18000551302294174    0.17766145463743493    0.17514212309575253    0.17338715675061134    
  0.1724896851117451    0.216042477365488    0.2274893572754081    0.22747080870979028    0.21603993154117787    
  0.19739830907584918    0.1776563192296325    0.16204419819290378    0.1534265963768564    0.1534255081019274    
  0.16205793045508443    0.17766147008285546    0.19736246289349244    0.216042477365488    0.26460399175978144    
  0.297443992724163    0.30897004977508336    0.29745127848473646    0.26455838152098676    0.22035758042060738    
  0.18001906544087096    0.1534249566581584    0.14427217081116459    0.15342550006298772    0.18000551959706004    
  0.22034887932142888    0.26460399175978144    0.3012095088190695    0.3526391641123946    0.3721721736226401    
  0.3721982883782945    0.35268714570398907    0.3012045075355296    0.23442643137256014    0.180933766670541    
  0.15342494769549903    0.15342659609534762    0.1809308410748423    0.23444568403016194    0.3012095088190695    
  0.3141635383775987    0.3749412397503649    0.38001130505775316    0.36850325593787037    0.37992005249866123    
  0.37496219298194916    0.31417788630813404    0.23442643913469227    0.18001910020021647    0.1620442036955929    
  0.1800204127474505    0.23442450789552538    0.3141635383775987    0.30121690253430605    0.37496936399004754    
  0.36988965745853825    0.3196734207862178    0.31975745900648184    0.36987459758527974    0.37496215549446676    
  0.301204496022937    0.2203575485346434    0.17765630867422794    0.17766602584393845    0.22034629722920665    
  0.30121690253430605    0.2645590372774134    0.35268703253694245    0.37991834056872403    0.3197578469161148    
  0.2790156984969911    0.3197575031304686    0.37992010184915576    0.3526871512219587    0.2645583896499502    
  0.19739836862209376    0.17510802427227296    0.19739835657235555    0.2645590372774134    0.21605093027316874    
  0.2974377862338788    0.37219394520380567    0.3684883979171359    0.3197578532463715    0.31967345608956826    
  0.3685032638707305    0.3721982437085791    0.29745132225708776    0.21603993093157522    0.17339229953722574    
  0.17338215992450248    0.21605093027316874    0.17250166081061036    0.2274725712080392    0.3089828482794208    
  0.3721939007783895    0.3799183620965804    0.3698896916229305    0.38001125133263464    0.37217212592661975    
  0.30897011133383695    0.22747072366021331    0.17250204089724874    0.1545763024938336    0.17250166081061036    
  0.1443772661278517    0.17223819077629787    0.22747253956853797    0.29743775848959675    0.3526870106529134    
  0.3749694024087152    0.3749412151826396    0.3526391527369446    0.29744401012741667    0.22748931720884347    
  0.1722357184077559    0.1443796383124288    0.1443772661278517    0.13489508880962578    0.1443772777747491    
  0.17250166526547983    0.21605093219997937    0.26455907414446594    0.3012169370777191    0.31416348744931816    
  0.3012095050640651    0.26460402368249025    0.21604247403941895    0.17248968569588854    0.1443775424801745    
  0.13489508880962578    0.15626586549199373    0.16775947005043385    0.20196020525504127    0.25393704818701146    
  0.30818058362881545    0.3440518181889298    0.3547570837756604    0.344018804965268    0.3083067223811659    
  0.2539203138233601    0.20191100423142963    0.1677654067641435    0.15626586549199373    0.16776541245779877    
  0.16777466238328487    0.17932462369392038    0.20075275130232598    0.22774220365111006    0.25253608420853274    
  0.2672188740670948    0.2672870485722403    0.25255140887433536    0.2276372293614829    0.20076465545226235    
  0.17937400070280157    0.16776541245779877    0.20191099774746266    0.20242077232401465    0.20196022168925387    
  0.20078106526132863    0.19973048880904393    0.1995922832625927    0.1998391725516164    0.1999327630121496    
  0.19979102054390052    0.19957591821221843    0.19983186447945833    0.20076465510387448    0.20191099774746266    
  0.25392027398285527    0.26965509585313435    0.26958579648103426    0.2539049789763511    0.2277423145885709    
  0.19956396219170341    0.1773427286989469    0.1653982013850306    0.16538910720775804    0.17739105222026352    
  0.19957593384601968    0.22763730987685518    0.25392027398285527    0.3083067005789531    0.34551094895616485    
  0.3569213429771069    0.34554412425885345    0.30818003835977226    0.25256845620278157    0.19983902970602965    
  0.16538317215564446    0.15383857805817394    0.16538910014422376    0.1997909727561168    0.25255135180668775    
  0.3083067005789531    0.34401876929369524    0.3835744056309156    0.3804016813487976    0.3804764642778669    
  0.38368764071353967    0.34402270411226704    0.2672113266276545    0.1999561748082636    0.16538316555438837    
  0.1653982068330261    0.19993278337300655    0.26728700109242937    0.34401876929369524    0.3547570785583965    
  0.37931541975215693    0.316137219592207    0.2743606722614194    0.31593978786468263    0.37934950596572337    
  0.35482329526703626    0.26721134064231156    0.1998390485150622    0.17734274674999845    0.199839195502177    
  0.26721886739196243    0.3547570785583965    0.34405181215165564    0.3793893342940941    0.2740318165383772    
  0.1669874054162724    0.1671084318777168    0.27402983017813204    0.37934952089325114    0.3440226591419855    
  0.2525684022031483    0.19956394468629857    0.19959229232646816    0.2525360826056254    0.34405181215165564    
  0.30818054920406174    0.3836870139161466    0.31594083164578196    0.16710849951212203    0.11015123707208702    
  0.1671084265937403    0.3159397428569259    0.38368763295955494    0.30818009780164485    0.22774234403727303    
  0.19973050513546733    0.2277422169645566    0.30818054920406174    0.2539370437912327    0.3455148378714451    
  0.3804362614404864    0.2743572542345559    0.1671084812885452    0.16698743451555886    0.2743606939102985    
  0.38047643164282685    0.3455441650881909    0.2539050216248276    0.2007810734035854    0.20075279797838733    
  0.2539370437912327    0.2019601566448432    0.2695784332234508    0.3569881816278394    0.38043619093584263    
  0.3159408167705095    0.27403180617163286    0.31613710728484246    0.3804016490823086    0.35692137391919526    
  0.26958577780840576    0.20196020677967128    0.17932461548254885    0.2019601566448432    0.16775944644056887    
  0.20244412941157255    0.2695784344796529    0.3455148421041983    0.38368702099541085    0.3793893443179171    
  0.37931541284999787    0.38357436263591205    0.3455109721653235    0.26965505810804224    0.20242074479837618    
  0.1677747064269663    0.16775944644056887    0.15626586549199373    0.16775947005043385    0.20196020525504127    
  0.25393704818701146    0.30818058362881545    0.3440518181889298    0.3547570837756604    0.344018804965268    
  0.3083067223811659    0.2539203138233601    0.20191100423142963    0.1677654067641435    0.15626586549199373    
  0.16482909360287354    0.17725064891245598    0.2140915858100926    0.2692883369948264    0.3248057570210247    
  0.35854738851547296    0.3673967983791091    0.3584982099116351    0.3249613775840957    0.26927393451939524    
  0.21401961553946772    0.1772616795537419    0.16482909360287354    0.17726164978689724    0.17727666122629854    
  0.18952267192743583    0.21221872935106267    0.240411652448964    0.26569085472619186    0.28038573977615344    
  0.280482079021991    0.26571330754417555    0.24028000395464932    0.21222922380361808    0.18959468948431238    
  0.17726164978689724    0.21401961048578305    0.2147499749355676    0.21409113624795487    0.21224930960474525    
  0.21020092346056718    0.20892087278873767    0.20829042693570124    0.20807915968508078    0.2082215960025914    
  0.20889999488863675    0.21032981129263895    0.21222924929414216    0.21401961048578305    0.2692739675684336    
  0.28627086239330796    0.2861715533616993    0.2692516229068934    0.2404117443582345    0.20888923929165162    
  0.1840285243990686    0.1709059565796349    0.17089091323487685    0.18409908593566596    0.20890000681397847    
  0.24027999897262167    0.2692739675684336    0.3249613176898651    0.36166086034009914    0.37174023057162847    
  0.36171050785128056    0.32480668532476104    0.26572737980819905    0.2082919327235333    0.17088077611591512    
  0.15851828352418598    0.17089091302264509    0.2082215737676434    0.26571330622995365    0.3249613176898651    
  0.3584981880891344    0.3869678573777064    0.3697354150787678    0.36982841179936854    0.3870914377887637    
  0.3585196483241209    0.28036800998896977    0.20811841613682153    0.17088075787195503    0.17090597533922844    
  0.20807914766492316    0.2804820617373942    0.3584981880891344    0.3673968770368498    0.36771891037644094    
  0.2736241390817599    0.22241024570101683    0.2734176023491117    0.36774012777840215    0.36750252498140595    
  0.280368023335995    0.2082919779633393    0.18402852406483652    0.2082904202321506    0.28038572179317817    
  0.3673968770368498    0.358547379273667    0.36781147305883266    0.22173004140121508    0.1086346519644955    
  0.10872655836737163    0.22175248550937465    0.367740050080322    0.358519600258897    0.2657273522220514    
  0.2088892767505582    0.20892090031460273    0.26569085502427675    0.358547379273667    0.3248057545961902    
  0.3870920532381327    0.27341800292315177    0.10872613735664764    0.05898970863939414    0.10872654617313124    
  0.27341760514703506    0.38709135470696693    0.3248067424273863    0.2404117365627503    0.21020091360973286    
  0.24041160294590175    0.3248057545961902    0.26928836082013785    0.3616841360342603    0.36975425750831326    
  0.22243434309078783    0.10872614784988702    0.10863466633069913    0.2224102517738929    0.36982840783033877    
  0.3617104928402886    0.26925164430039333    0.21224937297591226    0.21221875843191956    0.26928836082013785    
  0.21409157280324495    0.2861529193470625    0.37184820160363474    0.36975419101594587    0.2734179861809696    
  0.22173004972560167    0.27362407526232885    0.36973540696666474    0.3717402754961969    0.2861715018930298    
  0.2140911085165932    0.18952264934759452    0.21409157280324495    0.1772506362513856    0.21479194115121406    
  0.2861529284098386    0.36168416393465885    0.38709204680926035    0.3678114907916239    0.36771885246464286    
  0.38696782093119586    0.3616608711465403    0.2862707925476481    0.21474997169367763    0.17727667311000106    
  0.1772506362513856    0.16482909360287354    0.17725064891245598    0.2140915858100926    0.2692883369948264    
  0.3248057570210247    0.35854738851547296    0.3673967983791091    0.3584982099116351    0.3249613775840957    
  0.26927393451939524    0.21401961553946772    0.1772616795537419    0.16482909360287354    0.156265861598256    
  0.16775947879561778    0.201960199399433    0.25393702152176806    0.30818057041558156    0.3440518435997076    
  0.3547570654425097    0.3440187823585325    0.3083067240894327    0.25392032006448284    0.2019110218629225    
  0.1677654322091382    0.156265861598256    0.16776540818481275    0.1677746743894877    0.17932462662134663    
  0.20075276709239462    0.22774219765834983    0.25253609150462786    0.2672188759844545    0.2672870219723935    
  0.25255136884850454    0.22763724421520923    0.2007646553059415    0.1793739996890162    0.16776540818481275    
  0.20191100792917668    0.20242076934518852    0.20196023015246667    0.20078106911828433    0.19973049599758652    
  0.19959228573002322    0.19983916489789488    0.19993277410396557    0.19979100712224646    0.19957590437629835    
  0.199831854136389    0.20076463763834904    0.20191100792917668    0.25392029668088884    0.26965510302351914    
  0.2695858208476303    0.25390496234519255    0.22774232691812277    0.1995639488947991    0.17734272926596578    
  0.16539822167360593    0.1653891104114648    0.1773910461389137    0.19957593958700423    0.22763729597299057    
  0.25392029668088884    0.30830671276564275    0.3455109675922477    0.3569213605833785    0.34554414939689476    
  0.30818002753064794    0.2525684677198168    0.1998390296764819    0.16538317278451287    0.15383857622358144    
  0.165389106909578    0.19979098438836115    0.2525513689310153    0.30830671276564275    0.3440187555980935    
  0.3835743669755782    0.3804017058251939    0.38047643806733755    0.3836876189454602    0.34402267106951906    
  0.2672113569738747    0.19995616128667987    0.16538317154171045    0.16539819939852984    0.1999327677252138    
  0.2672869856162401    0.3440187555980935    0.35475708915938853    0.3793154202942498    0.3161371745394076    
  0.2743606578309919    0.31593977316329064    0.3793495341254843    0.35482328637517757    0.26721134699694865    
  0.1998390540421485    0.17734273237285397    0.19983919698128075    0.26721888094298535    0.35475708915938853    
  0.34405179296115024    0.37938935077106206    0.27403180690260787    0.16698742071779557    0.16710842539243348    
  0.2740298207988457    0.3793495196612094    0.3440226319046795    0.2525683849910898    0.19956395499261592    
  0.19959228803978504    0.25253606317836835    0.34405179296115024    0.3081805641941625    0.38368701047655696    
  0.31594082392284073    0.16710848031448147    0.11015123619594283    0.1671084462267286    0.3159397782813649    
  0.38368762437917425    0.3081801057798494    0.22774232987803467    0.19973050184155597    0.22774220006865498    
  0.3081805641941625    0.2539370436811779    0.3455148404904303    0.3804362592204906    0.27435726407021926    
  0.1671084829189177    0.16698743118540826    0.27436066297806566    0.38047643796197905    0.34554413513527993    
  0.2539050074245979    0.20078105729282963    0.20075279766973203    0.2539370436811779    0.2019601757557954    
  0.2695784434976809    0.35698820106971774    0.3804361854489499    0.315940853386051    0.2740318246376139    
  0.31613709953277314    0.38040165079712174    0.3569214176536991    0.2695857579243636    0.20196019097539364    
  0.17932462116816852    0.2019601757557954    0.1677594374576004    0.20244413261843222    0.26957841199797866    
  0.34551486351384636    0.38368702889337375    0.37938934840424354    0.3793154247090218    0.3835743724225637    
  0.34551097027989497    0.26965508463422255    0.20242073272997319    0.16777469612667018    0.1677594374576004    
  0.156265861598256    0.16775947879561778    0.201960199399433    0.25393702152176806    0.30818057041558156    
  0.3440518435997076    0.3547570654425097    0.3440187823585325    0.3083067240894327    0.25392032006448284    
  0.2019110218629225    0.1677654322091382    0.156265861598256    0.1348951048427256    0.1443772794851126    
  0.1725016953896149    0.21605093706146505    0.26455907488084895    0.3012169327648738    0.31416349780377933    
  0.3012095420474169    0.2646040064546493    0.2160424934700935    0.17248970553005416    0.1443775669421864    
  0.1348951048427256    0.14437753202469517    0.14437964906808848    0.15457631541835168    0.17338210479884208    
  0.19739837255919285    0.2203463475109608    0.23442446563096028    0.23444570639106138    0.22034889744644381    
  0.19736241275180294    0.1733871913393264    0.1545889717541465    0.14437753202469517    0.17248970314614548    
  0.17223571846358926    0.1725020813168206    0.1733922892118573    0.17510804222034362    0.17766600434407806    
  0.18002038017102456    0.18093080102113188    0.18000550163602258    0.17766146127323137    0.17514211529440107    
  0.17338715407483066    0.17248970314614548    0.21604245293335742    0.22748935709239887    0.22747077783447056    
  0.21603992368443287    0.19739830248301637    0.17765631907149138    0.16204419974636933    0.15342657692167333    
  0.15342551953493666    0.16205791543467643    0.17766149243004964    0.19736245373688083    0.21604245293335742    
  0.2646039993578449    0.2974440049216591    0.30897007595260856    0.29745128628825146    0.26455837309427127    
  0.22035758207217257    0.18001909128876617    0.15342492789759363    0.14427216047541724    0.15342547714367782    
  0.1800055174537558    0.22034888393830204    0.2646039993578449    0.30120951625417136    0.35263918757571106    
  0.3721721761271978    0.37219829909113905    0.35268716850569665    0.3012045341078242    0.23442643879873382    
  0.18093376021608829    0.15342494007573607    0.15342658968668405    0.18093081642779907    0.23444569317141317    