#     DFTpy    
  CRYSTAL 
    
  PRIMVEC    
  4.2620689655172415    0.0    0.0    
  0.0    4.2620689655172415    0.0    
  0.0    0.0    4.2620689655172415    
  PRIMCOORD    
  2    1    
  Si    0.0    0.0    0.0    
  Si    2.1310344827586207    2.1310344827586207    2.1310344827586207    
  BEGIN_BLOCK_DATAGRID_3D    
  3d_datagrid_density    
  BEGIN_DATAGRID_3D#0    
  19    19    19    
  0.0    0.0    0.0    
  4.2620689655172415    0.0    0.0    
  0.0    4.2620689655172415    0.0    
  0.0    0.0    4.2620689655172415    
  0.06957396677234133    0.12256038542705257    0.29187032351974046    0.39468171160319604    0.29950749898710116    
  0.17251363999443534    0.09511967577471564    0.057185929407779945    0.04073876226894423    0.036225627811008444    
  0.04073876398343085    0.05718594525656025    0.09511967628874597    0.1725136258355034    0.29950748802801536    
  0.3946817285641702    0.2918702973354277    0.12256037199237052    0.06957396677234133    0.12256040358113661    
  0.18181485211606846    0.3337932946547382    0.38947218024916797    0.28198732075363037    0.16234169903817539    
  0.09068891343370518    0.05536262755258701    0.0399355065722146    0.035690019707897556    0.03993551221549083    
  0.05536261177817289    0.09068890070128013    0.16234166643266323    0.2819873308325303    0.38947222392408787    
  0.3337932520410219    0.1818148392389622    0.12256040358113661    0.29187032098108123    0.33379325004517113    
  0.3935860936498762    0.35064089976651547    0.23410582181337258    0.13632610101652318    0.07929238105151376    
  0.05064107912639313    0.03789354863031897    0.03434249924546966    0.037893558720843    0.05064107743612553    
  0.07929237952446527    0.13632612078195006    0.23410582206307246    0.35064090650701246    0.3935861167177578    
  0.33379326492045136    0.29187032098108123    0.3946817157640706    0.3894721580573257    0.3506408981958674    
  0.26497050841820685    0.1718505238900841    0.10458154455652052    0.06527298138442199    0.04486605042746362    
  0.03551756234138241    0.032855412332633505    0.03551757449877063    0.044866044432439946    0.06527298326374771    
  0.10458154045519741    0.17185051736422666    0.2649705220920308    0.35064094357488007    0.3894721605386731    
  0.3946817157640706    0.2995075341555494    0.28198732329672554    0.23410582464985946    0.17185051943542803    
  0.11579390925516628    0.07635486352690637    0.052588460018873365    0.03976535340184172    0.03370221320389415    
  0.03193526490724849    0.03370220473358289    0.03976535544529071    0.05258844634140518    0.07635485834444884    
  0.11579390514088206    0.17185051314014693    0.23410583813208832    0.28198730886586715    0.2995075341555494    
  0.17251364805753955    0.1623416768985113    0.1363261032575793    0.10458154634732165    0.07635484821121298    
  0.0559719339064161    0.043275687999666385    0.03625921965277976    0.03291109646431163    0.03193539724042892    
  0.032911106019493666    0.036259221650471136    0.0432756854962331    0.0559719402364089    0.07635484665637109    
  0.10458153838097514    0.13632612099974947    0.16234164374026197    0.17251364805753955    0.09511967360408524    
  0.09068889707950507    0.07929238103455757    0.06527297977353208    0.05258845843803532    0.04327568966649739    
  0.03753580455946575    0.034508945245299544    0.03319427245999903    0.032855273059263966    0.03319428290942029    
  0.0345089411863386    0.03753579740565609    0.043275691243987856    0.052588451526250385    0.06527298730335507    
  0.0792923947651367    0.09068890018740337    0.09511967360408524    0.057185945518279845    0.0553626217859674    
  0.05064107604893286    0.04486604561186349    0.03976534146409401    0.03625922310970784    0.034508948770141275    
  0.034044156071029466    0.034193442800687264    0.034342650305875244    0.03419342789863115    0.034044173102880784    
  0.03450892261047558    0.036259227806111294    0.03976534024131202    0.044866053783856295    0.05064108129656436    
  0.05536261246017494    0.057185945518279845    0.04073876961409588    0.039935506939251145    0.03789354977809038    
  0.03551757686209013    0.03370220684262714    0.03291110019261639    0.03319427012804997    0.03419343684910191    
  0.03524393818220404    0.035689873061420664    0.03524394081158033    0.034193436389699114    0.03319428073720382    
  0.03291109241305194    0.03370219726712434    0.03551756929713911    0.037893556234391425    0.0399354951463892    
  0.04073876961409588    0.03622563311897299    0.035690011488424    0.03434250269877198    0.032855413801072916    
  0.03193525674371655    0.03193540005624752    0.032855266206284435    0.03434265050017386    0.035689873496253965    
  0.03622576747775362    0.03568987570667064    0.03434265614408892    0.032855268395398964    0.031935412673956595    
  0.03193525617683346    0.03285541224168773    0.03434250944070922    0.03569001648205431    0.03622563311897299    
  0.04073877160362979    0.03993549676275501    0.03789355240679189    0.03551756731711457    0.03370220128382221    
  0.03291111013046183    0.033194287450007624    0.03419342355685803    0.035243938307742445    0.03568987157263042    
  0.035243944746054946    0.0341934343859232    0.03319428204885386    0.03291110388578311    0.03370220564468427    
  0.03551757252680563    0.03789355866346931    0.039935496026171226    0.04073877160362979    0.05718595524895731    
  0.05536262869299801    0.05064106938660798    0.04486605147000518    0.0397653412585023    0.03625922290207678    
  0.034508949453521884    0.03404416525308861    0.034193435773186766    0.03434264819968377    0.034193436896628245    
  0.034044159860938256    0.03450893316934971    0.03625922155291972    0.039765343385418685    0.04486604554878832    
  0.05064107515422121    0.055362617170952914    0.05718595524895731    0.09511968150839793    0.0906888932290319    
  0.07929236903937587    0.06527298772190167    0.052588457923386546    0.04327568905206423    0.037535797908873424    
  0.03450893237948738    0.03319427191473391    0.032855265781673214    0.03319428347153368    0.03450894151436399    
  0.03753580729089035    0.0432756846142506    0.05258845822027224    0.06527299299250222    0.07929238262722618    
  0.09068889975660141    0.09511968150839793    0.17251363779768894    0.1623416651731868    0.1363261015101138    
  0.1045815461495296    0.07635484591691816    0.05597193208620199    0.043275694366697544    0.03625922685515099    
  0.03291109918549106    0.031935406734191416    0.03291110184010961    0.03625922608928929    0.04327567585480565    
  0.05597193823549851    0.07635485102276947    0.10458153630608484    0.1363261152987859    0.16234167273795647    
  0.17251363779768894    0.29950752626616906    0.28198734551287574    0.23410581760399915    0.1718505290378068    
  0.11579392243062865    0.07635486792511402    0.05258846069446307    0.039765339297140594    0.0337022031129069    
  0.03193525907909308    0.03370220291345559    0.0397653530025508    0.052588445594392366    0.0763548619282525    
  0.11579391751855941    0.17185052341777543    0.23410583405820284    0.2819872945084045    0.29950752626616906    
  0.3946816966245968    0.38947213418381366    0.3506409168045083    0.26497050415997786    0.17185051064714213    
  0.10458154305225524    0.06527298363386934    0.044866051672040226    0.03551755795423697    0.032855415049033436    
  0.03551757877995508    0.04486603789529186    0.06527299032085217    0.10458154361262502    0.171850518629781    
  0.2649705205299141    0.35064096467552924    0.38947214301746097    0.3946816966245968    0.29187030384932544    
  0.33379326985468677    0.39358610995939447    0.3506408919063873    0.23410579140058438    0.1363261166084589    
  0.0792923831863332    0.05064107840980141    0.037893560844879534    0.034342502081517644    0.03789355129451917    
  0.05064107621054668    0.0792923681545363    0.13632611433916278    0.23410580680074655    0.3506409265038112    
  0.39358611099090685    0.33379323895514496    0.29187030384932544    0.12256039055924084    0.18181489187398178    
  0.3337932738038194    0.38947220295776624    0.28198730564206254    0.16234168579660882    0.09068890507833624    
  0.05536261451565088    0.03993550875907477    0.03569002504031822    0.039935502993285285    0.05536263331789674    
  0.09068890674145343    0.1623416742934323    0.2819873325186421    0.3894722261592479    0.33379326030716866    
  0.18181484717786364    0.12256039055924084    0.06957396677234133    0.12256038542705257    0.29187032351974046    
  0.39468171160319604    0.29950749898710116    0.17251363999443534    0.09511967577471564    0.057185929407779945    
  0.04073876226894423    0.036225627811008444    0.04073876398343085    0.05718594525656025    0.09511967628874597    
  0.1725136258355034    0.29950748802801536    0.3946817285641702    0.2918702973354277    0.12256037199237052    
  0.06957396677234133    0.1225604074107754    0.18181485550177673    0.3337932852960471    0.38947219854372694    
  0.2819873374992987    0.1623416759382957    0.0906889214626201    0.05536262260461119    0.039935501926764067    
  0.03569002352770098    0.03993550183466948    0.055362630740105015    0.09068890021142863    0.1623416733555012    
  0.2819873421142051    0.38947221696626927    0.33379330203546037    0.18181486634478242    0.1225604074107754    
  0.18181489002475276    0.2400963917275502    0.364217492684376    0.37940882792174263    0.26523797882026207    
  0.15303934845771006    0.08666349697400073    0.05373003074073155    0.039246725306094736    0.035243790821043126    
  0.03924672942169542    0.053730018949116234    0.08666347675878232    0.15303932872706086    0.26523798473511484    
  0.3794088819991286    0.3642174615527123    0.2400963703393713    0.18181489002475276    0.33379331455770206    
  0.3642174602657325    0.3945643625925161    0.33364599029319586    0.22002667046694804    0.1291571493494141    
  0.07628341021672401    0.04953745473879604    0.03754948961154548    0.03419357850419544    0.037549495678779396    
  0.0495374519904561    0.07628339865362943    0.12915715069740868    0.22002666382283317    0.33364598454581745    
  0.39456435227503467    0.3642174776940023    0.33379331455770206    0.38947216681075836    0.37940880746128824    
  0.33364595541988    0.24909452059903853    0.16212114150312038    0.09997209313146473    0.06353357412946568    
  0.044492659477743564    0.03571005510406783    0.03319414001129643    0.03571005928950015    0.044492659976555674    
  0.06353357824688778    0.0999720853862243    0.16212115082900697    0.2490945151031804    0.3336460030483207    
  0.3794088032778226    0.38947216681075836    0.2819873655972878    0.26523799917855123    0.2200266759740556    
  0.16212114880496553    0.11043851218394332    0.07409493819077863    0.05210785908418969    0.04020665536198459    
  0.03456374047605936    0.03291124805160946    0.03456373396077412    0.0402066617693041    0.052107844014946    
  0.07409493523158281    0.11043851711285148    0.16212115172635727    0.22002667511406582    0.26523797254003734    
  0.2819873655972878    0.16234169003017673    0.1530393371260987    0.12915714890255947    0.09997209463100756    
  0.0740949261279923    0.055456808587425084    0.04387759042730731    0.03754110755050332    0.03456387816667087    
  0.033702054409351014    0.03456388358572402    0.0375411195530501    0.04387758187620262    0.055456809883088404    
  0.07409492545858068    0.09997209007898951    0.1291571558237812    0.1530393039673358    0.16234169003017673    
  0.09068892103961172    0.08666349176042158    0.07628339875775443    0.0635335883227358    0.05210786242916898    
  0.043877586016284414    0.03898395196085189    0.036600586859083226    0.035709901824136726    0.03551772600288125    
  0.03570991473420486    0.0366005758395687    0.03898394049420678    0.04387758078066551    0.05210786040750264    
  0.0635335810849114    0.07628341310049756    0.08666348634404056    0.09068892103961172    0.055362634621856095    
  0.05373002029986287    0.049537451686986825    0.04449267175058423    0.04020664598414179    0.03754110902784833    
  0.036600594783235796    0.03686712346774602    0.03754964967944474    0.037893406257996955    0.03754964201328199    
  0.03686713269557902    0.03660056395992958    0.03754112980965615    0.04020664270174389    0.044492668756892215    
  0.04953745580624042    0.053730011222777416    0.055362634621856095    0.03993550815163742    0.03924672679565469    
  0.03754949150437168    0.03571006667831899    0.03456372950058153    0.03456388143001252    0.03570990885596013    
  0.03754965058279559    0.039246572505906165    0.03993566197901169    0.03924657104640053    0.037549648794282665    
  0.03570991258692668    0.0345638777511506    0.03456373343215175    0.03571005708957141    0.0375494976666799    
  0.03924671587311076    0.03993550815163742    0.03569002506388637    0.03524378588375699    0.03419358053867712    
  0.03319413983813943    0.0329112503123097    0.03370206320628669    0.035517731391918266    0.03789340811677511    
  0.03993565921076098    0.04073859347305477    0.03993566090874162    0.03789341491093728    0.03551771361843148    
  0.0337020705602503    0.032911243479031994    0.033194138795883864    0.034193587532565    0.035243783427505025    
  0.03569002506388637    0.03993551186519974    0.039246721475903884    0.037549496173136666    0.03571005395081383    
  0.03456372531301516    0.0345638815522218    0.035709908590138145    0.03754964412509261    0.03924655743547872    
  0.03993566402180073    0.03924657904797493    0.03754963732959338    0.03570990298977974    0.03456388820020597    
  0.03456374072263256    0.03571006703040441    0.0375494992096434    0.03924671588212136    0.03993551186519974    
  0.055362641437426134    0.05373002473982789    0.049537452558100464    0.04449266530950218    0.04020665406978465    
  0.03754112813060962    0.03660059044156324    0.03686712699688223    0.037549652717616296    0.03789340762876219    
  0.037549644145859686    0.03686712786391761    0.036600569366849335    0.037541125868134635    0.04020665348999705    
  0.044492667544532544    0.04953744831245204    0.053730021574609994    0.055362641437426134    0.09068891425895793    
  0.0866634842647526    0.07628339208525356    0.06353357317978435    0.05210786189330142    0.04387758971651482    
  0.038983946205880235    0.03660058165808071    0.03570990064363723    0.035517724235659444    0.03570991204869531    
  0.03660058345256755    0.03898395399844246    0.043877581842554254    0.05210786253618446    0.06353357662173208    
  0.07628340988317414    0.08666347660939622    0.09068891425895793    0.16234169014173333    0.15303932825085226    
  0.12915715462594018    0.0999720979295091    0.07409492143609962    0.055456806964311094    0.043877590053675544    
  0.03754112523265861    0.03456389545206308    0.033702062098216364    0.034563876341465335    0.03754112509974581    
  0.04387758011653349    0.055456813977902725    0.07409492832966434    0.09997208132072725    0.12915715052171464    
  0.1530393206602046    0.16234169014173333    0.2819873751900894    0.26523801941620057    0.22002666572360807    
  0.16212116184172085    0.11043852010040836    0.074094937029586    0.05210786154228729    0.040206650074394154    
  0.034563734832793354    0.03291124422900415    0.034563736015811426    0.04020665667964945    0.0521078548123623    
  0.07409493549143954    0.11043851454168412    0.16212116371870375    0.22002666709570112    0.2652379803039238    
  0.2819873751900894    0.38947219104319575    0.37940880648461117    0.3336460069941879    0.24909451008629538    
  0.16212112593848454    0.09997209800018439    0.06353357804723915    0.044492672902542135    0.035710051458303256    
  0.03319414816090266    0.03571006447158486    0.04449266188343811    0.06353358569292368    0.09997207617709418    
  0.16212114724088866    0.24909451742975627    0.3336460117415936    0.37940880352414696    0.38947219104319575    
  0.33379328658384116    0.3642174783680806    0.3945643427148145    0.3336459458125882    0.22002662995782674    
  0.12915716978737574    0.07628341336073893    0.049537461174452936    0.03754950074249803    0.034193578120361154    
  0.037549491931736574    0.049537452272558756    0.07628338721268328    0.12915715816885975    0.22002664764571275    
  0.33364597383972133    0.39456435548733243    0.36421745155051577    0.33379328658384116    0.1818148784948385    
  0.24009641578204607    0.3642174862107775    0.3794088625343834    0.26523798534259296    0.15303935170900618    
  0.08666349360836446    0.05373001955522299    0.03924672365456435    0.03524379450231855    0.03924672117105375    
  0.05373003476372143    0.0866634936546979    0.15303932879063503    0.2652380185618247    0.3794088661246799    
  0.36421751389205204    0.2400964042445552    0.1818148784948385    0.1225604074107754    0.18181485550177673    
  0.3337932852960471    0.38947219854372694    0.2819873374992987    0.1623416759382957    0.0906889214626201    
  0.05536262260461119    0.039935501926764067    0.03569002352770098    0.03993550183466948    0.055362630740105015    
  0.09068890021142863    0.1623416733555012    0.2819873421142051    0.38947221696626927    0.33379330203546037    
  0.18181486634478242    0.1225604074107754    0.29187032518835676    0.3337932603762079    0.39358613144337895    
  0.3506408949840098    0.23410581967439612    0.13632610184102384    0.0792923908695091    0.050641078118514406    
  0.03789354969220552    0.034342503751250676    0.037893555084224824    0.05064108333442852    0.07929237841497577    
  0.13632610529469688    0.23410582098000718    0.3506409361497937    0.3935861253231701    0.33379328591501084    
  0.29187032518835676    0.3337933067146279    0.364217464615752    0.3945643916309723    0.33364597413863156    
  0.22002664638861522    0.12915716430232188    0.0762834057538832    0.049537464011157654    0.03754948957881142    
  0.03419358404535426    0.03754949983846788    0.04953744816781577    0.07628339254017082    0.12915715771556346    
  0.22002664466525101    0.333646001555228    0.3945643433462692    0.364217433659977    0.3337933067146279    
  0.39358615515315565    0.39456434756926645    0.36583627112189804    0.2815452444386445    0.18310608087202737    
  0.11075217564712428    0.06857066327900188    0.04680538200655656    0.03686726961817637    0.034044021659798265    
  0.036867276512626404    0.046805383829792734    0.0685706514843156    0.11075216995951132    0.18310607031693107    
  0.28154522552413835    0.36583628097731347    0.39456434525505724    0.39358615515315565    0.3506409088763638    
  0.3336459697180158    0.2815452134790829    0.2069203927607865    0.13728117862700315    0.08832314828696773    
  0.059249555910720696    0.04381734883437684    0.03660041702477018    0.0345090923150565    0.03660042705803635    
  0.04381734212719185    0.05924956362014121    0.08832312853566403    0.13728118417972476    0.2069204010325448    
  0.2815452229777513    0.33364595881520975    0.3506409088763638    0.2341058667520954    0.22002665721167827    
  0.1831060880908639    0.137281171095298    0.09697945497306809    0.0685717957895473    0.051264480588940474    
  0.04192258949604097    0.0375412779856223    0.03625907903218809    0.03754127477503305    0.041922596015842174    
  0.051264457681884784    0.06857179286997801    0.09697945639913681    0.137281176790726    0.18310607969958867    
  0.2200266389374532    0.2341058667520954    0.13632612034847755    0.12915715995324287    0.11075216654866885    
  0.08832314536995572    0.06857179003592286    0.054554884361899245    0.04614686549347505    0.04192273728214389    
  0.04020648712513689    0.03976549771164192    0.040206504555324776    0.04192275074854421    0.04614685098008936    
  0.05455488264837756    0.06857179068166112    0.08832313407219497    0.11075216870637396    0.12915712519048397    
  0.13632612034847755    0.079292392564075    0.07628339721041537    0.06857064717454457    0.05924956050194548    
  0.05126448140237469    0.04614685570955842    0.0439550355486127    0.043817195527171574    0.0444928213622619    
  0.04486587791563052    0.044492840630985644    0.04381718188641724    0.04395502690363618    0.04614685687786024    
  0.05126447360956958    0.059249557424783654    0.06857066119463104    0.07628338449138526    0.079292392564075    
  0.05064108610542111    0.049537448194984644    0.04680538033941819    0.04381734876783315    0.04192258178133985    
  0.04192273525910443    0.043817191081723925    0.04680555464681614    0.049537280188956076    0.050641260022053367    
  0.04953726562329952    0.046805556555502205    0.043817164388214605    0.04192274649220488    0.041922583698068214    
  0.043817347906034594    0.04680537988192054    0.04953743896925902    0.05064108610542111    0.03789356090943404    
  0.03754949766950961    0.036867268282948285    0.036600437085244054    0.03754126810098359    0.04020649287428514    
  0.0444928269733275    0.04953726433675607    0.05373020556658149    0.05536244042638097    0.05373020597042784    
  0.04953728127501468    0.044492829013219624    0.04020649147886015    0.03754127310612014    0.03660042437571817    
  0.03686727886392668    0.03754948845720387    0.03789356090943404    0.034342512537818164    0.034193573999876714    
  0.0340440264682217    0.03450908950282004    0.036259075761723936    0.03976550592312793    0.044865884604202995    
  0.050641258973593443    0.05536243555604599    0.05718612092502166    0.05536243320016515    0.0506412548698173    
  0.04486587081472505    0.03976550673013757    0.03625906805858763    0.03450909157463037    0.03404403111274575    
  0.03419357521049984    0.034342512537818164    0.03789356523793704    0.037549492842673    0.03686727079500778    
  0.036600423565641416    0.03754126626977252    0.04020650143152635    0.04449282677090886    0.049537279770039105    
  0.05373021141682629    0.055362446833083105    0.05373021343558174    0.04953727235112822    0.04449282509001514    
  0.04020649902229946    0.03754127894364184    0.036600433940917394    0.03686727585063084    0.037549488493097895    
  0.03789356523793704    0.05064109105175408    0.049537456983749145    0.046805376438017625    0.04381734715750678    
  0.0419225825406903    0.041922753622685015    0.04381718170851029    0.046805548466269185    0.04953726454629393    
  0.05064126010506803    0.049537271819761815    0.04680555110549341    0.04381716869812422    0.04192275406369526    
  0.04192258639846569    0.04381734491106572    0.04680537958036714    0.049537456087783774    0.05064109105175408    
  0.07929237870226642    0.07628339347284617    0.06857064096739572    0.0592495482904163    0.051264477714052153    
  0.0461468581809201    0.04395501899337543    0.04381719038680759    0.044492817992220664    0.04486588539176856    
  0.04449283166602341    0.04381717733858194    0.04395503641230409    0.04614684855462411    0.05126447273229452    
  0.05924955650050276    0.06857067011761292    0.07628339080201657    0.07929237870226642    0.13632611066359357    
  0.12915714773632367    0.11075216802802816    0.0883231382556612    0.06857177812263224    0.05455488467990929    
  0.04614686133181324    0.04192274870906638    0.04020649733628185    0.03976551190262934    0.04020649569365954    
  0.041922750326918196    0.04614684098951687    0.05455488866249865    0.06857179163559439    0.08832313027880061    
  0.11075217962682368    0.1291571518183027    0.13632611066359357    0.2341058752591268    0.2200266929189517    
  0.18310607345564153    0.13728118095498273    0.0969794549147188    0.06857179732940995    0.05126447631029197    
  0.041922583073702155    0.03754126951362911    0.03625907042136892    0.037541277015731074    0.04192259035539012    
  0.051264471008481506    0.0685717986867192    0.09697945822771777    0.1372811911351159    0.18310607409033203    
  0.22002662823019234    0.2341058752591268    0.35064093013375447    0.3336459620967894    0.281545223163324    
  0.20692040268046671    0.1372811676946995    0.08832314411608912    0.05924955495908686    0.04381734874895236    
  0.03660042225598262    0.03450909148738537    0.03660043306751594    0.04381734078640667    0.05924956271434005    
  0.08832313207452613    0.13728118497746272    0.20692039704191278    0.28154524273603687    0.3336459441787613    
  0.35064093013375447    0.3935861077142477    0.3945643540016639    0.3658362761882804    0.28154521230912033    
  0.1831060596767995    0.11075216765909558    0.06857065880418751    0.04680538412745481    0.03686727829509954    
  0.034044021472827445    0.036867270927014195    0.04680538123306519    0.06857063658370542    0.11075217557770563    
  0.18310608233825174    0.2815452428673726    0.36583629733235806    0.3945643373478232    0.3935861077142477    
  0.33379327559226224    0.3642175008719193    0.3945643494716689    0.3336460087081316    0.22002665498030174    
  0.12915714967655237    0.07628340066681927    0.04953744937606948    0.037549497069638664    0.0341935825326117    
  0.037549493490822615    0.04953745969778771    0.07628339909270786    0.12915714506414627    0.22002665728995927    
  0.3336460157352251    0.3945643709791738    0.36421747071868316    0.33379327559226224    0.29187032518835676    
  0.3337932603762079    0.39358613144337895    0.3506408949840098    0.23410581967439612    0.13632610184102384    
  0.0792923908695091    0.050641078118514406    0.03789354969220552    0.034342503751250676    0.037893555084224824    
  0.05064108333442852    0.07929237841497577    0.13632610529469688    0.23410582098000718    0.3506409361497937    
  0.3935861253231701    0.33379328591501084    0.29187032518835676    0.39468170141735925    0.3894721516714769    
  0.35064089786946717    0.2649705265934852    0.17185051287009206    0.10458154022572833    0.06527299322730709    
  0.04486604089371797    0.035517571539459995    0.03285540619290471    0.03551757044572661    0.04486605514955396    
  0.06527298468818206    0.10458153320673692    0.17185051212560395    0.26497052405418076    0.35064091072336334    
  0.3894721502447706    0.39468170141735925    0.38947221233332746    0.37940882256221475    0.3336459879404205    
  0.24909451375178424    0.16212112537930534    0.09997210056880958    0.06353358709751651    0.04449266863372558    
  0.03571005669643972    0.0331941408179623    0.035710063088667844    0.04449265716178756    0.06353356386944134    
  0.09997209058917446    0.16212113508656947    0.24909453919250119    0.3336459496899801    0.3794087815785787    
  0.38947221233332746    0.3506409170135098    0.33364597744547814    0.28154519851367965    0.20692037143945793    
  0.1372811692685708    0.08832313150961249    0.05924955517915    0.04381734031187087    0.03660042335978034    
  0.03450908212615352    0.03660043037617207    0.04381734199847476    0.05924955553367937    0.08832314591672241    
  0.13728116254740336    0.2069203840877372    0.28154522876040683    0.33364597253010275    0.3506409170135098    
  0.26497049849464555    0.24909448841071571    0.20692038248791148    0.153956703831528    0.10722116738589157    
  0.07441085386737704    0.05458436274978782    0.043954872222220595    0.03898409581209218    0.03753565335399088    
  0.038984103884834816    0.04395486697318484    0.0545843637971177    0.07441086005602265    0.10722117580160218    
  0.15395670342005627    0.20692041484865656    0.24909448211476326    0.26497049849464555    0.17185053682480428    
  0.16212113436460432    0.1372811837417504    0.10722117315131381    0.08098554158992782    0.0625727848302727    
  0.05163464886515469    0.04614703469393981    0.04387742406844895    0.0432758632541575    0.043877416992379764    
  0.04614702944362328    0.05163463461521327    0.06257278075125508    0.08098554961164846    0.1072211621416749    
  0.13728117236617665    0.16212112990522368    0.17185053682480428    0.10458155440956136    0.09997208967981401    
  0.08832313265842487    0.07441086192599507    0.06257277608652319    0.05498490606051682    0.05163482456526445    
  0.05126429580361164    0.05210802809050683    0.052588275115713005    0.05210803833437832    0.05126429860172986    
  0.0516348173405215    0.05498491827498036    0.06257277459841695    0.07441085367404761    0.088323145491453    
  0.09997207395049225    0.10458155440956136    0.06527298284501705    0.06353357212295105    0.05924955628610513    
  0.05458436872168944    0.05163464385725176    0.05163481917628605    0.054584184109523794    0.0592497592267976    
  0.06353336578138893    0.06527319272289285    0.0635333756352783    0.05924974513102384    0.05458417538362284    
  0.05163482694845222    0.05163464621111239    0.054584367458294175    0.05924956841482946    0.06353356620474852    
  0.06527298284501705    0.044866050344458605    0.04449265800875783    0.043817338513796725    0.043954865933441806    
  0.046147023765817585    0.051264288210487785    0.0592497622068821    0.06857045063078043    0.07628361616136323    
  0.07929217408498043    0.0762835960093891    0.06857044837321863    0.05924972859944643    0.05126429787126073    
  0.04614701834064646    0.043954870730312255    0.04381734242564407    0.0444926518649252    0.044866050344458605    
  0.03551757258429748    0.03571006414318972    0.03660042446255148    0.03898411706343413    0.043877417546100916    
  0.05210803769115215    0.06353336181370652    0.07628360249101379    0.08666326590478615    0.09068914754580551    
  0.0866632708748408    0.07628362050844678    0.06353338423227951    0.05210803323815451    0.04387741471137666    