#     DFTpy    
  CRYSTAL 
    
  PRIMVEC    
  4.344    0.0    0.0    
  0.0    4.344    0.0    
  0.0    0.0    4.344    
  PRIMCOORD    
  8    1    
  Si    0.0    0.0    0.0    
  Si    1.086    1.086    1.086    
  Si    0.0    2.172    2.172    
  Si    1.086    3.258    3.258    
  Si    2.172    0.0    2.172    
  Si    3.258    1.086    3.258    
  Si    2.172    2.172    0.0    
  Si    3.258    3.258    1.086    
  BEGIN_BLOCK_DATAGRID_3D    
  3d_datagrid_density    
  BEGIN_DATAGRID_3D#0    
  19    19    19    
  0.0    0.0    0.0    
  4.344    0.0    0.0    
  0.0    4.344    0.0    
  0.0    0.0    4.344    
  0.06374069142589743    0.12566906373412    0.3575689415261034    0.5632203393575782    0.49856987282960996    
  0.3390613280683742    0.21893855526199335    0.14930492122405595    0.11522359458802164    0.10528969155361644    
  0.11522358810681659    0.1493048796950298    0.21893854080556996    0.3390612661819719    0.49856987873299424    
  0.5632203159098572    0.35756889699863087    0.12566908697775353    0.06374069142589743    0.12566904881292942    
  0.20240325087658095    0.43222401597703125    0.5868276733253842    0.5006652555873149    0.34437082618980813    
  0.2278714988844791    0.15930942967435344    0.12524554294068704    0.11522354257942537    0.1252455082360955    
  0.15930940026721713    0.2278715944112353    0.3443707919197396    0.500665244791914    0.586827720949195    
  0.43222392425148237    0.20240327403198494    0.12566904881292942    0.35756893556272606    0.4322240700969345    
  0.5804404138685191    0.6112028636526695    0.4964158485084977    0.35788185807717704    0.25545838058617654    
  0.19223280026499454    0.15930945870248406    0.14930487534308748    0.15930943226838865    0.19223279404120205    
  0.2554584529729919    0.35788187246960695    0.49641578480768156    0.6112028841335645    0.5804402983084508    
  0.43222400654492066    0.35756893556272606    0.5632203827838916    0.5868277332719342    0.6112028177757894    
  0.5689100513155975    0.47323341649688416    0.3771466621768064    0.304240195679058    0.2554584442313435    
  0.2278715631542102    0.21893858369291827    0.22787149503194834    0.2554584374210843    0.3042402644459126    
  0.3771466323220742    0.4732333828994887    0.5689098903835105    0.6112027852539252    0.5868277294441241    
  0.5632203827838916    0.4985698534718843    0.5006651894957808    0.49641585038453545    0.47323345377427833    
  0.4367330473058179    0.4026927121539873    0.3771466198964117    0.3578818675342094    0.34437086696394237    
  0.33906126906467343    0.34437078078113903    0.35788183292884956    0.3771466678877372    0.4026926910897089    
  0.43673304770213994    0.47323339699762085    0.49641589673729863    0.5006652672818522    0.4985698534718843    
  0.3390612624713976    0.3443708289340741    0.3578819082188619    0.37714661853771836    0.4026927105893092    
  0.4367330781124675    0.4732334745851111    0.4964158483115384    0.5006653085841071    0.49856976381312634    
  0.500665240234236    0.49641582977136645    0.4732334247257406    0.4367330372363424    0.40269263910781167    
  0.3771466232916444    0.3578818791478667    0.3443708206567803    0.3390612624713976    0.21893855675650645    
  0.22787155676208676    0.2554583815072946    0.3042402496949223    0.3771466624771792    0.4732334121531141    
  0.5689099007745614    0.6112028850420735    0.5868277905447807    0.563220277431505    0.5868275928287913    
  0.6112028637570335    0.5689099018406598    0.473233400046967    0.3771466189567713    0.30424016717803215    
  0.25545841679976644    0.22787156227819633    0.21893855675650645    0.1493048932469988    0.15930939081302334    
  0.1922327692266844    0.2554584113413905    0.357881843487694    0.49641581903148374    0.6112028640518138    
  0.5804403191390581    0.4322240788441972    0.3575689438759736    0.43222401059589577    0.5804403164396884    
  0.6112029213498827    0.4964159431759616    0.3578818030105035    0.25545843417366537    0.1922327988350303    
  0.1593094381204681    0.1493048932469988    0.11522357803597336    0.12524552565434624    0.15930947207783244    
  0.22787149286103286    0.34437077636249036    0.5006652196603673    0.5868277241227318    0.43222400058700994    
  0.20240330341923596    0.12566903570568855    0.20240325113517302    0.43222396761321624    0.5868277290799248    
  0.5006652010081186    0.3443707656490004    0.22787151446507167    0.1593094574019353    0.12524554361663448    
  0.11522357803597336    0.1052896747012733    0.11522359890773082    0.1493048869328029    0.21893854857275213    
  0.33906129446728683    0.4985699034737641    0.5632202641689128    0.35756890587990425    0.12566905699509157    
  0.0637406885645167    0.12566902555937423    0.35756894927409333    0.5632203239886022    0.4985698579713541    
  0.3390612431543511    0.21893859237648683    0.14930488058623873    0.11522361258680944    0.1052896747012733    
  0.11522359168831299    0.12524549566909599    0.15930942254121938    0.22787153402281277    0.3443707851850815    
  0.5006652761096282    0.5868277100071273    0.4322239843298645    0.20240330663580866    0.1256690254888015    
  0.20240324805582183    0.4322239522226676    0.5868277715910591    0.5006652598137373    0.3443708050631591    
  0.2278715427609599    0.1593094136064048    0.12524551659659305    0.11522359168831299    0.14930486598672532    
  0.15930944342098913    0.1922328068949152    0.2554584479376025    0.3578818685580159    0.4964158344902134    
  0.611202788134176    0.5804403709297937    0.43222399429607095    0.3575688984044405    0.43222401540864874    
  0.5804402987562639    0.6112029035968048    0.4964158553808842    0.35788187077608685    0.255458453564954    
  0.1922328157200782    0.1593094627793286    0.14930486598672532    0.21893856218738098    0.2278715190699718    
  0.2554584418380066    0.3042402611814531    0.37714663204361465    0.4732334555332014    0.5689099419368174    
  0.6112028426508703    0.586827704746771    0.5632202218322705    0.5868276732924782    0.6112028068877401    
  0.5689100082923149    0.4732334073512861    0.3771466182072499    0.3042401918092131    0.25545839973146284    
  0.22787154633893117    0.21893856218738098    0.33906129968339527    0.34437073060762596    0.3578818515700317    
  0.37714659675945883    0.40269263481171    0.4367330863085197    0.4732334086946285    0.49641584072009515    
  0.5006653826410971    0.4985698420658461    0.5006652646013326    0.4964158275467051    0.47323348557233275    
  0.4367330585654815    0.4026926595584058    0.3771466800299968    0.3578818344186258    0.344370798625401    
  0.33906129968339527    0.4985698211920204    0.5006652248332641    0.49641589736759534    0.4732334494422331    
  0.43673306046822896    0.40269269560897336    0.3771465952406752    0.35788185146437507    0.34437084654241895    
  0.3390612585273368    0.344370818152198    0.3578818348811533    0.37714663433029094    0.40269265700459184    
  0.4367330166746367    0.4732334783918869    0.4964158602495529    0.5006653550023598    0.4985698211920204    
  0.5632203671591011    0.5868277110009689    0.611202818456989    0.5689100245778808    0.4732334303653693    
  0.37714660916412374    0.30424018926240776    0.2554584697539885    0.22787152034309305    0.21893853473621153    
  0.22787150001579157    0.2554584778103813    0.3042402798234279    0.37714655991159785    0.473233444235247    
  0.568909935452847    0.6112028283852343    0.5868277602539803    0.5632203671591011    0.35756890455349216    
  0.4322239814415144    0.5804403196997364    0.611202867619558    0.4964158132563793    0.35788180955650245    
  0.25545840221204724    0.1922327774956654    0.15930945603690755    0.14930488680503096    0.15930946624488798    
  0.19223281102782522    0.2554584354497159    0.3578819137122173    0.4964158517734614    0.6112029094148731    
  0.5804403957932837    0.43222402315276237    0.35756890455349216    0.12566905051783972    0.20240325550727487    
  0.43222397467570856    0.5868276646394301    0.5006653126905425    0.34437079977247814    0.22787153583094805    
  0.1593094483796781    0.12524554273590055    0.11522353734964032    0.12524553843026717    0.15930942270595902    
  0.22787157335022484    0.3443707650313066    0.5006651807100757    0.586827717905222    0.43222403742344795    
  0.20240327576543107    0.12566905051783972    0.06374069142589743    0.12566906373412    0.3575689415261034    
  0.5632203393575782    0.49856987282960996    0.3390613280683742    0.21893855526199335    0.14930492122405595    
  0.11522359458802164    0.10528969155361644    0.11522358810681659    0.1493048796950298    0.21893854080556996    
  0.3390612661819719    0.49856987873299424    0.5632203159098572    0.35756889699863087    0.12566908697775353    
  0.06374069142589743    0.1256690478505078    0.2024032813719108    0.4322240364456804    0.586827750133742    
  0.5006652486506639    0.34437083860238193    0.22787153340062186    0.1593094613696731    0.12524552246775675    
  0.11522356618904096    0.1252455300504333    0.15930937570266862    0.22787153518795986    0.3443707365055785    
  0.5006652737845456    0.5868277044326013    0.4322240067851602    0.20240331303022827    0.1256690478505078    
  0.20240327434651786    0.30981767409436173    0.5603819380544894    0.6915376926870886    0.5808902166586629    
  0.40597411460600125    0.2725443737065129    0.1901365919647946    0.14480665499517878    0.12524549550873718    
  0.1262157690359555    0.14980970962671047    0.20371367920256458    0.2981288881463076    0.42976527987302543    
  0.5230934220985267    0.43880020731307495    0.2631308357383824    0.20240327434651786    0.4322239872138112    
  0.5603819326950698    0.744750611828414    0.7755817473204358    0.6369540201730378    0.4674042848871737    
  0.33560643796355755    0.24643878365473507    0.19013663509420373    0.15930941452495348    0.14980974555487017    
  0.16187274486486555    0.19993986813041523    0.26982256032300206    0.3720769377182531    0.47397725290757625    
  0.49616366810053436    0.4388003149020576    0.4322239872138112    0.586827773061773    0.6915377325450269    
  0.7755818066777632    0.7483140073708532    0.6323875620419624    0.5102877268302561    0.4134956573276957    
  0.3356065037705525    0.2725443797768931    0.22787154595975695    0.2037136212877493    0.19993984247823585    
  0.21793245651897303    0.25909339895454286    0.32403391893567485    0.40416233576494587    0.47397711357353994    
  0.5230934682050014    0.586827773061773    0.5006653072464277    0.5808901197836116    0.6369539128415426    
  0.6323876138188705    0.5846450278852223    0.5412275887681074    0.5102877400108945    0.467404221938541    
  0.4059741994326111    0.3443707940507676    0.2981288960997854    0.26982260830622373    0.2590934452171808    
  0.2649448105541802    0.2870168390666737    0.3240339674484014    0.3720770012489301    0.42976524272403516    
  0.5006653072464277    0.34437080565553957    0.40597417154628    0.4674041953615023    0.5102877433182298    
  0.5412276893230522    0.5846451314864825    0.6323876080263152    0.6369539815372945    0.5808902862078819    
  0.5006651210264443    0.4297652645561517    0.3720769466989027    0.32403397806265044    0.287016819225223    
  0.26494481610971093    0.25909336734849914    0.26982259792115676    0.2981288891282342    0.34437080565553957    
  0.22787152606243657    0.27254437165007545    0.3356063965926541    0.41349569146397774    0.510287733070243    
  0.6323876317550459    0.7483137776488171    0.7755818660636126    0.6915378030265292    0.5868277106932456    
  0.5230932937727724    0.47397721964214995    0.4041623285855792    0.3240339258118189    0.2590934060747559    
  0.21793240264814773    0.19993988107530358    0.20371370263212954    0.22787152606243657    0.15930943110866602    
  0.1901365654725487    0.2464387662824398    0.3356064265530556    0.46740424557880206    0.636953878535041    
  0.7755819074360623    0.7447505618122069    0.5603820014446055    0.43222404854065727    0.4388002897335917    
  0.49616362839245204    0.473977214489949    0.3720770686573037    0.2698226133395141    0.19993987223649903    
  0.1618727180398727    0.14980974178292897    0.15930943110866602    0.12524552918259518    0.14480663472635757    
  0.19013661336275908    0.27254429442185557    0.40597412359261253    0.5808901901066663    0.6915378125971955    
  0.5603819007845877    0.30981775033808534    0.20240324216343417    0.2631308194875412    0.43880024791766536    
  0.523093454703626    0.4297652401666662    0.2981288345781763    0.2037136342695175    0.14980976531509996    
  0.12621578856964452    0.12524552918259518    0.11522355680763842    0.12524555030918272    0.15930944048323073    
  0.2278715132355659    0.34437082763648613    0.5006652972594725    0.5868277153533904    0.4322239572025005    
  0.2024032844693446    0.1256690341901176    0.20240326390249577    0.43222403201357    0.5868276870280463    
  0.5006653091532218    0.344370748134352    0.22787154556310027    0.15930941731473297    0.12524555428089182    
  0.11522355680763842    0.12524554777439442    0.1262157567710474    0.149809743654921    0.20371364790760338    
  0.2981288340400673    0.4297652700349778    0.5230934412174782    0.4388002930326943    0.2631308641291133    
  0.20240325643217436    0.30981769504110684    0.5603818300378987    0.691537856850933    0.5808902019991228    
  0.4059740896652154    0.2725443618197021    0.19013660487660883    0.14480663497580876    0.12524554777439442    
  0.15930940112309996    0.14980976493805712    0.16187275483360208    0.19993983292820525    0.2698226281613455    
  0.3720769546264287    0.47397713979691014    0.4961636584557027    0.43880025078462254    0.43222399963577096    
  0.5603818749047309    0.7447505192665536    0.77558196301594    0.6369540205479878    0.4674041951598893    
  0.33560647688599377    0.2464387697335873    0.19013663851280105    0.15930940112309996    0.22787149961336856    
  0.203713654420998    0.19993988765069512    0.2179324207916579    0.2590933728065785    0.3240339589407002    
  0.40416236284283014    0.47397724151020937    0.5230934188841143    0.586827674293869    0.6915377643461162    
  0.7755818694305175    0.748314009889444    0.6323875706373192    0.5102877065462738    0.4134956171076582    
  0.3356064448191833    0.2725443917130513    0.22787149961336856    0.3443707741670587    0.29812883058387385    
  0.26982259988045326    0.25909334506921394    0.26494481667720793    0.2870168485256292    0.3240339489984122    
  0.37207691974791957    0.42976535410446043    0.5006652582047456    0.5808902252286905    0.636953987299481    
  0.6323876468441035    0.5846450873928781    0.5412276709570227    0.5102877316655928    0.4674042527848047    
  0.4059741528914064    0.3443707741670587    0.5006652263152211    0.429765279702674    0.3720770609726471    
  0.3240339795234942    0.2870168648519984    0.26494487290857843    0.25909339198889947    0.2698225882907693    
  0.2981289155859988    0.34437077779923675    0.40597413250709286    0.467404225355365    0.5102877025987448    
  0.5412276389644797    0.5846450157966984    0.6323876852308548    0.6369539139658223    0.5808902278975403    
  0.5006652263152211    0.58682774690978    0.5230934306599635    0.4739770828928169    0.4041624162849132    
  0.3240339062811536    0.25909342343340697    0.21793239548944945    0.1999398572460911    0.20371365066376496    
  0.22787148668202017    0.2725442995206083    0.33560646201828515    0.41349568374081586    0.510287694316918    
  0.6323876527573413    0.7483138799190128    0.7755818263595392    0.6915378632962573    0.58682774690978    
  0.4322240230819273    0.438800303219574    0.49616366075965657    0.4739771362681098    0.37207694355698206    
  0.26982257922036046    0.1999398649173314    0.16187269505692575    0.14980977043205526    0.1593094364701074    
  0.19013664751052625    0.24643877093004146    0.3356065032847183    0.46740428900219394    0.6369539563571717    
  0.7755819607970939    0.7447506890349742    0.5603818735722862    0.4322240230819273    0.2024032914050344    
  0.26313080722972293    0.4388002138334533    0.5230934254841844    0.4297653118282023    0.2981288395865275    
  0.2037136496391479    0.1498097343051417    0.12621579024918916    0.12524550852810604    0.14480663689421314    
  0.19013661585799782    0.2725443846953901    0.40597411320306975    0.5808901284184326    0.6915378022502382    
  0.5603820203565629    0.3098176940793997    0.2024032914050344    0.1256690478505078    0.2024032813719108    
  0.4322240364456804    0.586827750133742    0.5006652486506639    0.34437083860238193    0.22787153340062186    
  0.1593094613696731    0.12524552246775675    0.11522356618904096    0.1252455300504333    0.15930937570266862    
  0.22787153518795986    0.3443707365055785    0.5006652737845456    0.5868277044326013    0.4322240067851602    
  0.20240331303022827    0.1256690478505078    0.35756890712060974    0.4322240494454006    0.5804404117567676    
  0.6112029465396873    0.4964158855372451    0.3578818483940883    0.25545840704381556    0.19223280730119402    
  0.15930943845520715    0.14930490011050707    0.15930945280911943    0.19223278405909963    0.2554584681207325    
  0.35788182703688415    0.4964158744372979    0.6112028518263127    0.5804404338713122    0.432224130839167    
  0.35756890712060974    0.4322240459629465    0.5603819398231972    0.744750636937713    0.7755818456068807    
  0.6369539418665312    0.46740421098714    0.3356064988341894    0.24643874581958788    0.19013663039784587    
  0.15930943967952074    0.14980974328726973    0.16187269107137106    0.19993991432074423    0.2698225769556455    
  0.3720769858382197    0.4739772133499264    0.49616364499111343    0.4388002930852845    0.4322240459629465    
  0.580440384724679    0.7447507322646122    0.8981219799072446    0.8774963220258742    0.7143441838678415    
  0.5460807171490037    0.42016835095986593    0.3233920430719821    0.24643880161273277    0.19223279655149422    
  0.1618727450579394    0.15429254193834574    0.17068395213449414    0.21302103453970272    0.28273150377508094    
  0.37050326761806013    0.4450379274149089    0.49616367939404693    0.580440384724679    0.6112029650647944    
  0.7755817985060156    0.8774963004929767    0.812167283938052    0.6522285958429337    0.5377091591916915    
  0.480635817795952    0.42016838989698135    0.3356065057001388    0.2554584211586864    0.19993982471718638    
  0.17068393652062874    0.16587755155999379    0.18372509345743535    0.22407843841477665    0.28746494916043497    
  0.3705031414759899    0.4739771919155706    0.6112029650647944    0.4964159059081103    0.6369538557028709    
  0.7143440795361394    0.6522285903448541    0.536184642294874    0.49876188442741753    0.5377090027805835    
  0.5460806999054738    0.46740432022551287    0.3578818508071822    0.2698226186192389    0.21302105395090223    
  0.18372510692438426    0.17699387420072704    0.19010551269873768    0.2240784660882259    0.28273156396153626    
  0.372076903642702    0.4964159059081103    0.3578818456563799    0.46740430497819496    0.5460807825582121    
  0.537709104853977    0.4987619142182939    0.536184681012814    0.6522285874086606    0.7143440466925723    
  0.6369540691753472    0.49641571846335064    0.37207695421465575    0.2827315357529309    0.224078454122507    
  0.19010546577691168    0.17699386056068098    0.18372503183234384    0.2130210002432794    0.2698225858727628    
  0.3578818456563799    0.25545848233498203    0.33560647255277015    0.4201683583663394    0.48063585955049076    
  0.5377090560825557    0.6522285296884776    0.8121672362477586    0.8774963593071294    0.7755819313850112    
  0.6112028683407016    0.4739771274802791    0.37050325127698874    0.28746494026612196    0.22407842979802853    
  0.18372506528353819    0.1658775255716052    0.17068395839966005    0.1999398893901986    0.25545848233498203    
  0.19223280293866896    0.24643878028604954    0.32339203933714156    0.4201683381017674    0.5460807018415604    
  0.7143440364683838    0.8774962854274007    0.8981218554997996    0.7447507562629447    0.5804403760688307    
  0.49616363013681486    0.44503792891615185    0.3705032576314402    0.28273159317627616    0.21302100036218982    
  0.17068397111118275    0.15429250959488203    0.16187274564492307    0.19223280293866896    0.15930944553422627    
  0.1901365897233361    0.24643880303041224    0.33560645268292605    0.4674042327469017    0.6369540075273641    
  0.7755819357327487    0.744750605834928    0.5603820343909252    0.43222398553120506    0.4388003080456464    
  0.49616365256242806    0.47397722293895245    0.3720769392921238    0.26982257521332714    0.19993987382128725    
  0.16187277453257495    0.14980973840993053    0.15930944553422627    0.14930489417564333    0.15930945535842042    
  0.19223277640399317    0.2554584218357938    0.35788191085830695    0.4964158818203653    0.6112028351266191    
  0.580440298649998    0.43222404066264125    0.35756892464143236    0.4322240403242237    0.5804403579649706    
  0.6112028433439757    0.49641588913429174    0.35788180887305926    0.2554584691486222    0.1922327845776501    
  0.15930947876064805    0.14930489417564333    0.15930948059007327    0.1498097179728521    0.1618727322474507    
  0.19993985248382043    0.26982263226842174    0.3720769875726328    0.47397714140503466    0.4961636466262865    
  0.43880033231885013    0.4322239746256352    0.5603820094919784    0.7447505834515239    0.7755819414236317    
  0.6369539568572955    0.46740422048548314    0.3356064942799522    0.24643876143652757    0.19013662000683296    
  0.15930948059007327    0.19223277509808867    0.16187274472746266    0.1542925657648853    0.17068396800439095    
  0.2130210223668589    0.2827315285628036    0.37050315090792557    0.4450380090040719    0.49616362971078487    
  0.580440348796775    0.7447506400575341    0.8981218935407467    0.877496361215424    0.7143441225938446    
  0.5460806892588727    0.42016841742488087    0.32339201034689763    0.24643881404068171    0.19223277509808867    
  0.25545841341355824    0.19993985423453575    0.17068397127559873    0.16587757643190376    0.18372506402497982    
  0.22407844652981676    0.2874649571530053    0.3705032220187706    0.4739771741155852    0.6112028187067842    
  0.7755818725686366    0.8774963130624504    0.8121673605631905    0.6522285527198786    0.5377090726752977    
  0.48063581838278097    0.4201683107352213    0.33560651756413185    0.25545841341355824    0.35788185445791637    
  0.26982253058629074    0.21302099586957193    0.18372506979823056    0.1769938565218752    0.19010549876562727    
  0.22407841754237456    0.28273152448386246    0.37207705371663774    0.49641583288412305    0.6369540217699059    
  0.7143439836172051    0.6522286400863121    0.5361846728217302    0.4987619273630422    0.5377091572001631    
  0.5460807261781715    0.46740421219902156    0.35788185445791637    0.4964158409650121    0.37207695042626643    
  0.2827316065091213    0.22407843263372493    0.19010549292314582    0.17699387342224707    0.18372506345316994    
  0.21302100700118798    0.2698226235357558    0.3578818600626941    0.46740426955464254    0.5460807544064915    
  0.5377090720557792    0.49876188324737253    0.5361845573949312    0.6522286368242954    0.7143441270580263    
  0.6369540913920839    0.4964158409650121    0.6112029101950889    0.47397720837528856    0.37050316100393604    
  0.28746504442914556    0.22407841033739104    0.1837250561794045    0.16587751062930609    0.17068397314917264    
  0.1999399153978182    0.2554584363862786    0.3356064257978801    0.4201683786325647    0.48063582055039933    
  0.537709095269496    0.6522285441455672    0.8121671357687861    0.877496323018365    0.7755819409854258    
  0.6112029101950889    0.5804403721459152    0.4961636298735721    0.44503791654728014    0.3705032288241033    
  0.28273155108940673    0.21302098560053104    0.17068399023944422    0.15429250262010247    0.1618727645452601    
  0.19223280705991053    0.2464388322438921    0.3233920267316621    0.4201684306516859    0.5460807662256884    
  0.71434409706126    0.8774963968642602    0.8981220878566092    0.7447505414222308    0.5804403721459152    
  0.4322240360823352    0.43880028144926464    0.49616358020167306    0.47397714314598816    0.37207693183465973    
  0.26982257716507135    0.19993989345502852    0.16187274031214122    0.14980975846390715    0.15930941021060246    
  0.19013664688124798    0.24643878557071175    0.3356064984302909    0.4674042354169332    0.6369539110234127    
  0.7755818304192265    0.7447507066938912    0.5603819241747242    0.4322240360823352    0.35756890712060974    
  0.4322240494454006    0.5804404117567676    0.6112029465396873    0.4964158855372451    0.3578818483940883    
  0.25545840704381556    0.19223280730119402    0.15930943845520715    0.14930490011050707    0.15930945280911943    
  0.19223278405909963    0.2554584681207325    0.35788182703688415    0.4964158744372979    0.6112028518263127    
  0.5804404338713122    0.432224130839167    0.35756890712060974    0.5632203146168748    0.5868277471285891    
  0.6112028519898988    0.5689099764957721    0.4732333824751749    0.37714664284230537    0.3042401837775196    
  0.2554584451493844    0.22787154011793725    0.21893856617903393    0.22787151918786122    0.25545840836563427    
  0.3042402242528055    0.377146587557331    0.473233491923103    0.5689099527916874    0.611202879119626    
  0.5868277867890991    0.5632203146168748    0.5868277151645701    0.6915378157019717    0.775581834261284    
  0.7483137748189088    0.6323876639573763    0.5102877111752765    0.41349567474487    0.3356064308353782    
  0.27254439001861935    0.22787150713590903    0.20371361656817458    0.19993981535504718    0.21793244215103388    
  0.2590933844010578    0.3240339678423322    0.40416236288415575    0.4739771226429597    0.5230933900825226    
  0.5868277151645701    0.6112028636870394    0.7755819081364312    0.8774963622536583    0.8121672270064222    
  0.6522286095510159    0.5377090543384979    0.4806357784004857    0.420168371653452    0.33560649174006596    
  0.2554583925438138    0.19993986720402804    0.1706839562731721    0.1658775430945021    0.1837250426680802    
  0.224078402851261    0.2874649642101261    0.3705032072205779    0.4739771689184459    0.6112028636870394    
  0.5689100087607516    0.7483139481396082    0.8121671953653532    0.6552826245856119    0.45338190211353163    
  0.38927469470358705    0.44279715912301343    0.48063584345777294    0.4134956821422526    0.30424024897644414    
  0.21793237052105807    0.16587754134738744    0.1431008250200051    0.14392288197203953    0.1658815290845151    
  0.21156877947329647    0.28746491828581366    0.40416239052897873    0.5689100087607516    0.47323342437517163    
  0.6323875329751437    0.6522286069356732    0.4533819882197069    0.2712116753769486    0.2546058285934075    
  0.38927464792159955    0.5377090691108835    0.5102877894362391    0.37714661179365006    0.25909341833947325    
  0.18372508136821722    0.14392291075001323    0.13016036694253957    0.13708969499321574    0.16588151336382043    
  0.22407848053747068    0.3240339451558381    0.47323342437517163    0.3771466407908204    0.5102877557478657    
  0.5377091186969692    0.38927467947075634    0.2546058102601391    0.2712117051021352    0.4533819461816559    
  0.6522285462004596    0.6323876095284754    0.4732333956242519    0.3240339129514307    0.22407842208814552    
  0.16588152702446654    0.1370896641309316    0.13016037707684885    0.14392287530077794    0.18372509294680275    
  0.25909341576146605    0.3771466407908204    0.30424021358115383    0.413495693852454    0.4806357294111437    
  0.4427972339518507    0.38927470006631565    0.4533819318120067    0.6552824224805174    0.8121672084466445    
  0.7483139580727939    0.568909956470544    0.40416235080952306    0.2874650051516251    0.21156880965590735    
  0.16588149234366245    0.14392288684942217    0.1431007789166818    0.1658775099257275    0.21793246756536433    
  0.30424021358115383    0.2554584370992472    0.3356064161187268    0.42016841644131425    0.48063584890049094    
  0.5377090834458651    0.6522285770871489    0.8121672489880721    0.8774962290482201    0.7755819125451866    
  0.6112028523261488    0.47397718864500255    0.3705031533569619    0.2874649775626861    0.2240785057185629    
  0.18372504566933368    0.16587752073684037    0.17068395047895774    0.19993984226583467    0.2554584370992472    
  0.22787152018792634    0.2725443371529676    0.33560652689134385    0.4134956452110589    0.5102877426323472    
  0.6323876359336069    0.7483140159608658    0.7755819218505173    0.6915378334592679    0.5868277035903802    
  0.5230934071831592    0.47397717291148567    0.4041623908193022    0.3240339226945275    0.25909332613681707    
  0.21793240028389968    0.19993985469587008    0.20371366217759215    0.22787152018792634    0.2189385543859018    
  0.22787152374744998    0.25545841316087464    0.3042402018581444    0.37714665354578464    0.47323347396064813    
  0.5689099595039938    0.6112028380150841    0.5868277423366195    0.563220290025099    0.5868276784742812    
  0.6112028978131845    0.5689099494944914    0.47323343590563377    0.37714657049362504    0.3042402829442875    
  0.25545842014654013    0.2278715526940676    0.2189385543859018    0.22787153005839705    0.20371361047824543    