#     DFTpy    
  CRYSTAL 
    
  PRIMVEC    
  6.335931034482758    0.0    0.0    
  0.0    6.335931034482758    0.0    
  0.0    0.0    3.4906896551724134    
  PRIMCOORD    
  4    1    
  Si    0.0    0.0    0.0    
  Si    3.167965517241379    3.167965517241379    1.7453448275862067    
  Si    0.0    3.167965517241379    0.8726724137931033    
  Si    3.167965517241379    0.0    2.61801724137931    
  BEGIN_BLOCK_DATAGRID_3D    
  3d_datagrid_density    
  BEGIN_DATAGRID_3D#0    
  27    27    15    
  0.0    0.0    0.0    
  6.335931034482758    0.0    0.0    
  0.0    6.335931034482758    0.0    
  0.0    0.0    3.4906896551724134    
  0.0714221782145234    0.12891898137569596    0.30833019395098754    0.398385428926543    0.28941108750578187    
  0.1690880148540956    0.10612170735465426    0.0861983433836018    0.09602740573695841    0.1335200626209777    
  0.19777048366831146    0.27380026712343014    0.3306890736202761    0.3501863112690815    0.3306890709641272    
  0.27380026089527576    0.19777048155711843    0.13352005966349123    0.09602741322166118    0.08619834949331685    
  0.1061217028865644    0.16908803734568806    0.2894110752320922    0.39838549236001525    0.3083301300057617    
  0.12891898928024614    0.0714221782145234    0.1289189539712745    0.19292179263789375    0.34999810987538477    
  0.38962472098190476    0.2712484051645125    0.15874605386087248    0.10061663172678513    0.082119884447696    
  0.09120736691149373    0.1258746372365371    0.18528625350528016    0.25646099025277425    0.3117521438050393    
  0.33161506516800265    0.3117522022658394    0.2564609788403181    0.18528621412305818    0.125874657914089    
  0.09120737998787219    0.08211987050878729    0.10061663128085169    0.15874607754053974    0.2712483433831386    
  0.3896247029995275    0.3499981302056745    0.19292180571240763    0.1289189539712745    0.3083301663005673    
  0.34999811177863793    0.4009987534869238    0.3423146655908446    0.22216925975659774    0.13206859539169125    
  0.0864038529164964    0.07169462088442262    0.0789940092631287    0.1064516443832852    0.15323780487177588    
  0.21034599637170237    0.2574355446406578    0.27552834384872743    0.2574355456377389    0.21034597807756034    
  0.1532377802044543    0.10645166584601262    0.07899400445635882    0.07169462614486373    0.08640387136724839    
  0.1320685921404027    0.22216924695469126    0.34231465948020307    0.4009987427400432    0.3499981536133278    
  0.3083301663005673    0.3983854011749739    0.38962471992061065    0.3423146481554091    0.25138338620450823    
  0.16045499643655506    0.09984413331569757    0.06894066026213036    0.058783369925260426    0.06392446419471645    
  0.08277914892782284    0.114302970414406    0.15272099465462427    0.185172308521723    0.19797564315369356    
  0.18517231696208236    0.15272099196140596    0.11430295820278476    0.08277915783911478    0.06392444641366446    
  0.05878336426137184    0.06894065562962466    0.09984411738067143    0.16045500899287518    0.2513834289233858    
  0.3423146532137195    0.38962469938799776    0.3983854011749739    0.2894110909104364    0.27124836798529434    
  0.2221692532796524    0.1604550037300998    0.10718744235191327    0.07188539098387564    0.05323617319637026    
  0.04691440051221157    0.05009518875539781    0.0616288984866096    0.08033772661257504    0.10252941901931058    
  0.12109547214826563    0.12841806590678442    0.12109547559935101    0.1025294213148519    0.08033772661561683    
  0.061628900123793906    0.05009518049721913    0.046914416868694665    0.05323617758656546    0.0718853937978733    
  0.10718742228196394    0.16045502720619592    0.22216924452998976    0.271248377129306    0.2894110909104364    
  0.1690880165784608    0.15874606196475674    0.13206858387673379    0.09984411673747465    0.07188538114241237    
  0.05252295905248202    0.0417905727824696    0.03801082300737419    0.039782348472379846    0.046324649998407075    
  0.0565951045975868    0.06831743527769531    0.07788911571710698    0.08161961357740685    0.07788909550845442    
  0.0683174347904854    0.056595093326920996    0.04632465334061383    0.03978234391246755    0.03801082992456414    
  0.041790571037201345    0.052522956698156785    0.07188538100787922    0.09984413053408027    0.1320686039581792    
  0.15874608743662016    0.1690880165784608    0.10612169173679993    0.10061665143406966    0.08640385392439894    
  0.06894064735367321    0.05323617845625519    0.04179057787840237    0.035060886005207195    0.032499619181350116    
  0.03337270330627775    0.03704817232077992    0.04268947746949284    0.048931041552786304    0.053897176297288435    
  0.05579612234743364    0.05389717714186674    0.04893104049881747    0.042689471572367244    0.0370481881714377    
  0.03337268600082424    0.03249962152682294    0.03506088717983782    0.04179058401317341    0.0532361723557628    
  0.06894065993355351    0.08640386452258737    0.10061662558233056    0.10612169173679993    0.08619836040159078    
  0.08211989162496089    0.07169462977933465    0.058783372107657814    0.04691441023235039    0.03801082916126765    
  0.032499617025527    0.030124643072498878    0.030382083368050962    0.032681789555546216    0.03628888436892748    
  0.04022553830347977    0.043295748182698206    0.04444926725436325    0.04329575748063059    0.04022553568555419    
  0.03628889062495388    0.03268179822198326    0.03038207868915206    0.030124645462663524    0.032499616092949164    
  0.03801082730976446    0.0469144023970618    0.0587833789064482    0.07169462017330193    0.08211987766753182    
  0.08619836040159078    0.09602740652904376    0.09120738929847585    0.07899400787360036    0.06392445115772276    
  0.0500951815167748    0.039782351163811236    0.03337269517617229    0.03038208073955571    0.030146231976834394    
  0.032013956456305864    0.035198705010559946    0.03870207165898579    0.041431552782964426    0.04245786292130555    
  0.04143155249365044    0.03870208284152238    0.035198701981488806    0.032013960605614594    0.03014622124128623    
  0.03038207905839163    0.03337269200271293    0.03978235931146122    0.05009517833607934    0.06392445900101533    
  0.07899401102355257    0.0912073906203797    0.09602740652904376    0.13352006809931094    0.12587467016382756    
  0.10645163689336219    0.08277914920137346    0.06162889347585495    0.04632464955042615    0.0370481722896923    
  0.03268179263309513    0.032013959219716    0.03407490567799588    0.03786491500628692    0.04215481165409037    
  0.045548554852822505    0.04683424733410676    0.045548531429041084    0.04215479811473943    0.03786491126530783    
  0.03407490363121534    0.032013959494864505    0.032681790896057064    0.03704817882306313    0.04632464845072664    
  0.061628897643814705    0.08277916043768715    0.10645163336481674    0.12587464945812446    0.13352006809931094    
  0.19777047045476978    0.1852862296649984    0.15323779911063232    0.11430296549119259    0.08033773530330866    
  0.05659509311911446    0.042689479703275336    0.03628888373588291    0.035198708114959516    0.03786492040729231    
  0.04299215728232422    0.04898428648686253    0.05380979907691863    0.05565316233783764    0.05380978317522672    
  0.04898427936584397    0.042992146666370926    0.03786492106826605    0.03519870458651719    0.036288882031246236    
  0.04268948088582787    0.056595093327673415    0.0803377304680558    0.1143029674113569    0.15323778712179142    
  0.18528622245855522    0.19777047045476978    0.2738002665273334    0.2564610269561754    0.21034601247539153    
  0.15272101506115435    0.10252941710915682    0.06831743471444603    0.048931047197908764    0.040225531757586135    
  0.03870208004938565    0.04215480058000488    0.04898428694543602    0.057122531924654954    0.06377745175964174    
  0.06635980336096067    0.06377746236981971    0.05712252568747603    0.04898427930321631    0.04215481315355322    
  0.03870207673872023    0.04022554264054835    0.04893103770986696    0.06831743537656972    0.10252943475949522    
  0.15272101502018023    0.21034600674124185    0.2564610210012174    0.2738002665273334    0.33068904375482716    
  0.31175218531967025    0.25743553551462056    0.18517229063549753    0.12109547439073103    0.07788908375920678    
  0.0538971685323103    0.04329574743107789    0.04143154351610143    0.04554854255222643    0.05380977946453445    
  0.06377743722979232    0.07200677866980884    0.07522319052903319    0.07200677688281387    0.06377742712125266    
  0.05380977803537102    0.04554853445181037    0.04143153950680914    0.04329575185299285    0.053897176049082895    
  0.07788909787253309    0.12109546408292388    0.18517227466011058    0.2574355371194675    0.31175217628206775    
  0.33068904375482716    0.35018628630067944    0.3316150909512624    0.2755283546913105    0.1979756596385149    
  0.12841805347270052    0.08161960846119709    0.05579613848495005    0.04444926651559583    0.04245785119226619    
  0.046834253977299345    0.0556531712519004    0.06635983926845429    0.0752232155557771    0.07869547306602996    
  0.07522321027457392    0.06635984146826734    0.05565317275446548    0.046834246273825215    0.04245785838252089    
  0.04444926961378608    0.05579613881798016    0.08161962075870947    0.12841805129739609    0.19797568249393088    
  0.27552831582458287    0.33161513451866675    0.35018628630067944    0.3306890133413508    0.31175221270075976    
  0.25743550583966357    0.1851722990772129    0.12109549044782618    0.07788908466215011    0.05389716618951151    
  0.04329575112336191    0.04143154530605307    0.045548540807721874    0.05380977577793538    0.06377742979947991    
  0.07200678118362273    0.07522317219365059    0.0720067790387865    0.06377744602243297    0.05380977876124463    
  0.04554854947315779    0.04143154191684027    0.043295750933036094    0.053897168791002883    0.0778890905034229    
  0.12109546787580751    0.18517227191801958    0.2574355334370765    0.3117521967010594    0.3306890133413508    
  0.2738002699439637    0.2564610218332962    0.2103460125328001    0.1527210019079413    0.10252943938298545    
  0.0683174311607251    0.0489310335761039    0.04022553629191065    0.0387020741621106    0.042154803025003594    
  0.04898428173055208    0.05712253369995973    0.06377747527660936    0.06635982991460206    0.06377743849325918    
  0.05712253438988991    0.048984281509453755    0.042154813148846206    0.03870207734867768    0.040225536974152015    
  0.04893104753773994    0.06831743094855208    0.10252942184095157    0.1527209962840499    0.2103460296828397    
  0.2564610045434802    0.2738002699439637    0.1977704770969467    0.18528623012387294    0.15323778620544923    
  0.11430295982492097    0.08033773734393274    0.05659509501677249    0.04268947590136125    0.03628888655095803    
  0.03519870697162637    0.037864917142860596    0.04299215964382189    0.04898427693934261    0.05380978725432347    
  0.05565316452551429    0.053809780536969574    0.04898427665777311    0.042992145780206485    0.03786492551347767    
  0.0351987061226944    0.03628888143575366    0.042689473742324145    0.05659509485514495    0.0803377247993616    
  0.11430297370951074    0.1532377708426439    0.1852862215226126    0.1977704770969467    0.13352005070621947    
  0.1258746718741551    0.10645163863415949    0.0827791530992139    0.06162889765554822    0.04632464597196824    
  0.037048188710350316    0.032681792087985266    0.0320139585574722    0.03407491138175872    0.03786492964853244    
  0.04215480774715189    0.04554854415789324    0.046834238764243176    0.0455485399554644    0.04215480241787198    
  0.03786492890104189    0.034074904706841706    0.03201395386419734    0.032681799340403224    0.03704818321328373    
  0.04632464883349826    0.061628897061229745    0.08277916137727573    0.10645162918269888    0.1258746468454383    
  0.13352005070621947    0.09602742452123113    0.09120739515879756    0.07899400209115119    0.06392445425628603    
  0.0500951831385611    0.03978235056595423    0.03337269217848202    0.030382078698150995    0.03014622399391299    
  0.03201395152976748    0.035198706767269244    0.03870207745978769    0.04143155678523844    0.04245785871558227    
  0.04143154560203139    0.03870207968078057    0.03519870904538323    0.03201396166397213    0.03014622134021692    
  0.030382084365541913    0.03337269586418283    0.03978234745634903    0.050095177354707705    0.06392445671458942    
  0.07899400679305954    0.09120738923031003    0.09602742452123113    0.08619834631473718    0.08211988054790066    
  0.07169462521467646    0.058783354257911806    0.0469144151960081    0.03801083027394148    0.03249962372726973    
  0.030124644906828493    0.030382086786538958    0.032681789841347904    0.03628889086083909    0.04022554074246919    
  0.04329575356858631    0.044449269620489944    0.043295751740365096    0.04022553977663819    0.03628888505839851    
  0.03268179628139509    0.03038207031337181    0.03012465263902459    0.03249962515590282    0.03801083266971705    
  0.04691441076604795    0.0587833741397256    0.0716946346481679    0.08211987494407842    0.08619834631473718    
  0.10612169646020284    0.10061664862067073    0.08640384330982216    0.06894065981400183    0.05323618151840124    
  0.04179057811982448    0.03506088303044214    0.03249961911752605    0.03337270166140371    0.037048171961878665    
  0.04268947965813518    0.04893104681564856    0.05389717721308113    0.055796130164592124    0.05389717499892881    
  0.04893103980244553    0.04268947799878676    0.03704818429490877    0.03337268673725713    0.03249962395162449    
  0.03506088437600645    0.04179057071623389    0.05323616501237645    0.0689406703035102    0.08640385374781495    
  0.10061662792692651    0.10612169646020284    0.16908801805159104    0.1587460909950563    0.13206858039980696    
  0.09984412447462032    0.0718853801517195    0.05252295351353723    0.04179058291114951    0.0380108285664797    
  0.03978235343572926    0.0463246543764509    0.056595101403544464    0.06831742169637757    0.07788908923729664    
  0.08161961972315711    0.07788910790164134    0.06831743559932642    0.05659509358352422    0.046324661884908136    
  0.03978234314057093    0.0380108328515087    0.04179057575331914    0.052522964604868216    0.07188538329706977    
  0.09984412184702926    0.1320685813306552    0.15874607994292947    0.16908801805159104    0.28941106666274    
  0.27124838784551003    0.22216924503741067    0.16045501179611033    0.1071874455197824    0.07188537577516213    
  0.05323617240037525    0.04691440640428844    0.05009518370601206    0.06162889347208208    0.08033773148061325    
  0.10252943291090329    0.12109548641023327    0.12841805202759218    0.1210954779983674    0.10252940944674964    
  0.08033772385534625    0.0616289074603463    0.05009517976493891    0.04691440864878124    0.05323617053176467    
  0.07188538958234467    0.10718743447286999    0.1604550184778393    0.22216923011655798    0.2712483604801948    
  0.28941106666274    0.39838542218600365    0.3896246624556288    0.34231466591645365    0.25138339903896967    
  0.1604550190090445    0.09984412752160012    0.06894066043157109    0.058783373768448874    0.06392446034186411    
  0.08277915847154112    0.11430297809496641    0.15272097269569818    0.18517232065974726    0.1979756491712005    
  0.18517230420682307    0.1527209843282227    0.11430297698385164    0.08277915491207592    0.06392445284533868    
  0.05878337335285251    0.06894066738983205    0.09984412338008088    0.16045501684540703    0.2513834229228729    
  0.3423146472162563    0.38962469249709947    0.39838542218600365    0.30833016738041086    0.34999818128510984    
  0.4009987458649789    0.3423146821899675    0.2221692174562463    0.13206859589855413    0.08640386393325214    
  0.0716946255265367    0.07899399539218302    0.1064516411618113    0.15323780107855484    0.21034600014509477    
  0.25743554622370046    0.2755283319542957    0.25743553608208397    0.21034600774878365    0.1532377711325088    
  0.1064516630580312    0.078993997419185    0.07169462952358242    0.08640385214281748    0.1320685951192962    
  0.22216922234027553    0.34231468419470357    0.4009987511436834    0.34999814918815114    0.30833016738041086    
  0.1289189436496043    0.19292179550926508    0.3499981223126871    0.38962466253351746    0.2712483691130981    
  0.1587460770313182    0.10061663542925174    0.0821198726729623    0.0912073798347411    0.1258746481692912    
  0.1852862331821653    0.25646099732072386    0.3117521801115523    0.3316150908676978    0.311752156783516    
  0.2564610000543167    0.18528621490280298    0.12587466031539998    0.09120737604353231    0.0821198781656822    
  0.1006166315300105    0.15874607448233727    0.2712483507235511    0.38962468705906894    0.3499981141216595    
  0.19292180660123834    0.1289189436496043    0.0714221782145234    0.12891898137569596    0.30833019395098754    
  0.398385428926543    0.28941108750578187    0.1690880148540956    0.10612170735465426    0.0861983433836018    
  0.09602740573695841    0.1335200626209777    0.19777048366831146    0.27380026712343014    0.3306890736202761    
  0.3501863112690815    0.3306890709641272    0.27380026089527576    0.19777048155711843    0.13352005966349123    
  0.09602741322166118    0.08619834949331685    0.1061217028865644    0.16908803734568806    0.2894110752320922    
  0.39838549236001525    0.3083301300057617    0.12891898928024614    0.0714221782145234    0.13236023822961465    
  0.19667271108864906    0.3528151836739223    0.39012784464371886    0.2697408940620631    0.1550841870058008    
  0.09415846000221494    0.07091880551345871    0.07085943731734987    0.08831071463238224    0.12060663780128629    
  0.1611951303606261    0.19580490555167018    0.2095460938088598    0.19580489988494507    0.16119512653832277    
  0.12060663878369798    0.08831070752565716    0.07085943336049504    0.07091881795809311    0.09415846046907263    
  0.15508418952904676    0.26974087030403004    0.39012787191757786    0.35281515225902305    0.1966727068358516    
  0.13236023822961465    0.19636021368641585    0.2582474350106685    0.3806042053371518    0.3764334692542176    
  0.2524507618931814    0.14580344611235    0.08957299584556495    0.06798791938882778    0.06791878364685189    
  0.08413256409961631    0.11404555331807593    0.15151319316329676    0.18353455496469842    0.19630055343707797    
  0.18353457076080418    0.1515131740835706    0.11404556953245829    0.08413255507875947    0.06791878496907433    
  0.06798791294741507    0.0895729910540747    0.14580346783344986    0.25245074668863726    0.37643349214359706    
  0.38060420632420355    0.2582474536676355    0.19636021368641585    0.35186504904031296    0.3801436222238862    
  0.39880135461464133    0.32309303989162075    0.20664407888608632    0.12193588521473384    0.07765991818680715    
  0.060390923783539    0.060366386477672014    0.07340606301315339    0.09720241223913538    0.12673107702408182    
  0.15194265387367478    0.16202202479854347    0.15194263151477913    0.12673107841707454    0.09720242598317831    
  0.07340608476056973    0.06036637835305334    0.060390933291880576    0.07765993465370444    0.12193589206152544    
  0.20664407912753247    0.3230930205017101    0.3988013648758564    0.38014359553113103    0.35186504904031296    
  0.38965528724481646    0.37643316352776224    0.323363816331906    0.23482145738213256    0.1500051115683824    
  0.09312544598849264    0.06292268734868506    0.05084322726202142    0.05087307013430517    0.060089812898104306    
  0.07659316076188573    0.09669157633212541    0.11363657055746697    0.12035298019677713    0.11363657513921921    
  0.0966915838451706    0.07659315496499099    0.06008982067041391    0.050873066713796156    0.05084321774862263    
  0.06292269260315227    0.09312543478180882    0.15000511041993264    0.23482148069701975    0.3233638061508258    
  0.3764331442830719    0.38965528724481646    0.2725955774288975    0.25525798118252624    0.2088696422485068    
  0.15127661650465993    0.10164610784966067    0.06815499120761398    0.049634519817397284    0.041978284830967084    
  0.04199229033939481    0.04787830214261087    0.05817922918964888    0.07034454087939802    0.08038756568876447    
  0.08432375115540455    0.08038757223424649    0.07034453782662115    0.058179220480617126    0.04787830371940946    
  0.041992284467048585    0.04197829722714726    0.04963452270559722    0.06815499389946693    0.10164610962891793    
  0.15127662509847375    0.2088696283892791    0.25525800567816126    0.2725955774288975    0.16338718603210212    
  0.15345623627632513    0.12791007163505033    0.09702812262449903    0.07006963453135259    0.05108327273961782    
  0.04006807937770541    0.03534636952898219    0.03529939685533496    0.038853725174935766    0.044945097412536265    
  0.051915087275664025    0.05753198936983605    0.05969466022208015    0.057531974782564166    0.05191508684261349    
  0.044945089532997674    0.03885373631376847    0.035299394828360926    0.035346365195895464    0.04006807578085539    
  0.05108326646908096    0.07006963352993753    0.0970281329088471    0.12791006443608124    0.15345622579731286    
  0.16338718603210212    0.11013709360273907    0.10427891541154635    0.08928229268305034    0.07089511548651456    
  0.054331468077652184    0.04219841054046255    0.034809977180328286    0.031460094873672934    0.0312892854342617    
  0.03352964677028223    0.03733021012824667    0.04158689393007871    0.0449331960045692    0.04618436725048489    
  0.044933193259183886    0.04158689172397115    0.037330204804154    0.03352965311425815    0.03128927609857014    
  0.03146010100026904    0.03480997372507125    0.04219841409595348    0.054331458321682055    0.07089512814935522    
  0.08928230159602088    0.10427890002889555    0.11013709360273907    0.10010696293199237    0.09496462503959988    
  0.08190159693602976    0.06584825439761421    0.05122291818353668    0.04036072037940847    0.033584102396983465    
  0.03035110061261966    0.029943035711323226    0.03162843840343435    0.03459617208286806    0.03791065701967084    
  0.04049135866313693    0.0414474081099225    0.040491361890814134    0.03791065689004494    0.034596168486890136    
  0.03162844193883445    0.0299430343612517    0.030351106672796623    0.03358409938940959    0.04036071692030761    
  0.05122291503273404    0.06584826272121859    0.08190159668623792    0.09496461558950997    0.10010696293199237    
  0.1262474860596293    0.1191175169721724    0.10102807943489274    0.07900983186056804    0.059269869185536166    
  0.04485759926750393    0.03603456029123276    0.03180580282093796    0.031002911322907754    0.032683763605324635    
  0.035916063513995726    0.03959334823649578    0.042505182421130785    0.043611892420783525    0.04250517045296211    
  0.03959334999632533    0.035916061143839766    0.032683773420723906    0.031002899009433236    0.03180580539048256    
  0.03603456206286198    0.04485760281466953    0.059269864271832076    0.07900983369056906    0.10102808576138984    
  0.11911752185655688    0.1262474860596293    0.19344405597853392    0.18120710663583764    0.1498079468353996    
  0.11182444005846882    0.07876789629508171    0.05556240239911865    0.0418789675360022    0.035438840329180876    
  0.03404768303609312    0.036192591686711635    0.04062235887429658    0.045825535405062325    0.05002697484036517    
  0.05165049062718215    0.05002697159178851    0.04582552605790022    0.04062235429910825    0.036192590747381854    
  0.03404767905314104    0.03543883592672061    0.04187896916692879    0.055562396884068915    0.07876789246393519    
  0.11182445177530799    0.1498079574068953    0.18120708249946277    0.19344405597853392    0.29660776739638356    
  0.27836656452405995    0.22848232319290715    0.16489299363681176    0.1093484064933433    0.07164994867895869    
  0.0503474950984542    0.04059533774404288    0.03842404489887638    0.04138672525855768    0.0477850361340904    
  0.05553034313824488    0.06188816894589508    0.06436261394160112    0.06188817836552617    0.05553035210753018    
  0.04778503615487206    0.04138673241597781    0.03842404444712867    0.04059533755827596    0.050347491984941685    
  0.07164994515445874    0.10934839934465014    0.16489298812896655    0.22848229754364113    0.27836658116879776    
  0.29660776739638356    0.3846169396300473    0.3696108201947093    0.3149708555984694    0.2281353416997936    
  0.1457822765455668    0.09009542622665007    0.059661653514399414    0.04611362261422882    0.043098843639821936    
  0.04706891313606714    0.05580462002080319    0.06654894819477687    0.07549107414203782    0.07901928270939694    
  0.07549107156770324    0.06654895333133486    0.05580462636291121    0.04706892774684441    0.043098848181582085    
  0.04611362499384109    0.05966164521825893    0.09009542910670545    0.14578230937038822    0.22813535152243655    
  0.31497088026530207    0.3696108680516677    0.3846169396300473    0.4024145621098103    0.40362007799466443    
  0.37090144216624715    0.2786423595914745    0.1762414121894022    0.1052898639660612    0.06711111091955474    
  0.0504232355045596    0.046734032179462426    0.05154545539544083    0.06221140625334721    0.07546643304167552    
  0.08659864783530713    0.09102851011003836    0.0865986427546412    0.07546642339345216    0.062211405912072804    
  0.051545456059591745    0.04673402889334304    0.0504232427530745    0.0671111111328232    0.10528987639700037    
  0.17624139763752214    0.2786423741208238    0.370901419100348    0.40362009596442    0.4024145621098103    
  0.3927257520998359    0.4034736789481711    0.3868696596709756    0.29737675036466127    0.18814897341845707    
  0.11121919982316002    0.06997593863780031    0.05206146378276544    0.04811015165977795    0.05323318230786869    
  0.06463225615750484    0.07889011350505537    0.09091207454307661    0.09569744602465635    0.09091207012694692    
  0.07889011291353117    0.06463225993387622    0.05323317021410241    0.048110145215678565    0.05206146493775279    
  0.06997594564036205    0.111219208861397    0.18814893888247877    0.2973768000260764    0.38686963098791693    
  0.4034737247055105    0.3927257520998359    0.40241453431912044    0.40362010147937466    0.3709014206197055    
  0.2786423453862837    0.17624142877364354    0.10528985976491835    0.06711111184749821    0.05042323479932107    
  0.0467340382511653    0.051545457716304255    0.06221141454333953    0.07546643276815615    0.0865986418468554    
  0.09102851189367679    0.08659865314512176    0.07546642065901561    0.062211393601992716    0.05154546816373465    
  0.04673403341575383    0.05042323660005544    0.06711111621474238    0.10528986649687844    0.1762414068185447    
  0.2786423646859064    0.3709014748396259    0.4036200990803665    0.40241453431912044    0.3846169737500543    
  0.3696108454151071    0.3149708379673755    0.22813534741139255    0.14578231350260853    0.09009542986627922    
  0.05966164200758779    0.04611362577380593    0.04309884996765219    0.047068916817142835    0.055804613937716206    
  0.06654896396916453    0.07549107382772896    0.07901928296713666    0.07549106653079211    0.06654895077953694    
  0.05580462110424089    0.0470689229193725    0.04309884510361855    0.04611362880012997    0.05966166027646432    
  0.0900954303756948    0.14578231043416628    0.22813532440788764    0.31497090384697707    0.3696108139901871    
  0.3846169737500543    0.2966077974895374    0.2783665663672864    0.22848228953638403    0.16489298221756762    
  0.10934840735271627    0.07164994577260618    0.05034748676975369    0.04059534149820274    0.038424044505104615    
  0.041386729965863026    0.047785040013338144    0.05553032563390065    0.0618881807802837    0.06436263238612108    
  0.061888172261640007    0.05553033612706198    0.04778502743325984    0.04138672892777849    0.038424044443573134    
  0.04059533686085997    0.050347489883234106    0.07164994840543526    0.10934840637303737    0.164893009703783    
  0.22848229830313002    0.27836658245979184    0.2966077974895374    0.19344406438921058    0.1812071202167296    
  0.149807954070769    0.11182444707462699    0.07876789151563479    0.05556239959335968    0.04187896970184704    
  0.03543884224252656    0.034047684960890875    0.036192595284624714    0.04062236115382005    0.045825527837765084    
  0.05002697364706189    0.05165049523946609    0.050026972652991525    0.04582553301331417    0.04062236192806871    
  0.03619259440603956    0.03404768227932864    0.03543884823073832    0.04187897575094598    0.055562397608307175    
  0.07876788736514527    0.11182445445163618    0.14980794275781822    0.18120709626865436    0.19344406438921058    
  0.12624749261623658    0.11911752177366382    0.101028068658756    0.0790098388594585    0.05926986512091733    
  0.04485760593214648    0.03603456540754566    0.031805798226376365    0.031002903453829327    0.032683762604041794    
  0.03591607073417953    0.039593348159175396    0.04250518965890805    0.04361189700229494    0.042505164219050505    
  0.039593349412499174    0.03591606814473863    0.03268377491008179    0.031002903853613248    0.031805807069264516    
  0.03603455572836059    0.044857598703340974    0.059269863468237774    0.0790098383077793    0.10102807434479899    
  0.11911750783297619    0.12624749261623658    0.10010694913146163    0.0949646339713541    0.08190159926528677    