#     DFTpy    
  CRYSTAL 
    
  PRIMVEC    
  6.4785517241379305    0.0    0.0    
  0.0    6.4785517241379305    0.0    
  0.0    0.0    6.4785517241379305    
  PRIMCOORD    
  8    1    
  Si    0.0    0.0    0.0    
  Si    1.6196379310344826    1.6196379310344826    1.6196379310344826    
  Si    0.0    3.2392758620689652    3.2392758620689652    
  Si    1.6196379310344826    4.858913793103448    4.858913793103448    
  Si    3.2392758620689652    0.0    3.2392758620689652    
  Si    4.858913793103448    1.6196379310344826    4.858913793103448    
  Si    3.2392758620689652    3.2392758620689652    0.0    
  Si    4.858913793103448    4.858913793103448    1.6196379310344826    
  BEGIN_BLOCK_DATAGRID_3D    
  3d_datagrid_density    
  BEGIN_DATAGRID_3D#0    
  29    29    29    
  0.0    0.0    0.0    
  6.4785517241379305    0.0    0.0    
  0.0    6.4785517241379305    0.0    
  0.0    0.0    6.4785517241379305    
  0.07778094647508116    0.13323714547729593    0.3102527176088797    0.4254391675760896    0.3295328904433794    
  0.1910025177579571    0.1037935558668031    0.05954258934377863    0.03835689559136395    0.028225295839888837    
  0.023243870925274426    0.020782980242406636    0.019564291604282337    0.01898777618183195    0.018820087168173603    
  0.018987872286548697    0.01956409430442842    0.020783266696959738    0.023243488269533426    0.028225789311975676    
  0.0383562981301689    0.05954331343167133    0.10379260340009212    0.19100372286456746    0.3295316264378695    
  0.4254402359841895    0.3102520213319519    0.1332374407812755    0.07778094647508116    0.13323731246162177    
  0.1951100098598525    0.3563798573582498    0.42466648805900065    0.3146678931408453    0.18275391801923313    
  0.10104964778813325    0.059191157131852065    0.038788175575304056    0.028826501872860292    0.023786122536861583    
  0.021199454393093186    0.01984835678800444    0.019184340594681097    0.01898783838303224    0.01918424045699587    
  0.019848568571747334    0.0211991613092315    0.023786496928052722    0.02882602514822876    0.038788785897332485    
  0.059190411640773134    0.10105060417717925    0.18275280457823012    0.31466917556610136    0.42466528732468345    
  0.35638053011798126    0.1951097337229648    0.13323731246162177    0.3102522114183435    0.35638004900836723    
  0.4279916105853803    0.3935964021504477    0.27089352138832645    0.16085519847883736    0.09394709025031689    
  0.058379019851065084    0.04009944913266048    0.0305890785339059    0.025399637567137354    0.022453722576969128    
  0.020752764870129236    0.019848414287782813    0.019564170643186073    0.019848519769672758    0.02075257880505163    
  0.0224540205511363    0.02539927273584753    0.030589583476331873    0.040098829277700816    0.05837974646553039    
  0.09394619526760277    0.1608563339202041    0.2708923399642851    0.3935975052392453    0.4279907028706871    
  0.35638043652603774    0.3102522114183435    0.425439829333802    0.4246659267107953    0.3935966486050466    
  0.30941620911351886    0.20961974929317428    0.13274645713485075    0.08495354128187875    0.0577259832728504    
  0.04242646130213582    0.033563566169268595    0.028128402299781936    0.02466217231038825    0.022453782670448386    
  0.02119933295156083    0.02078315297704338    0.021199258862040757    0.02245398820195778    0.02466186102839186    
  0.02812881809066996    0.033563054864717536    0.04242707996414409    0.05772523179640597    0.08495439184050319    
  0.13274550164445015    0.209620842281242    0.30941525449942436    0.3935973753568487    0.42466554477419216    
  0.425439829333802    0.3295320035339253    0.31466849097746885    0.2708932190154816    0.2096199454419264    
  0.15077911080574657    0.10610381638853848    0.07639711230889648    0.05772458224241696    0.0458230937704278    
  0.03780687836488702    0.032154096834019846    0.028128465109772214    0.025399549760883176    0.023786281987256068    
  0.023243668803875815    0.02378639677701441    0.02539934611745726    0.02812877888941389    0.032153667950263275    
  0.03780742061590009    0.04582245773142994    0.05772529399095967    0.07639630701931659    0.10610472000152027    
  0.1507782418338733    0.20962079547550527    0.27089249322395487    0.3146689367473404    0.3295320035339253    
  0.19100334102437566    0.1827532520089982    0.1608556125874952    0.1327462014985395    0.10610389965365613    
  0.0848803504719699    0.0694262634823387    0.058380441069489336    0.0500175850376099    0.043281665241679916    
  0.03780690369568055    0.033563513907298836    0.030589209872409266    0.028826314142736457    0.02822554676168659    
  0.028826195271734675    0.030589434164775164    0.03356315331873383    0.03780735782740627    0.04328108579249447    
  0.050018255850860005    0.05837967970551726    0.06942704346638608    0.0848796156110331    0.10610466585471519    
  0.13274555585420394    0.16085609925733954    0.18275301825011853    0.19100334102437566    0.10379288068051333    
  0.10105020254951233    0.0939467167062986    0.084953787316977    0.07639701772114586    0.06942632216963004    
  0.06393659349059344    0.05918971804076513    0.05458551958723172    0.05001760322459906    0.045823042489125596    
  0.04242656325864513    0.04009930751983274    0.038788408788324326    0.03835659668988351    0.03878854614222538    
  0.04009905116118672    0.042426964567824306    0.045822528349787325    0.050018212388992185    0.054584820670132775    
  0.05919045404385433    0.06393588173859713    0.06942704370722798    0.07639634986700249    0.08495432798894553    
  0.09394632220530838    0.10105041819773845    0.10379288068051333    0.059543126235988876    0.05919069765516594    
  0.05837933297483348    0.057725737913783735    0.057724727671998675    0.05838033365213228    0.05918970696400648    
  0.05954408125642989    0.059189676122159786    0.0583804592307417    0.05772456327594096    0.05772586638268106    
  0.05837916935636221    0.059190906412449874    0.05954291509504479    0.05919075455621024    0.05837949461209859    
  0.05772541020676427    0.05772512533068214    0.058379781443103775    0.059190426049011945    0.05954330188091928    
  0.05919043826873585    0.058379690612600954    0.057725279508143226    0.05772526036745219    0.05837965604844035    
  0.05919055118776546    0.059543126235988876    0.038356449100853826    0.03878854565781684    0.04009918601353363    
  0.04242666353693852    0.045822970768433856    0.05001766816943    0.05458547726434997    0.05918967785762752    
  0.06393667111501278    0.06942620079043492    0.07639713501728655    0.08495360900588386    0.09394695055481549    
  0.10104994538990454    0.10379312441787693    0.10105015862574925    0.09394657776061144    0.08495413609095841    
  0.07639647294223469    0.06942693228476479    0.06393592971302504    0.05919041618408991    0.05458481138064831    
  0.05001828928258621    0.045822434418647535    0.042427065247664146    0.040098907710751745    0.038788691779097426    
  0.038356449100853826    0.028225655583086432    0.028826197182353033    0.030589325856929552    0.033563396458921    
  0.03780698386061261    0.04328160295740399    0.05001760226590191    0.0583804424947563    0.06942619311444524    
  0.08488051551091749    0.10610367695764344    0.13274649175384537    0.16085531560657285    0.18275368497811612    
  0.19100292728923088    0.1827533698316406    0.16085583891700947    0.1327458382107397    0.10610446139189618    
  0.08487972894102493    0.06942694554229448    0.058379702849787475    0.050018259039514366    0.04328104321989885    
  0.03780745169381345    0.03356305575422147    0.03058954989787513    0.02882607690230725    0.028225655583086432    
  0.023243558933614523    0.023786369892800613    0.025399461171275558    0.02812852742099605    0.03215403165892637    
  0.037806918376999496    0.04582308161987978    0.05772452342749553    0.07639723298892502    0.10610364194255072    
  0.15077935773893422    0.20961961806105595    0.27089361253920313    0.3146680725275959    0.3295324365302947    
  0.3146684436864112    0.2708929436031564    0.20962043434905064    0.1507784801316873    0.10610453326963543    
  0.07639642882614979    0.05772525310861727    0.04582243158695613    0.03780746174350248    0.03215359170634419    
  0.028128844050780973    0.025399241372822068    0.023786481419803718    0.023243558933614523    0.020783238722564174    
  0.021199255635389876    0.022453851963728132    0.024662100262376117    0.0281284676190869    0.03356353777990079    
  0.042426450536967794    0.057726010873714    0.08495341952414132    0.13274667391892817    0.20961947497989944    
  0.30941669258909527    0.3935961509752497    0.4246666171903894    0.4254392505521764    0.4246661895221637    
  0.39359684931852634    0.3094156774697876    0.20962049992465515    0.1327456901226797    0.08495429709101045    
  0.057725304676734784    0.04242706679119334    0.03356303590470609    0.02812886995750865    0.02466180355222661    
  0.0224540509021861    0.021199167780913672    0.020783238722564174    0.019564074211685614    0.019848484996944138    
  0.020752706825184885    0.022453800029681635    0.025399599833843087    0.030589111533297225    0.040099471642364444    
  0.05837895248813468    0.09394724243172513    0.16085503108885557    0.2708939107330212    0.3935959126257713    
  0.42799213134178443    0.3563794330452831    0.3102527967790012    0.35637984130706063    0.4279913581947365    
  0.39359691963943877    0.27089266950964025    0.16085610871399023    0.09394631654257835    0.05837969918170138    
  0.040098852132265245    0.030589612059652646    0.025399223197761646    0.02245408059177236    0.020752498964026717    
  0.019848607102499784    0.019564074211685614    0.018987915950660985    0.019184255855195658    0.01984843950384224    
  0.021199390505433787    0.023786149633372264    0.028826487803830084    0.03878816775289823    0.05919123613066602    
  0.1010495253194454    0.1827541845510027    0.314667477540453    0.4246670542568586    0.3563792323919113    
  0.19511048159325672    0.1332368897132698    0.19511019266717494    0.35638000428254446    0.42466586669894213    
  0.31466867329743026    0.18275301305262917    0.10105046023336918    0.05919048853947828    0.038788759188130455    
  0.02882601593065946    0.023786552643928302    0.021199118607882    0.01984862086479908    0.019184168592490867    
  0.018987915950660985    0.018820036252683768    0.018987846672849435    0.019564219566611255    0.020783039482921633    
  0.023243834426230126    0.028225310378955183    0.0383569177130691    0.05954249381504752    0.10379370713520253    
  0.19100228789567086    0.3295332413469907    0.425438591907679    0.31025327206740033    0.13323670790431427    
  0.07778130479876567    0.13323700372689445    0.3102525704619656    0.42543961633851407    0.3295319513689532    
  0.1910034882845285    0.10379273512175036    0.059543239667562295    0.03835630634510221    0.02822578500179316    
  0.023243470576149658    0.02078331267616837    0.019564029138541442    0.01898794426010892    0.018820036252683768    
  0.018987876255233554    0.019184301516708066    0.019848404511749466    0.0211994216936707    0.02378613793216495    
  0.028826530594091862    0.038788128494639536    0.05919128460729149    0.10104945076323121    0.1827542418395298    
  0.3146674244848329    0.42466719317886553    0.35637910797813416    0.19511057587306652    0.13323681619150793    
  0.19511030940321886    0.3563798683757086    0.4246659696409117    0.3146685733147526    0.182753089010345    
  0.10105038459413022    0.05919053592294413    0.03878872187618732    0.028826051768104252    0.023786510457847146    
  0.02119914267348578    0.01984860161417536    0.019184203386284345    0.018987876255233554    0.01956414197932345    
  0.0198484436904538    0.020752777283806263    0.022453731540293363    0.025399675575522678    0.030589051510225205    
  0.04009956416863472    0.05837885087516779    0.09394735276154181    0.1608548475666137    0.2708940762905277    
  0.39359561965576007    0.4279923576971797    0.3563793007226821    0.3102530545600385    0.3563796543395967    
  0.427991609305738    0.39359676049886966    0.2708929290124087    0.1608559489041005    0.093946433179449    
  0.05837959996094644    0.04009896245398811    0.03058954253478096    0.025399297593559914    0.02245403064542297    
  0.020752557418538854    0.019848539304105992    0.01956414197932345    0.020783148410748027    0.02119935086104712    
  0.022453760962874686    0.024662196377512175    0.028128354997623162    0.03356365646074318    0.04242632708884439    
  0.05772615540482742    0.0849532384145372    0.13274689512072954    0.2096191665409682    0.3094169624621254    
  0.3935957192373868    0.4246668827463248    0.4254389062018281    0.42466652055479565    0.39359647623573923    
  0.3094159839141653    0.20962026213532073    0.13274591987267856    0.08495411173823109    0.05772544255107118    
  0.04242693965115761    0.03356314687704438    0.02812877276139086    0.024661899680839372    0.022453972593563354    
  0.021199244606869578    0.020783148410748027    0.023243682658276935    0.023786258368571192    0.02539959760983212    
  0.02812840346497781    0.032154164046389655    0.03780678272552172    0.04582324680365667    0.05772435218571908    
  0.0763974306749462    0.10610340587099772    0.15077965997557302    0.20961927610727216    0.270893959309003    
  0.31466764637894223    0.3295328748506471    0.3146679928740389    0.2708932414394599    0.2096200860182605    
  0.15077878450252125    0.10610429183089641    0.0763966049781074    0.0577250837700454    0.04582259452286694    
  0.03780732666663026    0.032153738197040926    0.028128729646604293    0.025399381751074562    0.023786374224366757    
  0.023243682658276935    0.02822551195753163    0.028826339266814657    0.030589185772042837    0.03356355234873993    
  0.03780681278874834    0.04328179123351118    0.050017422742213026    0.0583806873781394    0.06942596724931355    
  0.08488075952046396    0.1061033946072229    0.13274681688273174    0.16085497138091703    0.18275400496358438    
  0.19100259491820787    0.18275370892170079    0.16085548391374174    0.13274611436937267    0.10610418703294265    
  0.08487997788953473    0.06942672936200614    0.05837991271599922    0.05001806730429001    0.04328121051708892    
  0.037807288390296755    0.03356321126094541    0.030589401459606185    0.02882623525892112    0.02822551195753163    
  0.038356638251154304    0.0387883727822553    0.04009937642690495    0.04242648021458571    0.0458231653033836    
  0.05001745942673596    0.05458569917099151    0.05918946581070392    0.06393693230134052    0.06942597492124616    
  0.07639739440762458    0.08495331928610945    0.09394720728006578    0.10104962905194699    0.103793438492731    
  0.10104984555358466    0.09394684286634807    0.08495385653676522    0.07639675342471136    0.06942668522742708    
  0.06393615914482242    0.059190218181356495    0.05458500687077058    0.050018083759595426    0.045822647294185184    
  0.04242687117468705    0.04009910201724915    0.03878850684094435    0.038356638251154304    0.05954287716342509    
  0.0591909442346608    0.058379112642537354    0.05772596895296465    0.05772445787817036    0.058380585617497704    
  0.05918948771202472    0.059544309919070525    0.059189429933896594    0.058380694103627395    0.05772432851400657    
  0.05772609629110235    0.05837891806787506    0.05919113615910804    0.05954268842379842    0.05919097286431548    
  0.0583792597070193    0.05772563182523952    0.05772491216297617    0.05838000882214565    0.059190158053669    
  0.059543530026767766    0.05919020589376752    0.058379923831833255    0.05772503877473631    0.05772548606772186    
  0.05837943736776578    0.059190795090831326    0.05954287716342509    0.10379317873313675    0.10104989636641479    
  0.09394703694236048    0.08495351052077554    0.07639725746639126    0.06942609893211854    0.0639368594992354    
  0.05918946949811019    0.05458575209891511    0.05001737793135372    0.04582324673822839    0.04242636652702387    
  0.04009949702165973    0.03878821997507598    0.038356784828090046    0.0387883642539767    0.04009922909909712    
  0.04242673520355547    0.045822730338388094    0.05001801919854373    0.05458502509252348    0.0591902171330224    
  0.06393609937853979    0.06942679996176097    0.07639659729029843    0.08495405784570445    0.09394659292935079    
  0.10105011963356961    0.10379317873313675    0.19100295236537077    0.18275362474298856    0.1608553385531018    
  0.13274653413140483    0.10610361271396206    0.08488061946999687    0.06942605024763254    0.058380650760310626    
  0.05001739809088732    0.043281831516132754    0.037806748824842765    0.033563654284216815    0.03058906793404161    
  0.028826461681273077    0.028225409026509492    0.028826340029532493    0.03058928473076118    0.033563307584669085    
  0.03780720347701415    0.043281236627214885    0.050018059547077436    0.05837987596469017    0.06942680617432538    
  0.0848798522988541    0.10610439279088985    0.13274586437307662    0.16085581831589532    0.1827533480400983    
  0.19100295236537077    0.32953235750339493    0.31466817258414703    0.2708935589596588    0.20961955581209085    
  0.15077938146483408    0.10610355210951378    0.07639733607431447    0.0577243853618364    0.045823253550145084    
  0.03780674235826214    0.032154223194871205    0.028128324445274258    0.025399672420788416    0.023786153792729227    
  0.023243779036258756    0.023786259112106977    0.025399461554198383    0.028128637412231275    0.03215379218879394    
  0.03780727839436769    0.04582260327745577    0.05772513089364104    0.07639649462114738    0.10610444921880016    
  0.15077850554067448    0.20962047475202175    0.27089287393928196    0.3146685459191639    0.32953235750339493    
  0.4254395536817098    0.4246663238857672    0.3935962863122684    0.30941648100157454    0.20961949188157966    
  0.1327466861412191    0.0849533535249518    0.05772612910987769    0.04242633539478946    0.03356366405996068    
  0.028128310569285105    0.024662281192053884    0.022453688172175145    0.021199442766823066    0.020783071230260783    
  0.02119933405797953    0.022453894804906418    0.024661942081374212    0.028128725378730443    0.03356316152943872    
  0.04242696000813432    0.05772539056293128    0.08495420729366338    0.13274570820348963    0.20962055675063326    
  0.30941558952266995    0.39359706045450177    0.4246659315238928    0.4254395536817098    0.31025244503670574    
  0.35637982215286    0.4279918597304216    0.3935960794093578    0.2708936831493627    0.1608550485390733    
  0.09394723824373044    0.05837891683295334    0.040099529517581986    0.030589026034536466    0.025399706712073495    
  0.02245368287962735    0.020752832744656016    0.019848357658246184    0.01956424039050772    0.019848456605726254    
  0.02075263309735412    0.022453966341428436    0.025399324855482217    0.030589526694741378    0.04009891353774371    
  0.05837963740058242    0.0939463299515095    0.16085615342032594    0.27089253550211073    0.3935972057717888    
  0.42799095338247667    0.35638021074307497    0.31025244503670574    0.13323724351545346    0.19511007745161754    
  0.35637972605530377    0.42466661097821434    0.3146677969653605    0.18275399727333133    0.10104959098527586    
  0.059191222337819274    0.03878814109609559    0.02882653557867396    0.02378609220164738    0.021199469059812518    
  0.019848336654317903    0.019184372010856838    0.018987813495782224    0.019184273772509107    0.019848540950120674    
  0.02119920698646431    0.023786468908688827    0.02882606260344994    0.038788744535684476    0.05919044850025131    
  0.10105056670423204    0.18275289018821808    0.31466905935957823    0.4246655076564951    0.356380442636404    
  0.195109812799758    0.13323724351545346    0.07778094647508116    0.13323714547729593    0.3102527176088797    
  0.4254391675760896    0.3295328904433794    0.1910025177579571    0.1037935558668031    0.05954258934377863    
  0.03835689559136395    0.028225295839888837    0.023243870925274426    0.020782980242406636    0.019564291604282337    
  0.01898777618183195    0.018820087168173603    0.018987872286548697    0.01956409430442842    0.020783266696959738    
  0.023243488269533426    0.028225789311975676    0.0383562981301689    0.05954331343167133    0.10379260340009212    
  0.19100372286456746    0.3295316264378695    0.4254402359841895    0.3102520213319519    0.1332374407812755    
  0.07778094647508116    0.13323725400353892    0.1951100583691595    0.3563797811040173    0.42466650986654003    
  0.31466778142171986    0.18275393181147392    0.10104961990918183    0.059191221128991424    0.03878815816774162    
  0.02882651948418492    0.023786108048227225    0.021199466176544376    0.019848348621276893    0.01918436522930238    
  0.018987813578281366    0.01918426903526923    0.01984853908956178    0.021199177167542417    0.023786475462208294    
  0.02882606130877163    0.038788765944388494    0.05919043018027727    0.101050581734152    0.18275284374883627    
  0.3146691251487311    0.42466538872506776    0.35638046372258    0.1951098093497186    0.13323725400353892    
  0.19510986397530605    0.25906255247296395    0.3984035928236254    0.42877487392583813    0.3102392355274493    
  0.18366985770123026    0.10522553525402459    0.06393514558532039    0.04302604632372743    0.03224070615478711    
  0.026364773987568743    0.02301828702942838    0.02101225637065186    0.01980603129458618    0.01918430408725757    
  0.019036943373542097    0.019369035659958855    0.020377118776573007    0.022565665392347414    0.02701860076202824    
  0.03601560750167345    0.05458484143610883    0.09272411067992596    0.1673970024177921    0.2905458346537191    
  0.4088250869681629    0.3850156302003255    0.2540915196922648    0.19510986397530605    0.3563802072178129    
  0.3984032695007486    0.4483689428216374    0.39873444316487106    0.27772717584582873    0.17210512878343182    
  0.1062041804562826    0.06942779751442792    0.04923679127420894    0.037694824150938486    0.03060833426931449    
  0.026048846282352173    0.023006292885228215    0.021012211844273956    0.0198484741903592    0.019369061291161914    
  0.019520713525636134    0.020411483675909326    0.022417929687625016    0.026425451459039236    0.03429645269945186    
  0.0500182375231785    0.08130971368522008    0.14112896041139222    0.24162655197289648    0.3620046512123413    
  0.42027561563610444    0.38501578976223994    0.3563802072178129    0.4246657227577696    0.4287753766007629    
  0.3987341986589385    0.32024225765419473    0.22750612713463952    0.1540606208811232    0.10596829471622168    
  0.07639557387524534    0.05791578919891677    0.045606113016924535    0.03687291662208604    0.030546618889692113    
  0.0260487979447512    0.023018371641372277    0.02119930687045706    0.020377039477119087    0.020411525349754538    
  0.021279714194507745    0.02320988027102289    0.026825964187444495    0.033455714622436176    0.04582249274733325    
  0.06901495114501556    0.1110812459875323    0.1805107168512661    0.2742989138850784    0.36200471594952915    
  0.4088249248138764    0.4246657227577696    0.31466873353387886    0.31023856494524765    0.2777275399255801    
  0.22750594267589494    0.17661010485550674    0.13556902792473785    0.10596650678128833    0.08495520521862888    
  0.06901423201167277    0.05603905233260925    0.04535192181785592    0.036872896092235714    0.03060842918846983    
  0.026364627496998166    0.02378633317737723    0.022565817809835055    0.02241784427045047    0.023209938644770767    
  0.025005208192715764    0.028164831499526918    0.033455705582645906    0.042427066142819075    0.05791513004942123    
  0.08402123835089254    0.12480469991953311    0.18051076901733304    0.2416263893754748    0.2905461399902191    
  0.31466873353387886    0.1827531043067676    0.18367045611278557    0.17210465795205296    0.15406087444641522    
  0.13556892354033423    0.11959064803211789    0.10620601573071407    0.09394538389222333    0.0813105052473463    
  0.06830778739286943    0.05603902813566145    0.0456062138990434    0.03769469315484646    0.032240892166180576    
  0.028826258792753655    0.027018422137626806    0.026425556543830334    0.026825879216120785    0.028164860201518534    
  0.03054550357550833    0.03429645625157628    0.040098882907287345    0.049237438469549956    0.06339258296236074    
  0.08402123444924786    0.11108118854208414    0.14112902755980436    0.16739678701489974    0.1827531043067676    
  0.10105032189302192    0.1052250007381601    0.10620462748018247    0.10596800495516061    0.10596667817031591    
  0.10620595406081944    0.10522369890470261    0.10105151058609248    0.0927232087249744    0.08131051462447496    
  0.06901425229637637    0.057915706497202436    0.04923695766119592    0.04302581530753156    0.03878848102192266    
  0.0360158507544752    0.03429629440934505    0.03345586370149736    0.03345564040004458    0.03429650987299784    
  0.036015600693233306    0.03878879052430517    0.0430254594434895    0.04923743777259941    0.05791507628353288    
  0.0690150053013547    0.08130961969606554    0.0927242839950638    0.10105032189302192    0.05919063335781629    
  0.06393560208421621    0.06942740331129779    0.07639583305250715    0.08495502951543998    0.09394546248397295    
  0.10105145797683204    0.10379170354686851    0.10105149764092825    0.09394539354388964    0.08495513951805034    
  0.07639565017044604    0.0694276178524753    0.06393541336585963    0.059190815335547174    0.05458451449754435    
  0.050018502666999275    0.045822285799734144    0.0424271787141638    0.04009881239718868    0.03878880987878666    
  0.03835627425718848    0.038788762691346186    0.040098871983894786    0.042427082578388856    0.045822427065414374    
  0.05001832908203095    0.054584711742358516    0.05919063335781629    0.038788623620752916    0.04302565722116615    
  0.049237123901467277    0.057915549772533506    0.0690143817086485    0.08131043769452545    0.09272324579400411    
  0.1010515208953707    0.10522364836411022    0.10620609720711666    0.10596647498563957    0.10596824576098525    
  0.10620436804470189    0.10522526432777711    0.10105003468070149    0.09272454628446647    0.08130940658121119    
  0.06901519392949715    0.05791494035697157    0.04923752296255918    0.04302538052430176    0.03878879836235117    
  0.03601561550662336    0.03429644395836863    0.03345571355889126    0.03345573518843722    0.0342964110894737    
  0.03601570735310528    0.038788623620752916    0.028826129898050088    0.03224101934802476    0.03769457267630667    
  0.04560630334299617    0.056038915349470635    0.06830784127445748    0.08131052655448925    0.09394534046448093    
  0.10620610733944515    0.11959051524323933    0.135569121879038    0.15406062345148552    0.17210502423088686    
  0.18367009883722554    0.1827535012133902    0.1673964002811001    0.14112937685592924    0.11108092991787222    
  0.08402140416021775    0.06339246496837195    0.049237487629246506    0.04009883636386106    0.03429645448535713    
  0.030545553412328508    0.028164790596841228    0.026825960783952205    0.02642546352780817    0.027018541544342887    
  0.028826129898050088    0.02378642191813998    0.02636451975864132    0.03060851075781191    0.036872770592777264    
  0.045351981070675555    0.05603901299223119    0.06901419444169947    0.08495523522257749    0.10596638317186768    
  0.1355692247389136    0.17660981624404604    0.22750634389301858    0.27772711364708524    0.31023910500663254    
  0.3146681947324772    0.2905465925006641    0.24162600987769006    0.18051108872322436    0.12480444303816059    
  0.08402140477774606    0.05791506183637513    0.04242711288354059    0.033455710413711134    0.028164785970384396    
  0.025005265756305205    0.023209845711747445    0.022417923576950494    0.022565710389621716    0.02378642191813998    
  0.021199211258296848    0.023018474304426797    0.026048696424323    0.030546691205424154    0.036872866707107536    
  0.04560614332830779    0.0579158010536743    0.07639550013945764    0.10596840869598713    0.15406047092728878    
  0.22750647037823535    0.32024189011856424    0.39873480633937997    0.4287747819625692    0.42466637203547164    
  0.40882434627596953    0.3620052771032039    0.27429846081424974    0.18051096711280906    0.11108106676443319    
  0.06901504414014548    0.045822458740231144    0.033455713423151796    0.026825971389127058    0.023209851362165527    
  0.021279784195431056    0.02041144101667999    0.020377126686797874    0.021199211258296848    0.019848538892724293    
  0.021012107225898517    0.02300639426393254    0.0260487987550316    0.030608360760376353    0.03769480843580935    
  0.04923678754679689    0.06942786180800314    0.10620405978302976    0.1721054122997873    0.27772676156160453    
  0.39873496236310424    0.4483683757275633    0.398403869913981    0.35637965443897174    0.38501640348885385    
  0.42027507064238584    0.3620051050636846    0.24162616732055886    0.14112916086337385    0.08130961224250208    
  0.05001831001879849    0.03429642755078289    0.026425445525271193    0.02241797517434032    0.020411423234971197    
  0.01952076341805794    0.019368987477361148    0.019848538892724293    0.0191842289838265    0.019806106128159123    
  0.0210122103073867    0.02301832675144482    0.026364731610217892    0.03224072706036224    0.043026083987942734    