#     DFTpy    
  CRYSTAL 
    
  PRIMVEC    
  1.1837624439771133    -2.0503366970602674    0.0    
  1.1837624439771133    2.0503366970602674    0.0    
  0.0    0.0    2.2282236213103443    
  PRIMCOORD    
  1    1    
  Si    0.0    0.0    0.0    
  BEGIN_BLOCK_DATAGRID_3D    
  3d_datagrid_density    
  BEGIN_DATAGRID_3D#0    
  11    11    11    
  0.0    0.0    0.0    
  1.1837624439771133    -2.0503366970602674    0.0    
  1.1837624439771133    2.0503366970602674    0.0    
  0.0    0.0    2.2282236213103443    
  0.04917336156904125    0.09349460441652561    0.26256815059869837    0.45222008096555727    0.49458504896607325    
  0.48372424361869826    0.4945850199159899    0.4522200822405718    0.26256824560661934    0.09349459565976116    
  0.04917336156904125    0.09349456795664085    0.09345563917641166    0.2052309443152157    0.3977999594659807    
  0.4892353602301761    0.47920405862599147    0.47924090441472317    0.48921703535704286    0.3977134541643383    
  0.20527744752823004    0.09349456795664085    0.2625681558420167    0.20523095383521903    0.2627009996526312    
  0.3977192305716816    0.4819694981002258    0.4728955461086096    0.4557874991538474    0.4728714780022346    
  0.4820952565820793    0.3977134516944045    0.2625681558420167    0.45222011666568085    0.3978000983069046    
  0.3977192367420332    0.4521404489719732    0.489189199436371    0.4730092157422264    0.44563176732419857    
  0.4456780210555436    0.47287146343585124    0.4892170482162863    0.45222011666568085    0.49458504337293563    
  0.4892354172615728    0.4819696323912267    0.4891892806136359    0.49471092225337315    0.4792314188277755    
  0.4556821284090685    0.44563174317612086    0.45578747718246104    0.4792409513414337    0.49458504337293563    
  0.4837241980512715    0.4792039807220551    0.47289547314058095    0.473009304811037    0.47923137487732015    
  0.4835877948423563    0.47923136264173577    0.47300925920271697    0.4728954839947242    0.47920397812924054    
  0.4837241980512715    0.4945849485476739    0.47924100544617637    0.45578742344408874    0.44563172628406666    
  0.45568214170548815    0.47923141593250773    0.49471086867956826    0.4891892841196765    0.4819696336435309    
  0.4892353121443507    0.4945849485476739    0.4522200932625953    0.48921709023943294    0.4728714218424841    
  0.44567796014155625    0.4456317166896541    0.47300929167621186    0.4891893194753066    0.4521404441088545    
  0.3977192387680085    0.39779998554219337    0.4522200932625953    0.2625681472440651    0.3977135320832828    
  0.482095213725566    0.47287143070588106    0.4557873871111293    0.4728954595185023    0.48196956353776554    
  0.39771924237680306    0.2627009910641934    0.20523096180187175    0.2625681472440651    0.09349458658529923    
  0.20527750259665187    0.3977135457982531    0.48921704681780703    0.4792409898695016    0.47920403529808475    
  0.48923531971672435    0.3978000106243534    0.20523097122692366    0.09345562128708637    0.09349458658529923    
  0.04917336156904125    0.09349460441652561    0.26256815059869837    0.45222008096555727    0.49458504896607325    
  0.48372424361869826    0.4945850199159899    0.4522200822405718    0.26256824560661934    0.09349459565976116    
  0.04917336156904125    0.09047394181872476    0.14340540588353462    0.3071669372329665    0.45292854545210526    
  0.46793688917912934    0.4522712996276322    0.4679368203050497    0.45292858823955034    0.30716702760951486    
  0.14340538082091386    0.09047394181872476    0.1434053429838783    0.14333185094940093    0.25589422230847564    
  0.4150451968657491    0.4696536912503106    0.44880758007094534    0.4488477038551211    0.469626417594596    
  0.4149897649469792    0.2559156098987792    0.1434053429838783    0.3071669514453833    0.25589429786409984    
  0.30731532152998003    0.4149777931970391    0.46609084186645905    0.44407934685688943    0.4253361702244232    
  0.4440632779303185    0.4661819870900395    0.4149897175658009    0.3071669514453833    0.45292854891982426    
  0.4150452673160637    0.41497780704522963    0.4528369091220312    0.469615286203029    0.4441647418973158    
  0.41561263189732106    0.41564570477075335    0.44406326959127757    0.4696264146479707    0.45292854891982426    
  0.4679368713654777    0.4696537644591337    0.46609090510344814    0.46961534098315766    0.4680605005375421    
  0.44883391952128016    0.4252572345586359    0.4156125954359571    0.42533614111799    0.4488477747316122    
  0.4679368713654777    0.45227128263640026    0.4488075558526785    0.4440793759356619    0.4441648158437945    
  0.4488339266558221    0.45214003987254936    0.4488339002809091    0.44416478785333396    0.4440794180479911    
  0.4488075752627336    0.45227128263640026    0.46793677928117766    0.4488477354017664    0.42533610952338125    
  0.4156126089747245    0.425257250268364    0.4488339437665414    0.46806041736214216    0.46961536985970187    
  0.4660908551316759    0.46965362514838566    0.46793677928117766    0.4529285729465349    0.46962646807446534    
  0.4440632130160173    0.4156457290269791    0.41561259472131096    0.44416476958072204    0.46961543643415227    
  0.4528368935682955    0.41497784572125374    0.4150451728287239    0.4529285729465349    0.3071669438132597    
  0.4149898454263879    0.4661819831876751    0.44406321381484526    0.4253361092263522    0.4440793771962322    
  0.4660908501020745    0.4149778714468273    0.30731533258988786    0.25589427181707064    0.3071669438132597    
  0.1434053729819462    0.2559157080860462    0.4149898223351113    0.46962646094095917    0.44884778284999427    
  0.44880757183323194    0.4696536966204007    0.4150451686493399    0.2558943065806051    0.14333183088661203    
  0.1434053729819462    0.09047394181872476    0.14340540588353462    0.3071669372329665    0.45292854545210526    
  0.46793688917912934    0.4522712996276322    0.4679368203050497    0.45292858823955034    0.30716702760951486    
  0.14340538082091386    0.09047394181872476    0.2608153289378572    0.31036210152416116    0.4077412587253373    
  0.43877857517395236    0.40067021904183725    0.37680740908672794    0.40067017313552616    0.43877857729463865    
  0.40774132955514525    0.31036207187104087    0.2608153289378572    0.3103620147613615    0.31027411001173916    
  0.3836744262850397    0.438052350182693    0.415278301442959    0.3753524489249321    0.3753733730767554    
  0.41526078941967187    0.43804164215124836    0.38366320016639766    0.3103620147613615    0.407741265556507    
  0.38367454686934127    0.40784254531517455    0.43802007889663075    0.4188277591536921    0.3735360192806259    
  0.3524469554645831    0.3735327483528873    0.4188529681042586    0.43804159875283766    0.407741265556507    
  0.43877859134894054    0.43805243543794115    0.438020096521885    0.4387239037429155    0.4152628763947955    
  0.37356481773434647    0.3437917768593704    0.3438011171431932    0.37353279214055995    0.41526078205869804    
  0.43877859134894054    0.4006701930050663    0.4152783583198962    0.41882783849805744    0.4152628810085833    
  0.4007335096642179    0.37536539771279853    0.3524198827523873    0.34379168578810915    0.352446937276284    
  0.37537346719582426    0.4006701930050663    0.37680737536901915    0.37535240435387657    0.37353599265562165    
  0.3735648591206475    0.37536533898093827    0.37674067625978097    0.3753654052343827    0.3735648103969226    
  0.37353606648589466    0.3753524114006577    0.37680737536901915    0.4006701406686885    0.3753734353075623    
  0.3524469232154052    0.34379172805263103    0.3524199539562276    0.3753654241617306    0.40073340833504556    
  0.41526285914534694    0.4188278463016793    0.4152782275643614    0.4006701406686885    0.4387786038140607    
  0.4152608412939691    0.37353276610838254    0.3438011482391138    0.3437917202235666    0.37356480486667565    
  0.4152629215284851    0.4387239035380629    0.4380201583813101    0.43805240769859793    0.4387786038140607    
  0.40774127051328174    0.438041602842278    0.4188529942668065    0.3735327601488915    0.3524469188368706    
  0.3735359817713556    0.41882781131643043    0.4380202425773912    0.4078425937570372    0.3836744809561111    
  0.40774127051328174    0.3103620996105266    0.38366331955010885    0.43804169513460134    0.41526082790906765    
  0.3753734870045719    0.37535242234858446    0.41527828891096913    0.4380523996152758    0.3836745301286089    
  0.3102740643400944    0.3103620996105266    0.2608153289378572    0.31036210152416116    0.4077412587253373    
  0.43877857517395236    0.40067021904183725    0.37680740908672794    0.40067017313552616    0.43877857729463865    
  0.40774132955514525    0.31036207187104087    0.2608153289378572    0.508608725337939    0.5067451667427425    
  0.47385830501245435    0.39739954574689257    0.3247620831487568    0.2970883658423453    0.3247620445505982    
  0.39739955028873303    0.47385842199516687    0.5067451338899176    0.508608725337939    0.506745095917214    
  0.5067213115152759    0.4876064926209884    0.42620321870679534    0.34706642971361534    0.2969331941049586    
  0.2969359843034947    0.34706435404275454    0.42620029070350113    0.48760291240462805    0.506745095917214    
  0.473858330555485    0.4876066781181765    0.4738815241430819    0.42619400925869405    0.35536815370654257    
  0.2969837602578319    0.275482257456049    0.2969828918042304    0.3553716220945598    0.4262002837063788    
  0.473858330555485    0.39739955010834765    0.42620331506239095    0.4261940388755289    0.39739179105249905    
  0.34706481231745817    0.2969881394014783    0.2678304800146713    0.267832945837416    0.2969829693711462    
  0.3470643279459113    0.39739955010834765    0.32476203234982737    0.3470664873573151    0.3553682013901367    
  0.3470648177201941    0.32477132004918186    0.296934742382833    0.27547835093058104    0.26783040296563765    
  0.2754822392887416    0.2969360796987455    0.32476203234982737    0.2970882963577047    0.2969331682246527    
  0.296983758638318    0.2969881699325129    0.2969346741225228    0.29707858880322935    0.2969346967359503    
  0.2969881397401273    0.2969837959322608    0.296933165995975    0.2970882963577047    0.3247620152988823    
  0.2969360441882865    0.2754822307099847    0.26783045820810064    0.27547843475046174    0.2969347470223389    
  0.32477124581780276    0.34706478885090586    0.3553682054538119    0.34706635082234544    0.3247620152988823    
  0.39739958307471446    0.3470643878848686    0.2969828957845696    0.2678329650780618    0.26783041514989436    
  0.29698815173002374    0.3470648460796271    0.39739180000555074    0.4261940794032791    0.42620326042145035    
  0.39739958307471446    0.47385837826575156    0.4262004070141625    0.35537160009737073    0.29698291095152274    
  0.27548218451548284    0.296983741672435    0.35536817729381565    0.42619414450457    0.47388150095835746    
  0.4876065938066057    0.47385837826575156    0.506745150712839    0.4876030841694954    0.4262003960696461    
  0.3470643736883984    0.2969360798100846    0.2969331675328058    0.3470664242817401    0.42620322144148587    
  0.487606669095479    0.506721235022107    0.506745150712839    0.508608725337939    0.5067451667427425    
  0.47385830501245435    0.39739954574689257    0.3247620831487568    0.2970883658423453    0.3247620445505982    
  0.39739955028873303    0.47385842199516687    0.5067451338899176    0.508608725337939    0.6304883202351206    
  0.5852015472467738    0.4737601354203035    0.35256001758829725    0.27005754440511703    0.2424847144315382    
  0.2700575211502963    0.3525600635924891    0.4737602822904769    0.5852014416664958    0.6304883202351206    
  0.5852013442468171    0.5851971009385261    0.5071154292754453    0.39246457750233277    0.29434848897440746    
  0.2428076469217481    0.24281118899854648    0.2943458942792406    0.39245664674891    0.5071244031091316    
  0.5852013442468171    0.47376015865374266    0.5071155266718446    0.4737728881205671    0.39245751981213317    
  0.30430653578212663    0.24354233672861653    0.2228892253717409    0.24354014454646628    0.3043165542082939    
  0.392456610764337    0.47376015865374266    0.35256004595986196    0.39246463243177143    0.39245752205161205    
  0.3525564295520333    0.2943484325291461    0.24354539243058418    0.21584602208768447    0.215846693593649    
  0.24354012502619005    0.29434589071826417    0.35256004595986196    0.2700575563875827    0.29434856258462366    
  0.3043066095268066    0.29434846758515665    0.27005887306093823    0.24281080106762284    0.22288408083897843    
  0.21584599340944152    0.22288919102785062    0.24281123313525554    0.2700575563875827    0.24248470346305495    
  0.24280762223175711    0.24354237690679087    0.24354544331773295    0.24281076326294196    0.24248042640187079    
  0.2428107406520374    0.243545411017161    0.24354238294498695    0.242807635875329    0.24248470346305495    
  0.27005749218545555    0.24281121260149152    0.22288920464139483    0.21584598326477858    0.22288410293438138    
  0.24281077683181826    0.27005878629830443    0.29434846896923406    0.30430658956424683    0.29434851349278235    
  0.27005749218545555    0.35256007756402885    0.2943459339679108    0.24354008363850646    0.2158466861676278    
  0.2158459615060315    0.2435454036104912    0.2943485316685401    0.3525564534292594    0.39245753101044384    
  0.392464588986172    0.35256007756402885    0.47376018628454974    0.3924566891163241    0.30431654637540695    
  0.24354009397241683    0.22288917848026776    0.24354234751152198    0.3043065690227262    0.3924575705391709    
  0.47377285262358537    0.5071154455940345    0.47376018628454974    0.5852014537313749    0.5071245606751308    
  0.39245665653171646    0.29434589029969177    0.24281123320022036    0.24280762490585647    0.29434852041156995    
  0.3924645808255365    0.5071155020922479    0.5851970427306482    0.5852014537313749    0.6304883202351206    
  0.5852015472467738    0.4737601354203035    0.35256001758829725    0.27005754440511703    0.2424847144315382    
  0.2700575211502963    0.3525600635924891    0.4737602822904769    0.5852014416664958    0.6304883202351206    
  0.6464783700726009    0.5908432996480247    0.46295239081233    0.33403772397003706    0.25072554366913813    
  0.22368109813582238    0.25072554809227865    0.33403775124559537    0.4629525257854281    0.5908432327868139    
  0.6464783700726009    0.5908431779229318    0.5908306768266643    0.5001585007107707    0.3757864305142442    
  0.2751233013304093    0.2241157180088284    0.22412073015575945    0.27511830457679043    0.37577998473538066    
  0.5001657483958326    0.5908431779229318    0.4629524099760386    0.5001584871907288    0.46297031989866666    
  0.37577955623263626    0.2853767361229805    0.2250030681591601    0.2048674596801192    0.225002013503692    
  0.2853868444097626    0.37577998608454216    0.4629524099760386    0.33403775497615673    0.37578655946116235    
  0.3757795600705781    0.33403088471761494    0.27512232945455206    0.2250070290882789    0.19804502001393137    
  0.19804365443415778    0.22500199113934832    0.27511829974963725    0.33403775497615673    0.2507255664458681    
  0.27512334634390934    0.2853768240494267    0.2751223728899606    0.25072911736236264    0.22412012768954742    
  0.20486077095086677    0.1980450186537742    0.20486744442713062    0.2241207567483617    0.2507255664458681    
  0.22368110569426713    0.22411567543039415    0.22500301879244414    0.2250070807411548    0.22412010267543697    
  0.22367385502415696    0.2241200837737947    0.22500705396355725    0.22500301184525914    0.2241156577112056    
  0.22368110569426713    0.2507255066714583    0.22412079779789018    0.20486742490255774    0.19804502187613932    
  0.20486077780755624    0.22412014172318886    0.25072908868111804    0.2751223783915795    0.28537683008861564    
  0.27512327582879403    0.2507255066714583    0.3340377508152527    0.2751183429247911    0.22500196789400953    
  0.19804361741436113    0.19804501225225662    0.22500706032951795    0.2751224030903355    0.3340308864929339    
  0.3757795719308408    0.37578646494134377    0.3340377508152527    0.462952394656959    0.3757800733586554    
  0.28538681974531516    0.22500196992573993    0.2048673941930138    0.22500300999718864    0.2853767729460638    
  0.37577956284538305    0.46297030695375396    0.5001585275096203    0.462952394656959    0.5908432145533381    
  0.5001658497884761    0.37578007037771644    0.2751182936215287    0.2241207630382085    0.22411570833646996    
  0.27512328739846637    0.37578648096797757    0.5001585178889771    0.5908305944551282    0.5908432145533381    
  0.6464783700726009    0.5908432996480247    0.46295239081233    0.33403772397003706    0.25072554366913813    
  0.22368109813582238    0.25072554809227865    0.33403775124559537    0.4629525257854281    0.5908432327868139    
  0.6464783700726009    0.630488270901536    0.5852014982601249    0.4737601607366789    0.352560030726875    
  0.2700575373685712    0.2424846948162084    0.27005752101161606    0.3525600867763468    0.4737602745164117    
  0.5852014360111736    0.630488270901536    0.5852013349324917    0.5851970930048094    0.507115393498482    
  0.39246458043129456    0.29434850906740356    0.24280765475388455    0.24281117926824122    0.29434590360172824    
  0.39245664951797143    0.5071244065080072    0.5852013349324917    0.4737601785923011    0.5071154901532647    
  0.4737728620171879    0.3924574946537383    0.30430655532862116    0.24354234573698552    0.22288923192088164    
  0.24354013768613625    0.30431657074651786    0.3924565964523055    0.4737601785923011    0.35256006334118306    
  0.3924646498400889    0.39245751391380834    0.352556436585689    0.2943484084317036    0.2435454000635613    
  0.2158460016401515    0.21584667090613777    0.2435401257232525    0.29434589304290426    0.35256006334118306    
  0.27005754557829686    0.2943485758901949    0.3043066265601292    0.29434845247814867    0.2700588420917832    
  0.24281077840938617    0.22288408817310562    0.21584598630982296    0.22288920205433704    0.24281123405495159    
  0.27005754557829686    0.2424847118167729    0.2428076279266674    0.24354237153199773    0.24354544841395637    
  0.2428107557101291    0.2424804158471823    0.242810750533345    0.24354542190702685    0.2435423976003682    
  0.2428076424044134    0.2424847118167729    0.2700574894745427    0.24281120601724962    0.22288921155276278    
  0.21584598616355113    0.22288410612700277    0.24281079168942551    0.27005879457929843    0.29434848989940327    
  0.3043065725002227    0.2943484784477991    0.2700574894745427    0.3525600827436595    0.29434593574471996    
  0.24354007070915365    0.21584668217366162    0.21584597037775624    0.24354539655193    0.2943485388482257    
  0.35255643997346275    0.3924575682703844    0.3924645783186913    0.3525600827436595    0.4737601592497704    
  0.39245671046109    0.3043165550161989    0.24354009108486716    0.22288918999875149    0.2435423608549791    
  0.30430656599994726    0.3924575796890583    0.4737728619946272    0.5071154653765435    0.4737601592497704    
  0.5852014046988937    0.5071245481673787    0.3924566975558118    0.2943459128163838    0.24281122613016215    
  0.24280762682232257    0.29434852719141313    0.3924645498407355    0.5071154832896099    0.5851970333732155    
  0.5852014046988937    0.630488270901536    0.5852014982601249    0.4737601607366789    0.352560030726875    
  0.2700575373685712    0.2424846948162084    0.27005752101161606    0.3525600867763468    0.4737602745164117    
  0.5852014360111736    0.630488270901536    0.5086087103013615    0.5067451763348367    0.4738583217154901    
  0.39739954012421036    0.32476206579132727    0.29708834194565115    0.3247620329099063    0.39739952707281107    
  0.4738584179865025    0.5067451302626633    0.5086087103013615    0.5067450537822349    0.5067212979106829    
  0.48760651845326136    0.42620322515655196    0.3470664174521706    0.29693320764994013    0.29693599019185357    
  0.3470643620056724    0.42620037481795975    0.48760291234651326    0.5067450537822349    0.4738583304947309    
  0.48760664017180827    0.47388148214927445    0.4261940075947568    0.35536812745732327    0.29698377269489384    
  0.2754822465791191    0.2969829047850671    0.35537161219614694    0.42620032284167536    0.4738583304947309    
  0.39739955956252965    0.42620330613689805    0.42619400484093856    0.3973917825629245    0.3470648115445329    
  0.2969881722571288    0.26783048355001565    0.2678329648654545    0.2969829434474983    0.3470643401819242    
  0.39739955956252965    0.3247620540125143    0.3470664829045597    0.3553682085043069    0.34706481172247006    
  0.3247713122012296    0.2969347366520126    0.27547837711313844    0.2678303988862654    0.2754822375288389    
  0.296936071812537    0.3247620540125143    0.2970883066332673    0.29693316513738416    0.2969837329223253    
  0.2969881897041163    0.2969346741428293    0.2970785953546729    0.2969347210767206    0.29698816739560585    
  0.2969837977231897    0.2969331630788492    0.2970883066332673    0.3247620165897753    0.296936041263825    
  0.2754822075703884    0.26783043406529206    0.2754784235294661    0.2969347475051968    0.3247712392658394    
  0.34706479958518494    0.3553682123267973    0.3470663567510785    0.3247620165897753    0.39739956507875895    
  0.34706438911298154    0.29698292071079996    0.2678329733281659    0.26783041624929044    0.29698813979833216    
  0.34706485223308225    0.3973918240280137    0.4261940882178821    0.42620327699951527    0.39739956507875895    
  0.47385834455857123    0.4262003219053317    0.3553716175854604    0.29698289806090783    0.27548220992661704    
  0.2969837081616293    0.3553681716180792    0.4261941603486849    0.47388152348769397    0.487606569110217    
  0.47385834455857123    0.5067451530834647    0.48760304883928024    0.4262004038867884    0.3470643760931017    
  0.29693607684643347    0.2969331620446369    0.34706641380131165    0.42620324426221395    0.48760660461509386    
  0.506721257038972    0.5067451530834647    0.5086087103013615    0.5067451763348367    0.4738583217154901    
  0.39739954012421036    0.32476206579132727    0.29708834194565115    0.3247620329099063    0.39739952707281107    
  0.4738584179865025    0.5067451302626633    0.5086087103013615    0.2608153278757995    0.3103620970034613    
  0.4077412398495216    0.438778595295511    0.40067021897550914    0.37680744844851977    0.4006701649949746    
  0.4387785872211251    0.40774132950466463    0.310362081684736    0.2608153278757995    0.31036203804236817    
  0.3102740878425173    0.3836743993758612    0.4380523590516384    0.41527829859879795    0.3753524482153578    
  0.3753733641799083    0.4152607907217269    0.43804157407716404    0.3836631993890177    0.31036203804236817    
  0.4077412616570506    0.3836745779566207    0.4078425727563508    0.4380200845647127    0.4188277840333911    
  0.3735360435538915    0.3524469743497272    0.37353274710951206    0.4188529786901119    0.438041587397113    
  0.4077412616570506    0.4387785823586103    0.43805245920181346    0.4380201264528737    0.4387238962837442    
  0.4152628853217503    0.3735648061909483    0.3437917982549015    0.34380110138803993    0.37353283583749747    
  0.4152607700492955    0.4387785823586103    0.4006701322620361    0.4152783845406089    0.41882784100367987    
  0.41526289016041185    0.4007335174149794    0.3753654278149526    0.35241987268604347    0.34379168750884503    
  0.35244695109665286    0.3753734718431507    0.4006701322620361    0.37680735905444307    0.3753524164479349    
  0.37353602955446985    0.37356483469878454    0.37536533476870787    0.3767406794554266    0.3753653770062121    
  0.3735647951336091    0.373536068604407    0.3753523990971324    0.37680735905444307    0.40067012481760605    
  0.3753734337614122    0.3524469360735106    0.3437917434142375    0.35241996491193506    0.3753654155438718    
  0.4007334255980515    0.4152628802063031    0.4188278452051708    0.41527824258898616    0.40067012481760605    
  0.4387786257352259    0.4152608075777824    0.37353271937482957    0.343801122021491    0.34379170628798694    
  0.37356478992200337    0.41526292852179214    0.4387239005262053    0.43802016805310406    0.438052379134752    
  0.4387786257352259    0.40774129031319384    0.4380416738066428    0.4188529367373729    0.3735327512450611    
  0.3524468739909093    0.3735359887053811    0.4188278146415436    0.4380202328403945    0.40784255226496696    
  0.3836745209182535    0.40774129031319384    0.31036212446777023    0.3836633342851682    0.43804165934467554    
  0.41526080785477076    0.37537346667483024    0.37535239271909904    0.41527830664095805    0.4380523581595381    
  0.3836745780367966    0.3102740541657828    0.31036212446777023    0.2608153278757995    0.3103620970034613    
  0.4077412398495216    0.438778595295511    0.40067021897550914    0.37680744844851977    0.4006701649949746    
  0.4387785872211251    0.40774132950466463    0.310362081684736    0.2608153278757995    0.09047396249953735    
  0.14340540934843793    0.3071669166378314    0.4529285234772531    0.4679368867003794    0.45227132445600965    
  0.4679368209272771    0.4529285629209274    0.30716703186811317    0.1434053723241871    0.09047396249953735    
  0.14340534320248022    0.14333184509791938    0.2558942344195684    0.4150451933133931    0.46965364392103987    
  0.44880759456859187    0.44884770496584786    0.4696264250511453    0.41498976699831447    0.2559156191386346    
  0.14340534320248022    0.30716695269916355    0.2558943060891071    0.30731533047205745    0.4149778067102104    
  0.4660907943532228    0.44407932940468947    0.42533617952101777    0.4440632989556254    0.46618198712724135    
  0.41498974733063615    0.30716695269916355    0.45292854668168425    0.4150452640558897    0.41497781627707087    
  0.45283689582942527    0.46961529868060403    0.44416475259358834    0.415612670141497    0.4156457434419274    
  0.44406326315750666    0.46962639854630767    0.45292854668168425    0.4679368539979394    0.4696537463854021    
  0.46609090150301774    0.4696153514197971    0.46806054392029756    0.44883397809098896    0.42525722297637675    
  0.4156126042264187    0.42533614552930116    0.4488477662180965    0.4679368539979394    0.45227127318958804    
  0.4488075605428777    0.4440793684228004    0.44416482061372065    0.44883391057571975    0.452140064966707    
  0.44883389177380606    0.4441647685415919    0.4440793943071921    0.44880757764171597    0.45227127318958804    
  0.46793681316992775    0.44884773900615493    0.42533611443677666    0.41561260129805483    0.42525725289777566    
  0.44883392376191916    0.468060426596233    0.4696153513211353    0.4660908956426296    0.4696536877371734    
  0.46793681316992775    0.45292855715608077    0.4696264533794038    0.4440631935468441    0.41564573530414056    
  0.4156125742005223    0.4441647700985386    0.46961541426994263    0.4528369374448053    0.4149778189423585    
  0.4150452086549259    0.45292855715608077    0.30716696005384697    0.4149897964226708    0.4661819515307484    
  0.44406320572962366    0.42533609031872743    0.4440793253205487    0.46609086994082904    0.4149778844177328    
  0.3073153331004196    0.25589426777080954    0.30716696005384697    0.14340540022433795    0.25591569972867    
  0.4149897730282484    0.46962641901508384    0.4488477892501408    0.4488075752101503    0.4696536773207405    
  0.41504519778685545    0.2558942996925887    0.14333184376803154    0.14340540022433795    0.09047396249953735    
  0.14340540934843793    0.3071669166378314    0.4529285234772531    0.4679368867003794    0.45227132445600965    
  0.4679368209272771    0.4529285629209274    0.30716703186811317    0.1434053723241871    0.09047396249953735    
  0.04917336156904125    0.09349460441652561    0.26256815059869837    0.45222008096555727    0.49458504896607325    
  0.48372424361869826    0.4945850199159899    0.4522200822405718    0.26256824560661934    0.09349459565976116    
  0.04917336156904125    0.09349456795664085    0.09345563917641166    0.2052309443152157    0.3977999594659807    
  0.4892353602301761    0.47920405862599147    0.47924090441472317    0.48921703535704286    0.3977134541643383    
  0.20527744752823004    0.09349456795664085    0.2625681558420167    0.20523095383521903    0.2627009996526312    
  0.3977192305716816    0.4819694981002258    0.4728955461086096    0.4557874991538474    0.4728714780022346    
  0.4820952565820793    0.3977134516944045    0.2625681558420167    0.45222011666568085    0.3978000983069046    
  0.3977192367420332    0.4521404489719732    0.489189199436371    0.4730092157422264    0.44563176732419857    
  0.4456780210555436    0.47287146343585124    0.4892170482162863    0.45222011666568085    0.49458504337293563    
  0.4892354172615728    0.4819696323912267    0.4891892806136359    0.49471092225337315    0.4792314188277755    
  0.4556821284090685    0.44563174317612086    0.45578747718246104    0.4792409513414337    0.49458504337293563    
  0.4837241980512715    0.4792039807220551    0.47289547314058095    0.473009304811037    0.47923137487732015    
  0.4835877948423563    0.47923136264173577    0.47300925920271697    0.4728954839947242    0.47920397812924054    
  0.4837241980512715    0.4945849485476739    0.47924100544617637    0.45578742344408874    0.44563172628406666    