#     DFTpy    
  CRYSTAL 
    
  PRIMVEC    
  5.093233365929505    2.1308201009251036e-05    -5.342358620689655e-13    
  -2.546598229520297    4.41088026394894    -1.0452586206896552e-11    
  -8.784855172413794e-13    -2.035274068965517e-11    8.37406703085214    
  PRIMCOORD    
  4    1    
  Si    1.2679015962678355e-05    2.9405937370351416    4.70935615018657    
  Si    2.5466224573872775    1.470307835078728    0.522322572924435    
  Si    1.2679017876173798e-05    2.940593737033928    7.85174439608754    
  Si    2.5466224573955425    1.4703078351113952    3.664710942483764    
  BEGIN_BLOCK_DATAGRID_3D    
  3d_datagrid_density    
  BEGIN_DATAGRID_3D#0    
  23    23    37    
  0.0    0.0    0.0    
  5.093233365929505    2.1308201009251036e-05    -5.342358620689655e-13    
  -2.546598229520297    4.41088026394894    -1.0452586206896552e-11    
  -8.784855172413794e-13    -2.035274068965517e-11    8.37406703085214    
  0.012057566952547207    0.012350803915829729    0.013340060260541861    0.015422632408478075    0.01931842088217812    
  0.02609393633230744    0.03720898012043341    0.05409005462255113    0.0767924152603774    0.10202666993699944    
  0.12264920554615233    0.13070668601592894    0.1226492198375784    0.10202668976394676    0.07679240329496391    
  0.054090059681943185    0.03720898187497429    0.026093937248975838    0.01931842172685357    0.015422634145346427    
  0.013340061605162023    0.012350804570102344    0.012057566952547207    0.012350807347515381    0.012351194306209555    
  0.012994701148323068    0.014557079479726181    0.017646752773363864    0.02326734276223077    0.032949461978784234    
  0.048569529801760554    0.0712951206932504    0.09959341591138696    0.12727895635921235    0.14484585696401575    
  0.14484871160100413    0.12727796567758803    0.09958417882316803    0.07130452279001734    0.04857278381975396    
  0.032946853849311404    0.02326776551300581    0.017646754398434335    0.014556921417146809    0.012995104729845127    
  0.012350807347515381    0.013340058364618419    0.012994701364853728    0.01334009157772311    0.014557005542099287    
  0.017201044247650548    0.022324367746679032    0.031754849029004655    0.04821923584680848    0.07453442004664902    
  0.1111595676584833    0.15276629260384503    0.1870617512396298    0.2004452041647735    0.18706376676007344    
  0.1527837933534289    0.11116065641660076    0.07452473384852287    0.048222743061612325    0.031757311568859525    
  0.02232460038465711    0.017201497909887814    0.0145569213172301    0.013340058364618419    0.015422632148853458    
  0.01455707688667448    0.014557005379119603    0.015422457877728498    0.01764692439140849    0.02232433220631454    
  0.03159788202419676    0.04911169378600132    0.07985097461986057    0.12775903855286147    0.18968293390484314    
  0.2501317630419424    0.2872456383028405    0.28723825438177203    0.2501191450296548    0.1896889990200552    
  0.12776976251116265    0.07985547368040478    0.04911247644800636    0.03159648485109715    0.022324600497013306    
  0.01764675491796132    0.015422632148853458    0.019318418132862634    0.017646756080257984    0.017201044453981004    
  0.017646918771669705    0.019318398623189847    0.023267718550442035    0.03175491984154461    0.04911164822070328    
  0.0823223351461822    0.13961053444326937    0.22233563121848304    0.3118567257420707    0.3753681091455855    
  0.39639613961465353    0.3753968658409839    0.31185423848021027    0.2223284071157255    0.13962048174689623    
  0.08232036762637199    0.049112479315145    0.03175731224151448    0.023267764327418693    0.019318418132862634    
  0.026093933781981576    0.02326733883145797    0.022324368377249545    0.02232432978801512    0.023267719919299098    
  0.026093449822852624    0.03295020738406101    0.04822048334647361    0.07985242660870892    0.1396159288611462    
  0.2353744557280585    0.3477282972775026    0.42512330524299846    0.4479815374430521    0.4479682445100601    
  0.42513650678504    0.3477630746200032    0.23536636641744785    0.13962046608141504    0.07985548915959087    
  0.04822274929346013    0.032946853129755586    0.026093933781981576    0.03720898504387016    0.032949462777220294    
  0.03175485274814517    0.031597879271241726    0.03175492022280784    0.032950215344099004    0.037206140089982305    
  0.04857412851168441    0.07452843040470077    0.1277688533739892    0.22232222609496088    0.3477594919371605    
  0.4367450577092082    0.4410879432749579    0.4245036429176932    0.4410821823573905    0.4367513274811031    
  0.3477630587822301    0.22232839651126118    0.12776978696388233    0.07452473345775634    0.04857279430897916    
  0.03720898504387016    0.05409006596495663    0.048569528787534746    0.048219227134729335    0.04911168710393507    
  0.049111638820931905    0.04822047668561852    0.048574124930179784    0.05409071712220996    0.07130078607968844    
  0.11116300001995083    0.18968746518790014    0.31185313932107855    0.4251409495438362    0.4410761961285254    
  0.39529744376128645    0.39530635494943694    0.44108217900947444    0.4251365449130935    0.3118542079567298    
  0.18968902716100325    0.11116066437645421    0.07130452474666675    0.05409006596495663    0.07679241305942942    
  0.07129512220978886    0.07453441990336841    0.07985094960573445    0.0823223123984027    0.07985241437247864    
  0.07452840785454817    0.07130077706258323    0.07679738227133136    0.099587668244018    0.1527836070955386    
  0.25012516776978916    0.37539661394202445    0.4479374729312815    0.42453510833510577    0.39529745550211015    
  0.42450360332943987    0.44796822403596026    0.37539688189599374    0.25011918194834626    0.15278380264555377    
  0.09958418860250826    0.07679241305942942    0.1020266754132385    0.09959341908980343    0.1111595656614462    
  0.12775902473408238    0.13961049977123507    0.1396159161749273    0.12776881369029236    0.11116297690660853    
  0.09958767436134229    0.10203553019904955    0.12728067315558314    0.1870715212328324    0.2872441082160778    
  0.3964194836747935    0.4479374920271227    0.4410761568974271    0.4410879182897228    0.44798152410553493    
  0.3963961600565378    0.2872382568490228    0.1870637621383949    0.12727797955127101    0.1020266754132385    
  0.12264922123155411    0.12727895678509768    0.15276629082560408    0.18968290067398372    0.22233557539565615    
  0.235374447924308    0.22232218691040584    0.18968743244178618    0.15278357939384227    0.12728067269263021    
  0.12265257294103    0.14485342384118416    0.20045042519693798    0.2872441031720823    0.3753965756150299    
  0.425140895184166    0.4367450500745247    0.4251232796878807    0.37536811685839194    0.2872456310181066    
  0.2004452081295991    0.14484871150129258    0.12264922123155411    0.13070670130843906    0.14484586192443777    
  0.18706174067664094    0.25013172351559243    0.3118566920254088    0.34772830283023537    0.34775941892034473    
  0.3118531142627539    0.2501251518837148    0.18707149603699186    0.1448534189367122    0.1307144689340105    
  0.14485343259755873    0.1870715008329844    0.25012513313826695    0.31185313768785133    0.34775946034795535    
  0.347728296444694    0.3118566914620214    0.2501317837937087    0.18706176623989781    0.1448458836787171    
  0.13070670130843906    0.12264921154775771    0.14484869535889006    0.2004451877966388    0.2872455948060213    
  0.3753680522126287    0.4251232747460094    0.43674501782270053    0.4251408985342981    0.3753965823397521    
  0.28724409478544954    0.20045038971441453    0.14485342179132885    0.12265258566707747    0.12728069034246753    
  0.15278357378517624    0.18968743907623475    0.2223222011683027    0.23537444489028939    0.22233560691365575    
  0.18968291013908076    0.15276628969569792    0.12727896626260748    0.12264921154775771    0.10202667236991513    
  0.1272779660814165    0.1870637681881082    0.2872382611406303    0.39639611131521646    0.447981500018972    
  0.4410879020170639    0.44107623571048804    0.4479374717426349    0.3964194611649074    0.2872440873808146    
  0.1870715079963866    0.12728067604875737    0.10203554261449758    0.09958766693462404    0.11116298521755465    
  0.12776883160125854    0.13961589951255846    0.1396104997679186    0.12775903541023872    0.11115956065225222    
  0.09959341883664084    0.10202667236991513    0.07679240488755873    0.0995841801153106    0.15278378127056827    
  0.2501191447570318    0.3753968786372065    0.4479682763985879    0.42450363537021524    0.3952975149853551    
  0.42453511757000423    0.4479374426911297    0.3753966187915366    0.2501251555888125    0.15278356444311708    
  0.09958766120660939    0.07679736473419625    0.07130077408215164    0.07452840973336598    0.07985241258538878    
  0.08232231591111401    0.07985095921200194    0.07453441761124327    0.07129512402823303    0.07679240488755873    
  0.05409005732888891    0.07130452195840745    0.11116066823763243    0.18968900549074463    0.31185419107259676    
  0.42513652605221286    0.4410821357819015    0.39530635375028406    0.3952975142249703    0.4410762377455502    
  0.42514090779652763    0.31185314337175446    0.1896874668451587    0.11116298891648313    0.0713007730754653    
  0.054090709369684346    0.04857412077684221    0.048220474379776716    0.049111639227671665    0.04911170661028062    
  0.048219231041029036    0.048569526883346543    0.05409005732888891    0.03720898330593285    0.04857279350354062    
  0.07452474139146582    0.12776978765241095    0.2223283791292116    0.34776304162770133    0.436751270080289    
  0.4410822002353223    0.4245036666752787    0.44108793755158376    0.43674506040311245    0.3477594619170013    
  0.22232219956580695    0.1277688485750682    0.07452842814028245    0.048574126655935294    0.03720614773157707    
  0.03295021929329489    0.03175491612078747    0.031597885177027406    0.031754855010364104    0.03294946380644033    
  0.03720898330593285    0.026093929379168435    0.03294685379329159    0.048222742777698765    0.07985548349683773    
  0.13962045312167898    0.23536634228670555    0.3477630441020681    0.42513647238773344    0.447968276485494    
  0.4479815372964852    0.42512324703902327    0.34772825134564694    0.2353744191677087    0.13961593286778237    
  0.07985243077961948    0.04822048756306585    0.032950213017934715    0.026093451454566027    0.02326771448867699    
  0.02232433510134305    0.02232437050019416    0.023267339659781554    0.026093929379168435    0.01931842083130631    
  0.023267767139660507    0.03175731347830084    0.04911246820598227    0.0823203618246661    0.13962047285388393    
  0.22232838516021114    0.31185421272436387    0.37539687253158205    0.39639615356743263    0.37536811900639433    
  0.31185672043152285    0.22233562173051477    0.13961052474032226    0.08232231497548673    0.049111638122708086    
  0.0317549116960417    0.02326771733858085    0.019318392489676928    0.017646925610471383    0.017201042334215426    
  0.01764675900613427    0.01931842083130631    0.015422634401125814    0.017646753565262203    0.022324603323915955    
  0.03159648260645078    0.04911246827918412    0.07985547538168052    0.12776977089710956    0.1896889783030279    
  0.25011916031121345    0.28723823852623626    0.2872456376266257    0.25013176996001285    0.18968290875709953    
  0.1277590178646474    0.07985094977793072    0.0491117027354426    0.03159788250382601    0.022324331633940125    
  0.017646923590867204    0.01542246056854111    0.014557005934781047    0.014557074561963017    0.015422634401125814    
  0.013340059837974818    0.014556921607687932    0.017201495012736136    0.02232460123547676    0.03175730696905633    
  0.04822273774305131    0.07452472448322403    0.11116066920653038    0.1527837868195018    0.1870637494810967    
  0.20044519646034764    0.18706174495320352    0.15276627078451543    0.11115956950256858    0.07453441267053808    
  0.04821923452440744    0.03175485480656529    0.0223243702721852    0.017201041888046012    0.014557005268325427    
  0.013340091556370942    0.012994704019060327    0.013340059837974818    0.012350804545389522    0.012995102859065627    
  0.014556923173389892    0.017646756552312327    0.023267760134435857    0.032946857756199786    0.04857277780649766    
  0.07130451994328595    0.09958417714470957    0.1272779564769916    0.14484869869271577    0.14484585506213343    
  0.12727895863995134    0.09959341115753353    0.0712951147042104    0.048569536113401014    0.03294946026589484    
  0.023267338184885328    0.017646755058777972    0.014557079901350379    0.012994702044432652    0.012351198848392407    
  0.012350804545389522    0.012057566952547207    0.012350803915829729    0.013340060260541861    0.015422632408478075    
  0.01931842088217812    0.02609393633230744    0.03720898012043341    0.05409005462255113    0.0767924152603774    
  0.10202666993699944    0.12264920554615233    0.13070668601592894    0.1226492198375784    0.10202668976394676    
  0.07679240329496391    0.054090059681943185    0.03720898187497429    0.026093937248975838    0.01931842172685357    
  0.015422634145346427    0.013340061605162023    0.012350804570102344    0.012057566952547207    0.011906949118711459    
  0.012195134192732701    0.013170586650889929    0.01521645270675344    0.019023045813762997    0.025619613904374783    
  0.036404931163718415    0.052708341891488375    0.07453507071284832    0.09872513651810297    0.11843788335906236    
  0.1261263444619159    0.11843100429970005    0.09872341595373466    0.07455427336617095    0.05270510844567093    
  0.036395516293062834    0.025622329033409323    0.019024057647105547    0.0152162455507333    0.01317040669507603    
  0.012195391256757842    0.011906949118711459    0.01219539354777712    0.012195608318969885    0.012888104453079535    
  0.01457184791182373    0.01789357908672315    0.023958617544552262    0.03450132716554284    0.051674984254773765    
  0.07685840543239718    0.10836236196255782    0.1392859549817961    0.1589327609886215    0.15894308821878478    
  0.13928985691372478    0.10833773944075846    0.07686564244945916    0.05168872624306805    0.03449906130824803    
  0.02395800018710101    0.017893257475716927    0.014572461606623685    0.012888099471218733    0.01219539354777712    
  0.013170402325572442    0.012771881401998739    0.013170382333024979    0.01457253140706734    0.017607435007740386    
  0.02352416664915291    0.034575921719551816    0.054184271597238584    0.0860349295383618    0.13092181086758195    
  0.1820963388790863    0.22408881147863716    0.24036440785386534    0.22408717803764722    0.18213822617705755    
  0.13091899003542548    0.08601876020572195    0.054190833637925345    0.03457661721270863    0.02352554897556641    
  0.01760752815776365    0.014572460088613784    0.013170402325572442    0.015216241269699038    0.014162904319819904    
  0.014162593815230492    0.015216028549498066    0.017893348013745116    0.02352548969480191    0.034831764377214317    
  0.05659810748842283    0.09556671785617717    0.15711598001215973    0.2361629299778379    0.3104061746941311    
  0.3532795828194241    0.35326715930122954    0.31035665390796147    0.23617786168922775    0.15714751350279257    
  0.095562095889077    0.05659870187698013    0.03483295174961389    0.02352554890740768    0.017893259669732008    
  0.015216241269699038    0.019024053994669995    0.016898114715988104    0.016318444039125763    0.01689871508602996    
  0.019023713032960445    0.023957372050343685    0.03457724935398773    0.05659668702182995    0.0996134310949249    
  0.17479269069339454    0.28090249411807244    0.3833561721809698    0.43794723790920903    0.4495268535614825    
  0.4380250151338984    0.38335087812294    0.28086453387772353    0.17481151459390767    0.09961806825261962    
  0.05659870542328519    0.0345766134179312    0.02395799949064024    0.019024053994669995    0.025622324274033745    
  0.021813352175758305    0.020448177067040958    0.02044493272677047    0.021816418335408976    0.02561957167469853    
  0.034502489108629    0.0541841187571235    0.09557068889393235    0.1747960785149442    0.2979798744099242    
  0.41731690282425    0.4474690091791658    0.4131909743473628    0.4131523689930998    0.44747491782718857    
  0.41740862343029084    0.2979471936179283    0.17481151741818818    0.09556210677074324    0.054190833955922946    
  0.03449905645721535    0.025622324274033745    0.03639552413415125    0.03013505635582197    0.02785419797422046    
  0.027349725717360447    0.02785424819695629    0.030135238865075412    0.036395451757209714    0.05168993640892543    
  0.08601624209491862    0.15714818149816048    0.28085532887294007    0.4173919962594897    0.4344185983353575    
  0.32882703587701034    0.2706185331211542    0.3288216059081841    0.4344016207945536    0.4174086799729163    
  0.28086455467436927    0.15714754566183878    0.08601876922767794    0.0516887291863741    0.03639552413415125    
  0.052705119813215455    0.043286083221400616    0.04044302443498731    0.03999013412144575    0.039989783103043984    
  0.0404451162537942    0.04328561574044756    0.05270745827387889    0.07686491866745494    0.13092256158972226    
  0.23616805853616454    0.3833597694180476    0.44749149510058556    0.32879544376498376    0.2051894485848044    
  0.20521823951701695    0.3288215701428795    0.4474749298825914    0.38335093858707053    0.23617791816305544    
  0.1309189920882826    0.07686564910516704    0.052705119813215455    0.07455427701685402    0.06209693620856699    
  0.06002186101830987    0.0614905683570464    0.06252400522523541    0.06149038502877378    0.060022101866135324    
  0.06210021325804317    0.07455383868400757    0.10834366696833796    0.18213732060345988    0.31036838971262687    
  0.43801065531586536    0.41309682480619175    0.2706925113130648    0.20518941878288954    0.2706185171230073    
  0.4131524287897442    0.43802506590516543    0.3103567048896189    0.18213827060753765    0.10833775001685932    
  0.07455427701685402    0.0987234210009132    0.08524398416802226    0.08662769524810975    0.09412125135242529    
  0.10029586237697806    0.10030760108803626    0.09411547722711024    0.08663704914446446    0.08523882270041107    
  0.09873551453367374    0.1392833721243201    0.22410514807677842    0.3532757253433567    0.4495770665996032    
  0.41309680686646727    0.3287953983797725    0.3288270092860152    0.4131909643268446    0.4495268628466431    
  0.3532671991606616    0.22408718402943348    0.13928985749976797    0.0987234210009132    0.1184310056948391    
  0.10765886577282745    0.11641995567547349    0.13576171841291723    0.15464472439265364    0.1625131411710155    
  0.15464467492249268    0.13576446588207902    0.11642619984575787    0.10766201752612808    0.11843630869801963    
  0.1589487274520011    0.2403597433847106    0.35327572334954793    0.4380106600153847    0.4474914794763941    
  0.43441858595697075    0.4474690283226584    0.43794723180557954    0.3532795882885697    0.2403643955753406    
  0.15894309556414574    0.1184310056948391    0.12612636602007077    0.1217929402105114    0.1408373145231217    
  0.17685993883906032    0.2165597511260242    0.24247829714441047    0.24248574622746244    0.216557437019929    
  0.1768653488910571    0.14084045603985315    0.12179860470693779    0.12613143249805794    0.15894874281273155    
  0.22410515962952748    0.31036837689723035    0.38335974559393604    0.41739201789512487    0.41731688107336384    
  0.38335614178100963    0.31040619881348425    0.22408881008988926    0.15893279794397594    0.12612636602007077    
  0.11843787884691045    0.12179335009926683    0.15036574120960222    0.20279690919981502    0.2662332900755424    
  0.31643860180142486    0.33486053083049405    0.31644914070304714    0.266238362887619    0.20280093338908925    
  0.15037132520954224    0.12179860146137303    0.11843633209202169    0.13928339940650147    0.18213726392939897    
  0.23616804063695646    0.28085532260640317    0.2979798525095534    0.2809024458093422    0.2361629494984435    
  0.18209634740102987    0.13928596178038158    0.11843787884691045    0.09872514369877357    0.10765301241813972    
  0.14083787562248537    0.2027967441372638    0.285017711723972    0.3581144326866594    0.3955564271599799    
  0.3955557393641793    0.358107288675391    0.2850241238072634    0.20280092169845637    0.14084046647299708    
  0.10766200195940862    0.09873552218973598    0.10834365758226279    0.13092253476259857    0.1571481501949871    
  0.17479605403717008    0.17479263852109    0.15711599176860808    0.13092179508189963    0.1083623554877594    
  0.09872514369877357    0.07453506471717665    0.08524058971456915    0.11642887924062065    0.17686141238520553    
  0.2662372047006701    0.3581131394848807    0.4137589773696097    0.4284017009095415    0.4137568899536836    
  0.35810728131054465    0.2662383672886843    0.1768653632565666    0.11642621172791438    0.08523880338459569    
  0.07455382545423529    0.07686489691953917    0.08601622254993257    0.09557066781079798    0.09961342311540317    
  0.09556669934371158    0.08603491876216005    0.07685840257352322    0.07453506471717665    0.05270834904049319    
  0.06211419743142641    0.08663167533709469    0.13575985495090612    0.21656054909021205    0.3164482540565831    
  0.3955571495954387    0.4283916060213543    0.4284017424934496    0.3955557539611872    0.3164491561899772    
  0.21655744892744647    0.13576450030616835    0.08663704625473595    0.06210021691829587    0.05270745161967569    
  0.05168992692773397    0.054184100914840175    0.05659668040614641    0.056598113194693565    0.05418427622146902    
  0.051674991104544425    0.05270834904049319    0.03640493522892668    0.04328406359980674    0.06000702608336764    
  0.09412074250846028    0.15465065272553816    0.24248560544607747    0.33486851739217915    0.3955571816530606    
  0.41375901414893596    0.39555643991518347    0.3348605840010437    0.24248574552017718    0.15464470591051233    
  0.0941154930174563    0.06002211993633222    0.04328561603932891    0.036395457295512856    0.03450249884789499    
  0.034577245715628625    0.034831774821576934    0.03457591761427828    0.03450133009351894    0.03640493522892668    
  0.025619604991395307    0.030127006134745463    0.04044487587591978    0.061506635878903024    0.10030320778594966    
  0.16251274825365078    0.24248557700084833    0.3164482231258425    0.35811312494856434    0.35811445825652677    
  0.31643856468638376    0.24247826137928072    0.162513152922162    0.10030763352255931    0.0614903930178034    
  0.04044512202787501    0.030135236073144767    0.025619569652330827    0.0239573644020413    0.023525494808576256    
  0.023524169086743662    0.02395861596122965    0.025619604991395307    0.019023049507661902    0.02181526347532511    
  0.027862773316623263    0.039990369408189265    0.06251050333706243    0.10030321884423689    0.15465067407725988    
  0.21656054825579307    0.2662372099444152    0.2850177492443031    0.2662333151004833    0.21655976852517442    
  0.15464476748548928    0.10029590280593874    0.0625240102882675    0.03998977755971396    0.02785423758729094    
  0.02181641663167201    0.019023708119898054    0.01789335371385342    0.017607432217076228    0.017893583021054423    
  0.019023049507661902    0.015216453846884307    0.01689873122578334    0.020446416961553193    0.02734182239201449    
  0.039990369592785714    0.061506639207705036    0.0941207257730526    0.13575985469428403    0.17686139079935692    
  0.20279669611155726    0.2027969119346619    0.17685994910435093    0.13576173638258113    0.09412126452111322    
  0.06149056928287778    0.039990141731591176    0.02734972462874743    0.020444936368954766    0.016898721067627947    
  0.015216032362074586    0.014572531385603233    0.01457184395487217    0.015216453846884307    0.013170584731659708    
  0.01416223934023124    0.016318810887606724    0.02044641736764519    0.027862770475917953    0.040444875272521205    
  0.0600070159671899    0.08663167458123794    0.1164288687136431    0.14083787960653676    0.15036572776595705    
  0.1408373071382406    0.11641994452444432    0.08662767834565846    0.06002186210244141    0.04044302639864879    
  0.027854194486019685    0.020448179480403214    0.01631844006650538    0.014162593475455744    0.013170380874665747    
  0.012888106169581632    0.013170584731659708    0.012195136174503915    0.01277246991371606    0.014162241241142282    
  0.01689873417407272    0.02181525777255554    0.030127013463224158    0.043284049642721735    0.06211419246405177    
  0.08524058191939886    0.1076530060994157    0.12179333516952832    0.1217929349141494    0.10765885918789102    
  0.08524398402230929    0.062096933716344505    0.04328608972142202    0.03013505150471817    0.02181335122002546    
  0.016898115148129424    0.014162906521214548    0.012771882391107948    0.012195611080841004    0.012195136174503915    
  0.011906949118711459    0.012195134192732701    0.013170586650889929    0.01521645270675344    0.019023045813762997    
  0.025619613904374783    0.036404931163718415    0.052708341891488375    0.07453507071284832    0.09872513651810297    
  0.11843788335906236    0.1261263444619159    0.11843100429970005    0.09872341595373466    0.07455427336617095    
  0.05270510844567093    0.036395516293062834    0.025622329033409323    0.019024057647105547    0.0152162455507333    
  0.01317040669507603    0.012195391256757842    0.011906949118711459    0.01147310801720041    0.011750256259905126    
  0.012685654249204127    0.014626037912838261    0.018179132966063712    0.024262170493355502    0.034094099536767744    
  0.04877531508116583    0.06819698634314686    0.08950628518119598    0.10674770777610203    0.1134478856486835    
  0.1067367336066278    0.08950274192965058    0.06822276076903475    0.04877307835445007    0.034080202306576636    
  0.024266010051008122    0.01818063095154853    0.014625901619094968    0.012685295129858847    0.011750763739376481    
  0.01147310801720041    0.011750764139129177    0.011750248242155484    0.0124635207010442    0.014182829994847365    
  0.01754535762379135    0.023648270300948713    0.034235202258512835    0.05146658514066529    0.07671737098834909    
  0.10824193666912854    0.139094210371822    0.15863143079163933    0.15864742323369985    0.1391033903707339    
  0.10821099757623079    0.07672207697854676    0.05148710513835101    0.0342312496744484    0.0236478882075484    
  0.017544525987412584    0.014184405579043697    0.012462660123276579    0.011750764139129177    0.012685291046382993    
  0.012255666274263666    0.012685417571106868    0.014184157671174738    0.017400690292669767    0.023667295347665065    
  0.035402724291964685    0.0563011068137367    0.0904018252525109    0.13857204782824506    0.19334048702879245    
  0.23795601451869072    0.2551228205280796    0.23794758430633947    0.19339132235429893    0.13857316936359212    
  0.09037729350629098    0.05631057105873333    0.035403698607062536    0.023669172217131555    0.01740009190903673    
  0.014184405898644448    0.012685291046382993    0.014625897911354624    0.013463308251816086    0.01346313152225627    
  0.014625368738996886    0.01754462068996931    0.023668692194032264    0.03601058610038794    0.059925885155120255    
  0.10303060538766802    0.17126728924328774    0.2579053940582248    0.3365587875171835    0.37967598029739763    
  0.37966708619887063    0.3364960361620125    0.25791738951604426    0.1713121939666617    0.10302367227336537    
  0.05992530116588143    0.03601186463889778    0.02366917380735144    0.017544524660322372    0.014625897911354624    
  0.018180627999186613    0.015798572141478208    0.015140311373708705    0.015799137484344722    0.018180859485521245    
  0.023646564509356437    0.03540531113513764    0.05992174953046221    0.10821441565709711    0.19275912007275425    
  0.3093480023916249    0.4115435420406995    0.45106110859076376    0.45290631959572586    0.4511478180428016    
  0.4115471074921426    0.3092900370850828    0.19278391667747294    0.108220017634617    0.05992531275101206    
  0.03540369403966848    0.023647886358844995    0.018180627999186613    0.024266004492621996    0.019909975753568395    
  0.018296793444793718    0.01829193184639361    0.019914309361943196    0.02426127442700635    0.03423698025206297    
  0.056300162635493346    0.1030373436209617    0.1927626460188425    0.32836160858703795    0.4396088014707152    
  0.42622782370567136    0.3553530208441067    0.3553159191482963    0.42622522513330424    0.4397314909581457    
  0.32831223667302395    0.1927838978867504    0.10302367815836164    0.05631057000529669    0.03423125008332996    
  0.024266004492621996    0.034080208727990974    0.026706967117904497    0.023777720743866332    0.023053820126984915    
  0.023778100328524805    0.02670679295671262    0.03408082914169114    0.051487032442941776    0.09037608720731904    
  0.17130912499477416    0.30928235059747355    0.4397008286769288    0.39637921524722053    0.2386906786468682    
  0.17215981425705407    0.23869455146601118    0.3963417132303655    0.4397315474612363    0.3092900254236627    
  0.17131222259571496    0.09037730192455547    0.05148711068793688    0.034080208727990974    0.048773097019593994    
  0.03713870983610726    0.03276606523584502    0.031440846936029734    0.031440047585489427    0.03276804722419432    
  0.03713744515063533    0.04877510440584898    0.07672177115910231    0.1385767134944445    0.2579051503548734    