#     DFTpy    
  CRYSTAL 
    
  PRIMVEC    
  3.303103448275862    0.0    0.0    
  0.0    3.303103448275862    0.0    
  0.0    0.0    3.303103448275862    
  PRIMCOORD    
  2    1    
  Si    0.0    0.0    0.0    
  Si    1.651551724137931    1.651551724137931    1.651551724137931    
  BEGIN_BLOCK_DATAGRID_3D    
  3d_datagrid_density    
  BEGIN_DATAGRID_3D#0    
  15    15    15    
  0.0    0.0    0.0    
  3.303103448275862    0.0    0.0    
  0.0    3.303103448275862    0.0    
  0.0    0.0    3.303103448275862    
  0.05649683346852623    0.10199268055995965    0.256031219618286    0.371150869126824    0.31055303212083196    
  0.20899240438278255    0.1478358783223897    0.12909226976986418    0.1478358657828289    0.208992418996564    
  0.31055300206530634    0.3711508961432174    0.2560312091323    0.10199267403510705    0.05649683346852623    
  0.10199270110962032    0.1545756920859058    0.29882906344959054    0.37534976703429845    0.30163358048430655    
  0.2038424830402088    0.14609737126774006    0.12839876522611593    0.14609740256415105    0.20384246691750044    
  0.30163360563101005    0.3753497531572906    0.2988290893324844    0.15457567662139587    0.10199270110962032    
  0.2560312798570496    0.298829073120963    0.3723285363672937    0.36148145924884817    0.27274522722063377    
  0.1892968259000092    0.14154954729223534    0.12680911182977087    0.14154954954428053    0.18929683065991243    
  0.27274520524041873    0.36148146124187797    0.372328641754653    0.29882915676955124    0.2560312798570496    
  0.3711508587753122    0.375349788874611    0.3614814071155919    0.3039104226563525    0.22899187238000535    
  0.16991555348638915    0.1361293520786464    0.12545185134239564    0.13612935520199615    0.1699155219200923    
  0.22899184773723763    0.30391040713308043    0.36148139324756595    0.3753497052660338    0.3711508587753122    
  0.3105529652001693    0.30163365709175183    0.2727452039245741    0.22899183002962145    0.18504785864225334    
  0.15157198883385428    0.13184480324630293    0.12545183775449262    0.13184479910989863    0.1515719914053204    
  0.18504786000444584    0.22899186162198404    0.27274521984783584    0.30163359182919897    0.3105529652001693    
  0.2089924955684174    0.20384251908661452    0.18929685050385178    0.16991553326457748    0.15157204355778756    
  0.13759617138271196    0.12938622700365285    0.12680912831851684    0.12938622914755749    0.13759618566519788    
  0.15157201465010062    0.16991553609745466    0.1892968419400511    0.20384256563417236    0.2089924955684174    
  0.14783586545916746    0.14609738210491766    0.14154953057116715    0.13612936477319315    0.131844774322784    
  0.12938620084814637    0.12850219434513632    0.1283987523321577    0.1285022100100851    0.12938622300347585    
  0.13184478093527102    0.13612936751371194    0.14154950116223322    0.1460973277497029    0.14783586545916746    
  0.12909225641444594    0.1283987346262929    0.1268091199857041    0.12545182794845766    0.12545185635711817    
  0.12680907181505974    0.12839875614458268    0.12909228628335834    0.12839876223550234    0.12680909910286775    
  0.12545182152254447    0.1254518538116385    0.12680910468320147    0.128398745806644    0.12909225641444594    
  0.1478358419824133    0.14609733823528523    0.1415495579184257    0.1361293528244641    0.1318447942080363    
  0.12938620178302832    0.12850218637119687    0.12839874788895114    0.1285021789484197    0.12938621893342148    
  0.13184480963932843    0.136129336800739    0.14154955313288464    0.146097326648971    0.1478358419824133    
  0.2089924900761245    0.20384255631092096    0.18929681831848538    0.1699155473754742    0.15157204477680072    
  0.13759615224751415    0.12938625106391596    0.12680910218212613    0.12938619241011634    0.1375961709991109    
  0.15157205478702146    0.16991554910173293    0.18929681463026116    0.20384254584371891    0.2089924900761245    
  0.31055301200807706    0.3016336156701859    0.2727452300452543    0.22899184160261155    0.18504788601080316    
  0.15157203875785502    0.13184478830071764    0.12545183172103683    0.1318447928313343    0.15157200710198712    
  0.18504787569252887    0.22899182140263954    0.27274516612000527    0.3016336287173837    0.31055301200807706    
  0.3711508242300131    0.37534980879217494    0.3614814251018589    0.30391034320153054    0.22899186210907474    
  0.16991552211690564    0.136129335823864    0.12545184942216586    0.1361293351212336    0.16991550593096433    
  0.2289918899560816    0.30391041885116077    0.3614814239693521    0.37534975419014055    0.3711508242300131    
  0.25603125371432284    0.29882909784714146    0.3723285664205371    0.3614814762647298    0.27274523633129705    
  0.18929681448338306    0.14154954735885947    0.1268091354281299    0.14154955072368536    0.18929684362459712    
  0.2727452101195829    0.3614814053501421    0.3723285476497947    0.298829150026424    0.25603125371432284    
  0.10199270518907382    0.15457570464111728    0.29882908952386433    0.3753497502521117    0.3016335635056912    
  0.20384252995276622    0.14609739016308815    0.128398777810022    0.14609737935654626    0.2038424996035888    
  0.3016335943156163    0.3753497595900827    0.29882904595362547    0.15457565479084032    0.10199270518907382    
  0.05649683346852623    0.10199268055995965    0.256031219618286    0.371150869126824    0.31055303212083196    
  0.20899240438278255    0.1478358783223897    0.12909226976986418    0.1478358657828289    0.208992418996564    
  0.31055300206530634    0.3711508961432174    0.2560312091323    0.10199267403510705    0.05649683346852623    
  0.1019926801166    0.15457570010006597    0.2988291029339013    0.37534978001678376    0.3016336161412072    
  0.20384252022247812    0.14609740028658566    0.12839877377212433    0.14609739194067511    0.20384250339705556    
  0.30163357943065605    0.37534972542955636    0.29882908239277517    0.15457569558384845    0.1019926801166    
  0.15457570764138626    0.20844455424349928    0.3333640388484826    0.37537940415913    0.2931242672066798    
  0.1996939797181435    0.1452412310517098    0.12850216882917592    0.14524125009615257    0.1996939457615176    
  0.2931243278806405    0.375379430129355    0.33336406511253974    0.20844454028247195    0.15457570764138626    
  0.2988291399464096    0.3333640839187203    0.3832242617472192    0.3551267129325551    0.2667999078219004    
  0.1883204462260187    0.14339038855183198    0.12938625268023152    0.1433903964971966    0.18832044135317133    
  0.2667998756776768    0.3551266911018204    0.3832243492649977    0.33336411114503745    0.2988291399464096    
  0.3753497551423293    0.3753794547509082    0.35512664113824555    0.29788839527171557    0.22812632146050518    
  0.17355184719774222    0.14197029676904302    0.13184478881278938    0.14197028393561495    0.1735518385248413    
  0.2281263002718017    0.2978883991240605    0.3551266262983861    0.3753794013903099    0.3753497551423293    
  0.3016335660728835    0.2931243346703994    0.26679983271648755    0.22812626759928897    0.18945353101167545    
  0.15973583519261877    0.14197027439506543    0.13612937593907187    0.14197028457978594    0.15973581355270522    
  0.18945355771325373    0.22812631313027024    0.26679982265516144    0.2931242927783663    0.3016335660728835    
  0.20384259888437908    0.1996940058802983    0.18832049824424146    0.17355186451411933    0.1597358491439895    
  0.1493506937189083    0.14339041546386827    0.14154954641538922    0.1433904271985683    0.14935067167496227    
  0.1597358316694589    0.17355187959841673    0.1883204778241982    0.19969403568404617    0.20384259888437908    
  0.14609737101523887    0.14524123946142134    0.14339040186627613    0.14197030540980193    0.14197028472391607    
  0.1433904033621693    0.1452412089041476    0.14609738553678694    0.14524124222111265    0.14339038521940234    
  0.14197025693666365    0.14197031621784323    0.14339038207796734    0.14524117644699758    0.14609737101523887    
  0.12839875423402922    0.1285021590646631    0.12938624243983676    0.1318447785017412    0.13612940464741435    
  0.14154951404967858    0.146097391830936    0.14783584677240671    0.1460973901550307    0.14154952461818948    
  0.13612937169901007    0.13184478119067786    0.12938623096069743    0.1285021619040926    0.12839875423402922    
  0.1460973748632447    0.14524119597079527    0.1433904180245466    0.14197031229961204    0.1419702845608577    
  0.1433903907715472    0.14524122547294369    0.14609737705883524    0.14524123738882164    0.1433903991998795    
  0.14197026856991532    0.14197027842918525    0.1433903970269672    0.14524119520664067    0.1460973748632447    
  0.20384255540657029    0.19969401773195364    0.18832048048642788    0.17355187808761138    0.1597358515781575    
  0.14935068253197398    0.1433904314370607    0.14154956310850936    0.14339040855422627    0.14935066929341917    
  0.15973587640089257    0.17355185606266116    0.18832044833657707    0.19969403340031636    0.20384255540657029    
  0.30163360774902676    0.293124300102784    0.26679990013408    0.2281262940915173    0.18945354432485068    
  0.15973585586628233    0.14197027180937866    0.13612937283482154    0.14197029671240374    0.15973583368819133    
  0.18945354452880722    0.22812627248897846    0.2667998374051058    0.2931242975109139    0.30163360774902676    
  0.37534970451849764    0.3753794532399229    0.3551266303202208    0.2978883250246012    0.2281262948742141    
  0.17355184562296685    0.14197025722129028    0.13184481203963253    0.14197027594941156    0.17355184442891097    
  0.2281263119508141    0.2978883915989923    0.35512666250752817    0.37537941169370964    0.37534970451849764    
  0.29882916533046977    0.33336402915117935    0.3832243138869116    0.3551266890423191    0.2667998890693723    
  0.18832043344851312    0.14339040261646982    0.12938622845969097    0.1433904307466013    0.18832048216389938    
  0.26679986899422503    0.35512664233273494    0.3832243408799463    0.3333640890935564    0.29882916533046977    
  0.1545757224360631    0.2084445897994815    0.3333640022908055    0.3753793519744106    0.29312426238436595    
  0.19969399928159054    0.14524123644352896    0.12850218066974214    0.14524124699375007    0.19969398084295867    
  0.29312431337769046    0.3753793918021426    0.33336404337554887    0.20844455868000095    0.1545757224360631    
  0.1019926801166    0.15457570010006597    0.2988291029339013    0.37534978001678376    0.3016336161412072    
  0.20384252022247812    0.14609740028658566    0.12839877377212433    0.14609739194067511    0.20384250339705556    
  0.30163357943065605    0.37534972542955636    0.29882908239277517    0.15457569558384845    0.1019926801166    
  0.25603122647125903    0.29882912793840244    0.3723285731576724    0.3614814446429152    0.2727452313963836    
  0.1892968156933938    0.14154956799485766    0.12680910696419834    0.14154957059201148    0.1892968267785306    
  0.2727452218577868    0.3614814545320688    0.3723286094267787    0.29882911466844947    0.25603122647125903    
  0.2988291368245392    0.33336408125529177    0.38322433745868295    0.35512668379564727    0.2667998904757936    
  0.18832047174738878    0.1433904158761641    0.12938624646132582    0.14339044588167488    0.1883204535122603    
  0.26679989513641444    0.35512670187997153    0.38322432977531606    0.333364044292868    0.2988291368245392    
  0.37232867842471123    0.3832243896079292    0.3817304673301696    0.3283843040453056    0.24968646382660778    
  0.18609550329397304    0.1493507132133949    0.13759620326253225    0.14935071405035683    0.18609550817637838    
  0.24968647845441688    0.32838436944047666    0.3817305505576929    0.38322439398463554    0.37232867842471123    
  0.36148146061981684    0.35512670799304025    0.3283842903497927    0.279481835507366    0.2259360117687583    
  0.1843979345270658    0.15973585145145358    0.1515720907804381    0.1597358583070882    0.18439792686811812    
  0.22593599998813427    0.27948184732996834    0.32838424994410265    0.35512667672241865    0.36148146061981684    
  0.2727452145419231    0.2667998841844726    0.24968640834020325    0.22593589522959892    0.2024644030170735    
  0.18439793555177605    0.1735518618608289    0.16991556140447617    0.17355185817927335    0.18439789862498146    
  0.2024643950069868    0.22593594644906054    0.249686395652445    0.26679991342912557    0.2727452145419231    
  0.189296933229021    0.188320479159255    0.18609552640847066    0.18439796667347663    0.18439796436424197    
  0.1860955170611621    0.18832048719898534    0.1892968922990463    0.1883204736315186    0.1860955541474713    
  0.1843979578450235    0.18439795239836645    0.18609552576773078    0.18832049460856484    0.189296933229021    
  0.14154957024600845    0.14339045136495412    0.14935071203410247    0.1597358743525471    0.17355186910149625    
  0.18832046891991872    0.19969403948147432    0.20384254668827761    0.19969408102885955    0.18832045203961315    
  0.17355189616296746    0.1597358713993988    0.14935071213263182    0.14339038404227014    0.14154957024600845    
  0.12680912569354838    0.12938623162540533    0.13759621245447626    0.15157204651438974    0.1699155426758911    
  0.18929680660602038    0.20384256044460525    0.2089925035602308    0.20384255539347382    0.18929685029626359    
  0.16991552436621413    0.1515720532232359    0.13759616889010862    0.12938622984873135    0.12680912569354838    
  0.14154956002590616    0.1433903990315385    0.14935073390123868    0.15973585641740592    0.17355187647794995    
  0.18832043082020175    0.1996941016586812    0.2038425303118411    0.19969407578903986    0.1883204289467982    
  0.17355189809331037    0.15973585778222787    0.14935072932449986    0.1433904148964752    0.14154956002590616    
  0.18929692019730268    0.1883204999516952    0.1860955554769796    0.18439794862352987    0.1843979316655883    
  0.1860955271843994    0.18832048341012242    0.18929689387945553    0.18832045850748413    0.18609554051306304    
  0.1843979486929844    0.18439796397506986    0.18609552544873176    0.18832051279386663    0.18929692019730268    
  0.2727452568531585    0.2667999106872398    0.2496864292027261    0.22593597327571174    0.20246440889271222    
  0.1843979229700127    0.1735518676054469    0.16991554449486398    0.17355190022174868    0.1843978974863382    
  0.2024644159088385    0.2259359409580209    0.24968640195049518    0.26679989162691403    0.2727452568531585    
  0.36148137268483416    0.3551267302277291    0.32838426918979163    0.2794817638827807    0.2259359858290996    
  0.1843979570644075    0.15973583444108394    0.15157207155543034    0.1597358267583989    0.18439790745677148    
  0.22593602406650282    0.27948185934035247    0.3283842995892012    0.3551266681531535    0.36148137268483416    
  0.3723286380690568    0.383224380342625    0.3817305393936856    0.3283843585552646    0.2496864380663324    
  0.1860955309327443    0.14935071231050367    0.137596200599264    0.14935075013180846    0.1860955240216815    
  0.24968639553329652    0.32838427307634577    0.3817305210151343    0.383224361119587    0.3723286380690568    
  0.2988291613648888    0.3333641040111266    0.38322432831679965    0.3551266635782938    0.26679984414313007    
  0.18832049063132966    0.14339043754905506    0.12938624761451809    0.1433904354857126    0.18832045680519832    
  0.26679989078135896    0.3551266858064862    0.38322432031791676    0.3333640165729376    0.2988291613648888    
  0.25603122647125903    0.29882912793840244    0.3723285731576724    0.3614814446429152    0.2727452313963836    
  0.1892968156933938    0.14154956799485766    0.12680910696419834    0.14154957059201148    0.1892968267785306    
  0.2727452218577868    0.3614814545320688    0.3723286094267787    0.29882911466844947    0.25603122647125903    
  0.3711509331175638    0.37534972915099096    0.3614813876357705    0.303910379080095    0.22899187627383447    
  0.16991548365217513    0.13612936734902117    0.1254518418743348    0.1361293438670697    0.16991552227856493    
  0.2289918809423374    0.30391040283067594    0.3614814106467068    0.3753497370206061    0.3711509331175638    
  0.37534977838469563    0.3753793682155457    0.3551266225306089    0.29788838386868527    0.22812630085950059    
  0.1735518253032478    0.1419702863577457    0.1318447820923091    0.14197032918539873    0.17355183520575204    
  0.2281262857149577    0.2978883915983464    0.3551265939885366    0.3753793643785083    0.37534977838469563    
  0.36148148408702796    0.35512666780678653    0.3283842187789452    0.279481836260294    0.22593597881833574    
  0.18439789747271282    0.1597358090758718    0.15157204267323832    0.159735806884079    0.18439789037001544    
  0.2259359688858058    0.279481877253923    0.32838427826644684    0.3551266731595894    0.36148148408702796    
  0.3039104235822559    0.2978884707872388    0.2794818345653269    0.2522279548678719    0.2241877760239385    
  0.20246435570425425    0.18945357618762995    0.18504786840400142    0.18945357707115354    0.20246435994193335    
  0.2241877519600798    0.25222797550083254    0.2794818110126172    0.29788841942587446    0.3039104235822559    
  0.22899183428522535    0.2281263241352853    0.2259359155972252    0.224187668834295    0.22418769946571818    
  0.22593597816482902    0.22812625863713992    0.22899194715951865    0.22812625537243408    0.2259359461300419    
  0.22418771971811444    0.22418773519831817    0.22593592004695276    0.2281263017749509    0.22899183428522535    
  0.16991556898055424    0.17355183267040228    0.1843979172094621    0.2024643672952688    0.22593603874234633    
  0.24968638211379046    0.2667998546426968    0.27274519742603337    0.26679989045647495    0.2496863916789018    
  0.22593598064500006    0.20246438011132406    0.18439790275418472    0.1735518835837634    0.16991556898055424    
  0.13612934700721768    0.14197030458953414    0.1597358079920585    0.18945358744371787    0.22812628248031433    
  0.26679984170811855    0.293124301692111    0.30163360782436166    0.2931243484398193    0.26679982156480575    
  0.22812630302611522    0.1894535813189711    0.1597357981461928    0.14197026909583874    0.13612934700721768    
  0.12545183491667503    0.13184478342128705    0.1515720604348136    0.1850478445517881    0.22899189622539629    
  0.2727451483238546    0.3016336453545241    0.31055297531944265    0.3016336278921075    0.27274522059654455    
  0.22899190383085702    0.18504781752482735    0.15157202292054714    0.13184478048890588    0.12545183491667503    
  0.13612937047969506    0.14197028601146197    0.1597358214408477    0.18945354154973934    0.22812626019160612    
  0.26679985103519405    0.2931243231236254    0.3016335833878526    0.2931242911484086    0.26679987500503577    
  0.22812626847128264    0.1894535760397131    0.15973583986458834    0.14197026348551037    0.13612937047969506    
  0.16991556820616133    0.1735518674261046    0.18439793867942225    0.20246439963551116    0.2259359745475111    
  0.2496863177096293    0.26679989793390135    0.27274524352255064    0.26679983693101716    0.24968635549957316    
  0.2259360083381607    0.20246440545542008    0.1843978842303968    0.17355189655993108    0.16991556820616133    
  0.22899185624920831    0.22812631076611314    0.22593600407350745    0.22418771875441657    0.22418773325681815    
  0.22593599386320432    0.22812629357859288    0.22899189152307026    0.22812631183499987    0.2259359252787438    
  0.2241877280584871    0.22418772279401722    0.22593594148947757    0.22812630278641993    0.22899185624920831    
  0.3039103877789023    0.2978884626774852    0.27948181658727267    0.2522279453600502    0.22418773841743078    
  0.2024643933237765    0.18945354313229792    0.18504790625510767    0.18945354170924134    0.20246434680551684    
  0.22418777124366374    0.2522279811121289    0.2794818244659492    0.29788839107081555    0.3039103877789023    
  0.36148149012982445    0.35512665145254574    0.3283842781908029    0.2794818530854948    0.22593599906965575    
  0.18439789244788785    0.15973581548208196    0.15157205555938896    0.15973583240425815    0.1843979202463647    
  0.2259359703935317    0.2794818596313709    0.3283842576166673    0.35512668753550697    0.36148149012982445    
  0.3753498281379854    0.37537939809944804    0.3551266107318082    0.2978883923505548    0.22812628890024805    
  0.17355182260805882    0.1419702839497709    0.13184479386784326    0.1419703121455467    0.17355184065633464    
  0.22812628760010403    0.29788840584950127    0.3551265960725773    0.3753793500747653    0.3753498281379854    
  0.3711509331175638    0.37534972915099096    0.3614813876357705    0.303910379080095    0.22899187627383447    
  0.16991548365217513    0.13612936734902117    0.1254518418743348    0.1361293438670697    0.16991552227856493    
  0.2289918809423374    0.30391040283067594    0.3614814106467068    0.3753497370206061    0.3711509331175638    
  0.3105530349895313    0.3016335485878487    0.2727452075097424    0.22899183379789032    0.18504789139028782    
  0.15157198191582597    0.1318448275566568    0.12545183310613572    0.1318447947507123    0.15157202392972258    
  0.18504787157678373    0.22899185699666597    0.27274520362050964    0.30163356822349974    0.3105530349895313    
  0.3016335971246538    0.2931242867450167    0.26679983904266746    0.22812629884333238    0.18945352932019563    
  0.1597358265935834    0.14197026364555956    0.1361293642748602    0.14197030532400665    0.1597358090685484    
  0.18945352139594365    0.22812631153487914    0.2667998354603129    0.2931242720522528    0.3016335971246538    
  0.27274528303305484    0.26679989413737276    0.24968638936062762    0.2259359489250526    0.20246444340898095    
  0.1843978865187189    0.1735518717518338    0.1699155018742702    0.1735518667573275    0.1843978904405394    
  0.20246442374742513    0.2259359808571612    0.24968642486085307    0.26679990499359324    0.27274528303305484    
  0.22899186733185029    0.22812635910259293    0.22593593765101616    0.22418771185057731    0.22418773751680962    
  0.22593595231413213    0.22812628664558451    0.228991920773313    0.22812630346875004    0.22593594961230407    
  0.22418772282406835    0.22418768873788794    0.2259359285289248    0.2281263181626113    0.22899186733185029    
  0.18504783714644552    0.18945356776950878    0.20246436638346407    0.22418764417619058    0.2522279805411255    
  0.27948183730567294    0.29788838607090484    0.3039104318837938    0.2978884128193928    0.27948178233827764    
  0.2522279910923415    0.2241877088565476    0.20246437278249532    0.18945353631351525    0.18504783714644552    
  0.15157206503897405    0.15973583411082767    0.18439789711826227    0.2259359848563245    0.2794818637376356    
  0.3283842794951622    0.355126616773452    0.3614814521725171    0.3551266491562956    0.32838430167085875    
  0.27948185312112694    0.22593597217448066    0.1843978952257829    0.1597358818621011    0.15157206503897405    
  0.13184480201136453    0.141970305072495    0.17355184992009115    0.2281263166987856    0.29788843930115594    
  0.35512659159808974    0.37537941899679983    0.3753497276610366    0.375379459887674    0.35512658265573144    
  0.2978884551173049    0.2281263171254802    0.1735518454506297    0.14197025305103816    0.13184480201136453    
  0.12545182859696927    0.13612933937216168    0.16991552512684602    0.22899190321567298    0.30391039289946015    
  0.3614813472299175    0.3753497522827392    0.3711508890818342    0.3753497639280237    0.3614814561917145    
  0.3039104074607701    0.22899183775924628    0.16991548570158715    0.13612934252842682    0.12545182859696927    
  0.13184480240858257    0.14197025656270834    0.1735518610934229    0.22812628693951964    0.2978883946053168    
  0.355126588805113    0.37537944548825636    0.37534972853058834    0.37537943111299277    0.3551266060717823    
  0.2978883984645647    0.2281263062034176    0.17355187547234494    0.14197026242020783    0.13184480240858257    
  0.15157206794777048    0.1597358375423084    0.18439792606393623    0.22593601102269462    0.27948182542333583    
  0.3283841976019711    0.3551266622239365    0.36148144527214987    0.35512659098245064    0.32838422098634107    
  0.2794818209128632    0.22593600238111422    0.18439788772033694    0.1597358698845965    0.15157206794777048    
  0.18504786353199362    0.18945357110219074    0.2024644346994859    0.2241877198805673    0.25222800482863034    
  0.2794818344312116    0.29788843092527545    0.3039104070165305    0.29788842722252273    0.2794817569941722    
  0.2522279977790667    0.22418770480410358    0.2024643537849962    0.18945354468953501    0.18504786353199362    
  0.2289918550550377    0.22812635444637713    0.22593594494818584    0.22418766660511974    0.22418770396795765    
  0.22593598651094582    0.2281262741146243    0.2289919294103196    0.22812625621493732    0.225935908815809    
  0.22418776172130397    0.22418774381115553    0.2259359455046572    0.22812629797356196    0.2289918550550377    
  0.272745290246097    0.2667998877886528    0.24968642773866287    0.22593598530844175    0.20246442109398946    
  0.18439788070516402    0.17355185755524358    0.16991552520156966    0.17355187409803055    0.18439792208909542    
  0.20246441137192975    0.22593597923369663    0.24968640590078575    0.2667998905546695    0.272745290246097    
  0.30163364742981713    0.29312430237649373    0.26679981423989235    0.2281263196991576    0.18945352060606466    
  0.15973582792687224    0.14197028789011895    0.13612935457408415    0.1419703127190714    0.15973580489237807    
  0.18945352128523588    0.2281263164619681    0.2667998126019914    0.29312424112849805    0.30163364742981713    
  0.3105530349895313    0.3016335485878487    0.2727452075097424    0.22899183379789032    0.18504789139028782    
  0.15157198191582597    0.1318448275566568    0.12545183310613572    0.1318447947507123    0.15157202392972258    
  0.18504787157678373    0.22899185699666597    0.27274520362050964    0.30163356822349974    0.3105530349895313    
  0.20899245448594064    0.2038425708007635    0.18929685022007525    0.1699155416061635    0.15157205965876924    
  0.13759615955302415    0.12938624491071019    0.1268091247118146    0.12938625879425636    0.13759618172983473    
  0.15157201960757982    0.1699155429960139    0.1892968383415241    0.20384253362436686    0.20899245448594064    
  0.20384256882844323    0.19969403418069614    0.18832048675180985    0.17355187862420948    0.15973584678971298    
  0.1493506864040252    0.1433904259522795    0.14154954244452098    0.14339047413793235    0.1493506837386483    
  0.15973587849565105    0.1735518825163476    0.18832048421892383    0.19969400318126942    0.20384256882844323    
  0.18929689386615697    0.18832052503480642    0.18609548915852375    0.18439795955214797    0.1843979484240465    
  0.18609553954745994    0.1883204716538444    0.18929688746043544    0.18832046569439564    0.18609553300691584    
  0.18439796202112335    0.18439801376624113    0.18609555451229298    0.18832051356769614    0.18929689386615697    
  0.16991554760434707    0.1735519100378811    0.18439794107047128    0.20246438022044858    0.22593603431977005    
  0.2496864021421051    0.26679991399879355    0.2727452364670331    0.26679993198660584    0.2496863811277412    
  0.2259360064965183    0.20246438506039885    0.1843979164852337    0.17355185850703986    0.16991554760434707    
  0.15157201165393303    0.15973587960070043    0.18439791661377122    0.2259359464244186    0.27948181237758346    
  0.32838431398213336    0.3551266127378915    0.3614815129384039    0.35512661616016195    0.3283842610529899    
  0.2794818285514986    0.22593598026809    0.18439789810382637    0.1597358685777195    0.15157201165393303    
  0.13759623594635054    0.14935070031517195    0.18609553398626089    0.24968642820155765    0.32838432037754317    
  0.3817304626328898    0.38322439421624077    0.37232862614916257    0.38322434772583386    0.38173051666133256    
  0.3283843317180696    0.24968642118490234    0.18609553496363054    0.1493507234587496    0.13759623594635054    
  0.12938623401123867    0.14339044138110424    0.18832046594321306    0.2667999394292733    0.3551266658640506    
  0.383224338407486    0.3333640452839417    0.2988291266134383    0.3333641170473905    0.38322429343440106    
  0.35512666575112145    0.26679993718832967    0.1883204568231285    0.14339039109152915    0.12938623401123867    
  0.1268091197725162    0.1415495321400529    0.18929688263458033    0.27274522442532717    0.3614814858179884    
  0.37232849680362967    0.29882914742604993    0.2560312516675476    0.2988291644427299    0.3723285806850313    
  0.36148147991223467    0.27274520984018596    0.18929685180298778    0.1415495549100532    0.1268091197725162    
  0.12938624362397885    0.1433904168299343    0.18832047765260426    0.26679990336822457    0.35512665627065204    
  0.38322430135759666    0.33336411332494326    0.298829125212884    0.3333641252878425    0.38322430877069097    
  0.3551266554107856    0.2667999082505204    0.18832046482213904    0.14339041201377517    0.12938624362397885    
  0.1375962386077595    0.14935073709812535    0.18609554356263944    0.2496863939425354    0.3283843277601935    
  0.3817304716383694    0.3832243736243115    0.37232862832756686    0.3832243294451159    0.3817304874777034    