#     DFTpy    
  CRYSTAL 
    
  PRIMVEC    
  1.156653380374584    -2.00338242155507    0.0    
  1.156653380374584    2.00338242155507    0.0    
  0.0    0.0    2.1771955994482752    
  PRIMCOORD    
  1    1    
  Si    0.0    0.0    0.0    
  BEGIN_BLOCK_DATAGRID_3D    
  3d_datagrid_density    
  BEGIN_DATAGRID_3D#0    
  11    11    11    
  0.0    0.0    0.0    
  1.156653380374584    -2.00338242155507    0.0    
  1.156653380374584    2.00338242155507    0.0    
  0.0    0.0    2.1771955994482752    
  0.04953169462712242    0.09239019778952348    0.2591960583984786    0.4632800021216947    0.5270418048150731    
  0.5228437658943041    0.5270417716673074    0.4632799943432043    0.25919605326689654    0.09239019768680921    
  0.04953169462712242    0.09239019711791255    0.09238217987906257    0.20175308890838672    0.4014376622556824    
  0.5152026440644634    0.5184296309283839    0.5184391850593003    0.515205809049449    0.40137149046592396    
  0.2017966210200754    0.09239019711791255    0.25919603927439616    0.20175307838441583    0.25925983964770194    
  0.40138813152592034    0.5051700708225937    0.5112089063781382    0.4979271310308607    0.5111915417830684    
  0.5052515250991826    0.4013714989297504    0.25919603927439616    0.4632799916582216    0.4014376615305929    
  0.4013881206155962    0.46325093438252607    0.5151702543359402    0.5112901384511435    0.4876929965123474    
  0.4877331201478639    0.5111915598541709    0.5152057993657303    0.4632799916582216    0.527041772558695    
  0.5152026338224909    0.5051700680794202    0.5151702617187566    0.5271142040538422    0.5184388713104402    
  0.49785801283973025    0.48769298813703943    0.4979270845408279    0.518439221463304    0.527041772558695    
  0.522843757800387    0.5184296710542196    0.5112088947311997    0.511290169508637    0.5184388801653198    
  0.5227693724432604    0.5184389223954344    0.5112901234786082    0.5112089073060401    0.5184296391449529    
  0.522843757800387    0.527041785102677    0.5184391895353131    0.49792713089000407    0.4876930063632504    
  0.4978580433024438    0.5184388964470857    0.5271141710553625    0.5151702333628334    0.5051700662725546    
  0.5152026204956801    0.527041785102677    0.4632799906872347    0.5152058248665216    0.5111915759597025    
  0.4877330891774013    0.4876929995305234    0.5112901247500297    0.5151702688870622    0.463250932421707    
  0.40138813441123655    0.4014376707446286    0.4632799906872347    0.2591960471594464    0.40137147178473703    
  0.5052515405705356    0.5111915493957018    0.4979271231832582    0.5112088993980705    0.5051700550291365    
  0.40138813161428394    0.25925983395979796    0.2017530950772766    0.2591960471594464    0.09239019441740806    
  0.20179662255250702    0.4013715092074577    0.5152058318795726    0.5184392113214039    0.5184296107555358    
  0.5152026080282545    0.4014376633069937    0.2017530888958252    0.09238219014890853    0.09239019441740806    
  0.04953169462712242    0.09239019778952348    0.2591960583984786    0.4632800021216947    0.5270418048150731    
  0.5228437658943041    0.5270417716673074    0.4632799943432043    0.25919605326689654    0.09239019768680921    
  0.04953169462712242    0.08939644433096784    0.14064659660205392    0.3045361748628605    0.4670873108850668    
  0.5011411871339351    0.4909869088521536    0.5011411794722783    0.4670872648086936    0.3045361793850478    
  0.14064659533684756    0.08939644433096784    0.14064660330328993    0.14060767753895784    0.25207237061496884    
  0.4214293374357352    0.49703786229400193    0.48738922815232344    0.4874120044082897    0.4970246090635774    
  0.42138418872225347    0.2520971606949072    0.14064660330328993    0.30453618153358897    0.25207236275015676    
  0.30462674869615136    0.4213840465238661    0.4907376885612411    0.4815621200063901    0.4661305406070824    
  0.4815496723591466    0.4908051266866382    0.42138418628976937    0.30453618153358897    0.46708727506887604    
  0.42142937270162417    0.4213840620004171    0.4670335742104197    0.49700953723564667    0.4816283265136054    
  0.4563618172010784    0.45638976405246323    0.4815497044980014    0.4970245998633955    0.46708727506887604    
  0.5011411899513132    0.4970378744846655    0.49073767270970436    0.49700955805468067    0.5012241098454002    
  0.4874037597770341    0.4660722804060917    0.456361795429455    0.46613053157780326    0.4874120160551778    
  0.5011411899513132    0.4909869181264794    0.48738923476827256    0.4815621120746657    0.48162832840339576    
  0.4874037774727892    0.49090210047986876    0.4874037690415756    0.4816283107949583    0.48156212137398047    
  0.4873892267495972    0.4909869181264794    0.5011411989875196    0.4874119798218734    0.46613057820915405    
  0.456361805111301    0.46607229575059334    0.48740376057075324    0.5012241259203816    0.4970095162954975    
  0.49073765341852027    0.4970378615311575    0.5011411989875196    0.4670872991222708    0.4970246002223982    
  0.48154971341292546    0.45638973067453736    0.4563618199546042    0.4816283008260795    0.4970095281182196    
  0.4670335516880392    0.42138407142357776    0.4214293176575323    0.4670872991222708    0.3045361751374296    
  0.4213841574207492    0.4908051200443563    0.4815496914834219    0.46613052758131035    0.48156210825215706    
  0.4907376545803867    0.42138405246642924    0.3046267528555886    0.25207235183396787    0.3045361751374296    
  0.1406465909247503    0.25209716817911176    0.42138417104744536    0.4970246259423717    0.48741200829081005    
  0.4873892072411275    0.4970378562387272    0.42142934805391236    0.252072372607258    0.14060768066504642    
  0.1406465909247503    0.08939644433096784    0.14064659660205392    0.3045361748628605    0.4670873108850668    
  0.5011411871339351    0.4909869088521536    0.5011411794722783    0.4670872648086936    0.3045361793850478    
  0.14064659533684756    0.08939644433096784    0.2558354655655252    0.30608598526864617    0.4119674794531466    
  0.4608337568575756    0.43438762574495887    0.41314131922084113    0.4343875955085733    0.46083373333476035    
  0.4119675123364748    0.30608598578797186    0.2558354655655252    0.3060859878706531    0.3060203090351862    
  0.3842921460358945    0.453478889085664    0.44556273957058085    0.41142601599325296    0.41144065844764294    
  0.4455508540093481    0.4534619523674541    0.38429198688998073    0.3060859878706531    0.41196748367029185    
  0.38429212672563656    0.41205083952612565    0.45344632276406943    0.4471911573569155    0.408744959368855    
  0.38925302606424755    0.4087426703959441    0.44721772446820524    0.4534619705898273    0.41196748367029185    
  0.46083371203990553    0.453478892826306    0.4534463447221604    0.46079275180427526    0.44554884969444597    
  0.40877802711389416    0.3804920258760286    0.38050184923283953    0.4087426764887991    0.4455508509638235    
  0.46083371203990553    0.4343876340563357    0.44556273298180443    0.44719114737764215    0.4455488651829431    
  0.4344405209937953    0.4114345775157295    0.3892242088121197    0.3804920108488059    0.38925300240311794    
  0.411440688457805    0.4343876340563357    0.4131413230243031    0.41142604821647066    0.4087449687078251    
  0.40877805337971296    0.411434592081219    0.4130878043641703    0.41143459264091425    0.4087780363406144    
  0.4087449710704578    0.41142602126859934    0.4131413230243031    0.43438762352087273    0.4114406536915847    
  0.389253027915088    0.38049204040124096    0.3892242068304088    0.41143460777661195    0.4344404943607683    
  0.44554883223400943    0.44719113798760995    0.4455627405584718    0.43438762352087273    0.46083373589835147    
  0.44555085923857024    0.4087426957912775    0.38050184722389746    0.3804920159713685    0.4087780407394031    
  0.4455488520862308    0.4607927410799297    0.45344634545694384    0.4534788656939896    0.46083373589835147    
  0.4119674931088043    0.4534619433212643    0.44721773747260274    0.40874266863362796    0.389253005162645    
  0.4087449601375985    0.4471911544166803    0.45344633920223093    0.4120508712219969    0.3842921152052454    
  0.4119674931088043    0.3060859926151399    0.38429196371778546    0.45346197221624523    0.44555086448628267    
  0.4114406760226321    0.4114260092510874    0.44556273298295573    0.45347888801007535    0.3842921254890182    
  0.3060203120925373    0.3060859926151399    0.2558354655655252    0.30608598526864617    0.4119674794531466    
  0.4608337568575756    0.43438762574495887    0.41314131922084113    0.4343875955085733    0.46083373333476035    
  0.4119675123364748    0.30608598578797186    0.2558354655655252    0.5133451314588054    0.5157787593945056    
  0.4936680865944303    0.4266971013238498    0.3570567865970171    0.3293721611341793    0.3570567618270205    
  0.4266970925184714    0.49366809605324846    0.5157787634216563    0.5133451314588054    0.5157787723612459    
  0.5157577534578044    0.5042246120574823    0.4527125955008157    0.37873423043777565    0.3291721428904234    
  0.3291748743495884    0.37873310607335847    0.4527092335928042    0.5042225379709347    0.5157787723612459    
  0.493668083810473    0.5042245714047049    0.4936895554954331    0.4527039665303239    0.3865182938859344    
  0.32906617997573895    0.3073415918267713    0.32906473538606335    0.3865215201447005    0.4527092025173479    
  0.493668083810473    0.426697078286656    0.4527126065572288    0.45270399795055977    0.4266890575566257    
  0.37873241956558207    0.32906959239060113    0.29949031988721636    0.2994924939153834    0.3290647523677391    
  0.37873312061619224    0.426697078286656    0.3570567949522315    0.3787342158455693    0.386518285909727    
  0.3787324331588689    0.35706713662313716    0.3291756459988154    0.3073365660575994    0.29949032600688236    
  0.3073415742160825    0.32917489091570235    0.3570567949522315    0.3293721632745004    0.32917215223547114    
  0.3290661790868904    0.3290696093915615    0.32917564504848107    0.32935767499008983    0.32917565335694365    
  0.32906960033725113    0.3290661865826664    0.3291721556533243    0.3293721632745004    0.35705679657920647    
  0.3291748779534101    0.30734160132068755    0.29949034672752195    0.3073365602121215    0.3291756579176137    
  0.3570671341816233    0.37873240779244155    0.38651827408213163    0.3787342135916886    0.35705679657920647    
  0.4266970997313722    0.378733110940952    0.32906476944377194    0.29949247403796003    0.29949032893697036    
  0.3290696026828248    0.3787324174333063    0.42668905242753546    0.45270401551113604    0.45271259569562566    
  0.4266970997313722    0.49366808347040636    0.4527092146079012    0.38652152584587307    0.3290647445566897    
  0.30734157921269717    0.3290661715852329    0.38651827405872685    0.4527039719745858    0.49368956487628407    
  0.5042245591362148    0.49366808347040636    0.5157787586029734    0.5042225148774857    0.45270922737798885    
  0.3787331368304802    0.3291748818030434    0.32917213882324453    0.37873421537776475    0.45271262004486584    
  0.5042245588656195    0.5157577870057879    0.5157787586029734    0.5133451314588054    0.5157787593945056    
  0.4936680865944303    0.4266971013238498    0.3570567865970171    0.3293721611341793    0.3570567618270205    
  0.4266970925184714    0.49366809605324846    0.5157787634216563    0.5133451314588054    0.659071501222632    
  0.616162372468399    0.5069222983735233    0.38495252186570283    0.30043873104158225    0.2716946145820177    
  0.3004387269934264    0.3849525205951576    0.5069222986885304    0.6161623793925881    0.659071501222632    
  0.6161623780123112    0.6161624497706375    0.5400173570038366    0.4253558014251452    0.3254448004709601    
  0.27191830466970235    0.2719178755975087    0.3254456635374276    0.4253544484106368    0.5400192639565055    
  0.6161623780123112    0.5069222957948305    0.5400173624426606    0.5069242643461528    0.4253546453183153    
  0.3356662215378089    0.2726577136738261    0.25087296663307007    0.27265762794919673    0.33566591776396293    
  0.42535443516035215    0.5069222957948305    0.3849525213747526    0.4253558226962215    0.42535466162198454    
  0.38495241108665146    0.3254449287882298    0.2726569006486166    0.2435105530531594    0.24350916538948317    
  0.27265763159774115    0.32544566200903563    0.3849525213747526    0.3004387362915952    0.32544480335211645    
  0.33566621146063114    0.3254449367162645    0.3004388265892919    0.27192002867064213    0.25087147979023733    
  0.243510540567746    0.2508729566925448    0.27191788743456996    0.3004387362915952    0.2716946303399399    
  0.27191830643470094    0.27265771962059426    0.272656902524217    0.27192004028308336    0.2716910800474605    
  0.27192002978703333    0.27265688453113407    0.2726577305089619    0.2719182948413686    0.2716946303399399    
  0.30043874673891985    0.27191785533837315    0.2508729826376411    0.24351056539209298    0.2508714761632409    
  0.2719200259101398    0.3004388297758709    0.32544492696864447    0.3356661903884515    0.3254448058813877    
  0.30043874673891985    0.3849525380360501    0.3254456581659031    0.2726576476068124    0.24350915025943695    
  0.24351055934022975    0.27265688391828663    0.3254449363453502    0.38495240259938285    0.42535467377808117    
  0.4253557738796398    0.3849525380360501    0.5069222908816652    0.4253544229674061    0.3356659312217866    
  0.27265763159881823    0.25087295288097283    0.2726577175539517    0.33566620586923174    0.425354647200869    
  0.5069242417206269    0.5400173436404619    0.5069222908816652    0.6161623468026545    0.5400192532631698    
  0.4253544370234303    0.3254456779681976    0.2719178956819167    0.27191829878003526    0.3254447998201891    
  0.4253558125152537    0.5400173662961252    0.6161624586836396    0.6161623468026545    0.659071501222632    
  0.616162372468399    0.5069222983735233    0.38495252186570283    0.30043873104158225    0.2716946145820177    
  0.3004387269934264    0.3849525205951576    0.5069222986885304    0.6161623793925881    0.659071501222632    
  0.6858170753011693    0.6309012765593778    0.500616830290188    0.36706458006732834    0.280344851167902    
  0.2518798071926974    0.28034483069388483    0.36706459258561763    0.5006168149565997    0.6309012776316704    
  0.6858170753011693    0.6309012787794102    0.6308985800904695    0.5389395060745761    0.41038853313126883    
  0.3057044292929156    0.25206914267386565    0.25207035075118034    0.3057015901197301    0.4103879164385524    
  0.5389433488334735    0.6309012787794102    0.5006168061678178    0.5389394791527374    0.5006212092339689    
  0.41039143841642267    0.3163569994338318    0.25283646375295216    0.23134067553901377    0.25283758950416524    
  0.316360441477997    0.4103879235544698    0.5006168061678178    0.3670645843466015    0.4103885430515912    
  0.410391435165893    0.3670585489071215    0.3057035133567408    0.25283864538568    0.22410585957579196    
  0.22410373114872553    0.252837606657695    0.3057015823393344    0.3670645843466015    0.2803448327359639    
  0.30570442472975123    0.3163570082750317    0.30570351871532    0.280347202126754    0.252069008624855    
  0.23133918358044042    0.22410585592131546    0.2313406471282902    0.25207035942365275    0.2803448327359639    
  0.2518798071615563    0.2520691708027998    0.252836450678282    0.25283865705547726    0.25206901358073236    
  0.2518796910286778    0.2520690404230485    0.2528386341311913    0.252836466041351    0.25206915116753487    
  0.2518798071615563    0.28034484376921254    0.2520703484424056    0.23134067792311255    0.22410586501680646    
  0.23133919648530538    0.25206901959195643    0.2803471818184628    0.3057035059352821    0.3163570037230068    
  0.3057044209083341    0.28034484376921254    0.3670645819101831    0.30570159501694655    0.2528376118236684    
  0.22410371881271796    0.22410586084364742    0.2528386381661845    0.30570353232211045    0.36705854952363615    
  0.410391444331257    0.41038854983079004    0.3670645819101831    0.5006167983035525    0.4103878946723266    
  0.31636045172667826    0.25283759656921145    0.23134066709377732    0.2528364664778058    0.3163569895606217    
  0.4103914414002664    0.5006211960641055    0.5389394951517619    0.5006167983035525    0.6309012762617309    
  0.5389433365744075    0.41038792918974715    0.30570159991248796    0.2520703739545472    0.2520691380119694    
  0.3057044132919977    0.41038854811972825    0.5389394892516408    0.630898606620543    0.6309012762617309    
  0.6858170753011693    0.6309012765593778    0.500616830290188    0.36706458006732834    0.280344851167902    
  0.2518798071926974    0.28034483069388483    0.36706459258561763    0.5006168149565997    0.6309012776316704    
  0.6858170753011693    0.6590715208083222    0.6161623576741164    0.5069222915716594    0.3849525296265647    
  0.30043873479799743    0.2716946172343745    0.30043873089094214    0.3849524968491016    0.5069222951970058    
  0.6161623600252628    0.6590715208083222    0.6161623803210011    0.616162447364398    0.540017363670788    
  0.4253558043863617    0.3254447958835553    0.27191830843664927    0.2719178675227174    0.3254456649265991    
  0.4253544385648311    0.5400192592124403    0.6161623803210011    0.506922302019045    0.5400173578125382    
  0.5069242579037457    0.42535463957725167    0.33566622045965894    0.27265771646894543    0.25087296318370783    
  0.2726576192048538    0.33566592165985204    0.4253544385927942    0.506922302019045    0.3849525144452157    
  0.42535583163977364    0.42535466729840554    0.38495242641979865    0.3254449241187861    0.27265689764316137    
  0.2435105543141759    0.2435091651289484    0.27265763918999447    0.32544564985297697    0.3849525144452157    
  0.30043874069303433    0.325444809956841    0.33566621526008467    0.3254449394947372    0.30043882217395507    
  0.2719200291960997    0.25087147454094383    0.2435105404013129    0.2508729558351331    0.2719178785837564    
  0.30043874069303433    0.27169462615983303    0.27191831754335755    0.27265771146841095    0.2726569072229607    
  0.27192003972674195    0.27169108233260375    0.2719200345115303    0.2726568956798796    0.2726577211507016    
  0.2719183058725343    0.27169462615983303    0.30043873527508697    0.2719178552342058    0.2508729892935123    
  0.24351055247754794    0.2508714821138249    0.2719200278890415    0.3004388308858439    0.3254449225643445    
  0.33566619661226216    0.32544479977664936    0.30043873527508697    0.3849525298590792    0.32544565520165125    
  0.27265764602341214    0.24350914917305794    0.24351056100163482    0.2726568777940286    0.3254449280309233    
  0.3849524022715591    0.42535467445574343    0.4253557905609547    0.3849525298590792    0.506922282990295    
  0.42535442431027415    0.33566592154138214    0.27265763004598814    0.2508729542511705    0.27265771353245166    
  0.3356662007952162    0.4253546530222161    0.5069242511552243    0.5400173335627995    0.506922282990295    
  0.6161623388409806    0.540019267021608    0.4253544267753382    0.3254456792097374    0.271917884460975    
  0.27191829531269207    0.32544479586976177    0.42535580959425745    0.540017351995305    0.6161624693568738    
  0.6161623388409806    0.6590715208083222    0.6161623576741164    0.5069222915716594    0.3849525296265647    
  0.30043873479799743    0.2716946172343745    0.30043873089094214    0.3849524968491016    0.5069222951970058    
  0.6161623600252628    0.6590715208083222    0.5133451227565609    0.5157787697925647    0.49366806795371887    
  0.42669711104605446    0.35705678692171905    0.32937216194699276    0.35705675674537823    0.4266970888673382    
  0.4936680834007443    0.5157787669662963    0.5133451227565609    0.5157787721114169    0.5157577471537766    
  0.5042246040465541    0.4527126037250684    0.37873422157083325    0.32917213569786125    0.3291748801367757    
  0.378733102162039    0.45270920415958094    0.5042225343803473    0.5157787721114169    0.49366807210813896    
  0.5042245738732921    0.49368955036352075    0.4527039716923436    0.38651827978454095    0.32906618686788386    
  0.3073415882070594    0.329064747169883    0.3865215086160222    0.4527092136140738    0.49366807210813896    
  0.4266970686331962    0.4527126129302685    0.4527039922997797    0.42668903208456954    0.3787324249588388    
  0.3290695874113062    0.29949033837350947    0.29949248499463965    0.32906475489996506    0.37873310242503816    
  0.4266970686331962    0.3570567913166758    0.37873421773261484    0.38651827735006544    0.37873244460229033    
  0.3570671375605651    0.3291756393470779    0.3073365592694715    0.29949032621606575    0.3073415744170455    
  0.32917489419493595    0.3570567913166758    0.32937216959814614    0.3291721616300631    0.3290661926482055    
  0.3290696103582915    0.329175655441987    0.3293576694703196    0.3291756592992253    0.32906959707908345    
  0.32906619270307697    0.32917214236110337    0.32937216959814614    0.35705679000670626    0.329174876464338    
  0.3073415940023593    0.2994903511785966    0.3073365645951775    0.32917566490173356    0.35706711842448213    
  0.3787324172110419    0.386518267553768    0.37873422663738565    0.35705679000670626    0.4266971042126514    
  0.37873311754661065    0.3290647771454505    0.29949248220980723    0.2994903361177342    0.32906959801268953    
  0.3787324369097412    0.4266890283817886    0.45270399534921313    0.4527126014056376    0.4266971042126514    
  0.493668079392735    0.4527092147755975    0.3865215229898143    0.32906475174211924    0.3073415726034111    
  0.32906617675562044    0.38651827368529096    0.4527039743335079    0.4936895835270128    0.5042245698833597    
  0.493668079392735    0.5157787642790036    0.5042225213807532    0.4527092340894953    0.3787331256631442    
  0.3291748946991854    0.3291721298779071    0.3787342169855695    0.45271260565978383    0.504224566771697    
  0.5157577683995422    0.5157787642790036    0.5133451227565609    0.5157787697925647    0.49366806795371887    
  0.42669711104605446    0.35705678692171905    0.32937216194699276    0.35705675674537823    0.4266970888673382    
  0.4936680834007443    0.5157787669662963    0.5133451227565609    0.25583546571275884    0.3060859838273924    
  0.4119675033090245    0.4608337461459168    0.43438762619351606    0.41314131464520626    0.4343875917357245    
  0.4608337131260406    0.4119675040110322    0.3060859841156027    0.25583546571275884    0.3060859921649964    
  0.3060203074967246    0.3842921590990333    0.45347887319516705    0.4455627464196576    0.4114260273140285    
  0.4114406516754633    0.44555084302931786    0.4534619636899124    0.3842919751220126    0.3060859921649964    
  0.4119674881884215    0.38429211956199294    0.4120508434677317    0.45344631996443163    0.4471911650592406    
  0.4087449570526656    0.3892530237246365    0.4087426478049856    0.4472177296870967    0.45346193805694957    
  0.4119674881884215    0.4608337201571509    0.45347888126803687    0.4534463570603487    0.4607927663854164    
  0.4455488299029831    0.40877803518811834    0.3804920102505085    0.38050185461301606    0.40874267147359455    
  0.4455508539576094    0.4608337201571509    0.43438763970631605    0.4455627321264069    0.44719116287203153    
  0.44554887019686534    0.4344405180152306    0.4114345829139492    0.38922420283390613    0.3804920224106296    
  0.3892530073819901    0.4114406786968833    0.43438763970631605    0.41314132109797586    0.4114260442405276    
  0.4087449648775202    0.40877805539603596    0.41143458656652215    0.4130878047502283    0.4114345882851095    
  0.40877804079587116    0.40874497382618097    0.41142603560490215    0.41314132109797586    0.4343876319687859    
  0.41144066328667034    0.38925304176034825    0.38049204301511125    0.3892242112720866    0.41143459234932017    
  0.43444050913311977    0.4455488283872542    0.44719114715730424    0.4455627362061527    0.4343876319687859    
  0.46083374323003484    0.4455508614677603    0.4087426966374487    0.3805018392651559    0.38049201903654767    
  0.4087780411561987    0.4455488407888916    0.4607927615479332    0.45344636654342957    0.4534788860815168    
  0.46083374323003484    0.4119675037438083    0.4534619584162519    0.44721774567842    0.40874266752611627    
  0.3892530135231645    0.40874494585714777    0.44719114756188216    0.4534463263654968    0.41205086472688324    
  0.3842921259988752    0.4119675037438083    0.30608599082293864    0.38429196511978475    0.4534619811111528    
  0.44555088159753625    0.4114406661885821    0.41142602086859575    0.44556272473965924    0.4534788831485624    
  0.3842921113378684    0.30602033342363805    0.30608599082293864    0.25583546571275884    0.3060859838273924    
  0.4119675033090245    0.4608337461459168    0.43438762619351606    0.41314131464520626    0.4343875917357245    
  0.4608337131260406    0.4119675040110322    0.3060859841156027    0.25583546571275884    0.08939643761030837    
  0.14064659719881661    0.3045361835692711    0.46708729679955135    0.5011411858442355    0.4909869067813961    
  0.501141178637872    0.4670872772398458    0.3045361718912339    0.14064659626883683    0.08939643761030837    
  0.1406465996685727    0.14060767678202385    0.25207236187371085    0.42142934412052724    0.4970378619931382    
  0.4873892342747389    0.48741200136995366    0.49702460229137235    0.4213841875584335    0.2520971618787256    
  0.1406465996685727    0.30453617538737127    0.2520723639460355    0.30462674882996316    0.42138404956809605    
  0.4907376890490982    0.4815621161440475    0.46613054722155983    0.48154968123641917    0.4908051168306807    
  0.4213841659139663    0.30453617538737127    0.46708728198185656    0.42142936254707947    0.42138405943566193    
  0.46703356800508977    0.4970095300398129    0.4816283329948581    0.45636180581296815    0.45638975938743725    
  0.4815496973533825    0.49702460359041345    0.46708728198185656    0.501141201275521    0.49703786276383366    
  0.49073767514438593    0.4970095457944385    0.5012241141784485    0.4874037590633013    0.4660722833868388    
  0.4563617944551013    0.46613053754037137    0.4874120176767067    0.501141201275521    0.490986924939782    
  0.4873892338945489    0.48156212719524116    0.481628335307153    0.48740378187031136    0.49090209762705994    
  0.48740376551448394    0.4816283023676037    0.4815621395515488    0.48738920748286124    0.490986924939782    
  0.5011412085009455    0.48741198782091477    0.46613057146433573    0.45636182687031945    0.46607228705127995    
  0.48740376001795704    0.5012241205183574    0.4970095190253961    0.4907376584164143    0.4970378736065812    
  0.5011412085009455    0.46708732167207545    0.49702461501046424    0.4815497200275572    0.4563897367156386    
  0.4563618199434431    0.4816283011992993    0.4970095422829296    0.46703355103019545    0.4213840751903968    
  0.4214293147200992    0.46708732167207545    0.3045361745065814    0.4213841635378683    0.4908051458057362    
  0.4815496970121956    0.46613052843301045    0.4815621160083837    0.4907376612471579    0.4213840426905833    
  0.30462674392723066    0.25207236457486837    0.3045361745065814    0.14064659725897702    0.2520971682177186    
  0.4213841819263193    0.4970246311192288    0.4874120234071942    0.4873892008065141    0.4970378592448211    
  0.4214293421665094    0.2520723760937976    0.14060767907154337    0.14064659725897702    0.08939643761030837    
  0.14064659719881661    0.3045361835692711    0.46708729679955135    0.5011411858442355    0.4909869067813961    
  0.501141178637872    0.4670872772398458    0.3045361718912339    0.14064659626883683    0.08939643761030837    
  0.04953169462712242    0.09239019778952348    0.2591960583984786    0.4632800021216947    0.5270418048150731    
  0.5228437658943041    0.5270417716673074    0.4632799943432043    0.25919605326689654    0.09239019768680921    
  0.04953169462712242    0.09239019711791255    0.09238217987906257    0.20175308890838672    0.4014376622556824    
  0.5152026440644634    0.5184296309283839    0.5184391850593003    0.515205809049449    0.40137149046592396    
  0.2017966210200754    0.09239019711791255    0.25919603927439616    0.20175307838441583    0.25925983964770194    
  0.40138813152592034    0.5051700708225937    0.5112089063781382    0.4979271310308607    0.5111915417830684    
  0.5052515250991826    0.4013714989297504    0.25919603927439616    0.4632799916582216    0.4014376615305929    
  0.4013881206155962    0.46325093438252607    0.5151702543359402    0.5112901384511435    0.4876929965123474    
  0.4877331201478639    0.5111915598541709    0.5152057993657303    0.4632799916582216    0.527041772558695    
  0.5152026338224909    0.5051700680794202    0.5151702617187566    0.5271142040538422    0.5184388713104402    
  0.49785801283973025    0.48769298813703943    0.4979270845408279    0.518439221463304    0.527041772558695    
  0.522843757800387    0.5184296710542196    0.5112088947311997    0.511290169508637    0.5184388801653198    
  0.5227693724432604    0.5184389223954344    0.5112901234786082    0.5112089073060401    0.5184296391449529    
  0.522843757800387    0.527041785102677    0.5184391895353131    0.49792713089000407    0.4876930063632504    
  0.4978580433024438    0.5184388964470857    0.5271141710553625    0.5151702333628334    0.5051700662725546    