#     DFTpy    
  CRYSTAL 
    
  PRIMVEC    
  7.152620689655173    0.0    0.0    
  0.0    7.152620689655173    0.0    
  0.0    0.0    7.152620689655173    
  PRIMCOORD    
  8    1    
  Si    0.0    0.0    0.0    
  Si    1.7881551724137932    1.7881551724137932    1.7881551724137932    
  Si    0.0    3.5763103448275864    3.5763103448275864    
  Si    1.7881551724137932    5.364465517241379    5.364465517241379    
  Si    3.5763103448275864    0.0    3.5763103448275864    
  Si    5.364465517241379    1.7881551724137932    5.364465517241379    
  Si    3.5763103448275864    3.5763103448275864    0.0    
  Si    5.364465517241379    5.364465517241379    1.7881551724137932    
  BEGIN_BLOCK_DATAGRID_3D    
  3d_datagrid_density    
  BEGIN_DATAGRID_3D#0    
  31    31    31    
  0.0    0.0    0.0    
  7.152620689655173    0.0    0.0    
  0.0    7.152620689655173    0.0    
  0.0    0.0    7.152620689655173    
  0.08581252834699876    0.1497043834681066    0.34591242649196835    0.44484310226948187    0.3161773387929775    
  0.16817234836648437    0.08417949649622106    0.04496235621621048    0.027382135003063104    0.01929312997067378    
  0.015249628633200207    0.013008927648301827    0.01161134843442987    0.010720380839052527    0.010199911657230469    
  0.010029728799178898    0.010199910882516606    0.010720376219054749    0.011611349126404949    0.01300893842492343    
  0.015249617692107777    0.01929312459582108    0.02738212914568554    0.04496233729852865    0.08417951204511313    
  0.16817238383239236    0.3161773295417913    0.44484307243189014    0.34591237813098774    0.14970441141071142    
  0.08581252834699876    0.14970436052929473    0.2199326985306743    0.3920071966628096    0.4359207679243041    
  0.29649088217202885    0.1581845192247046    0.08065338991977684    0.04403853909780624    0.027363876597514287    
  0.019553171771462294    0.015562441903164331    0.013300079702983967    0.011864015251942821    0.010932090003763096    
  0.010382380103847226    0.010199909981804782    0.010382368139324279    0.010932109087743423    0.011864012075075486    
  0.01330009217418671    0.015562450212219156    0.01955316970215441    0.027363873424702    0.04403853510840591    
  0.08065341704080524    0.1581845079427488    0.29649084056914404    0.435920691101791    0.3920072416958507    
  0.21993274702153376    0.14970436052929473    0.3459124255139293    0.3920071575537556    0.4497698645151125    
  0.38419086376065686    0.24311238535974025    0.13273680330260684    0.07159674238788412    0.04168190566737174    
  0.027436542227080567    0.020388553182998696    0.016539897420476485    0.01419628206424762    0.012625364267143875    
  0.011566081537434242    0.010932111849988707    0.01072038192060911    0.010932103562730083    0.011566076704959856    
  0.012625350247382563    0.014196293657492944    0.01653989612028212    0.020388549885201147    0.027436547260054473    
  0.04168188822336026    0.07159673285256782    0.13273683708058226    0.24311232991695447    0.384190827619485    
  0.4497698454902591    0.39200718346631774    0.3459124255139293    0.4448430996501754    0.43592082215686784    
  0.38419083886919386    0.2811307672696624    0.17531576629579818    0.10200075326228925    0.06050880852933817    
  0.0389538303739988    0.02789798116052857    0.021875015614883496    0.018198713836477726    0.015699800566653238    
  0.013893181887648837    0.01262534700737654    0.011864027026226265    0.011611355714672984    0.011864015199069548    
  0.012625352064866703    0.013893178503833212    0.01569980038442907    0.018198728151647525    0.021874996199912795    
  0.027897992640012886    0.038953811207536944    0.06050880626386415    0.1020007787471428    0.17531571712820654    
  0.2811308002330515    0.38419084763354805    0.43592077799137346    0.4448430996501754    0.3161772888027327    
  0.2964908674757206    0.2431123204851928    0.17531575293156593    0.11589607287531209    0.0749988391739862    
  0.050558447758630345    0.036807521469486404    0.02894645681225681    0.02400201070443514    0.020494222091836895    
  0.01779282874882264    0.015699807561171626    0.01419627829046653    0.01330008732418634    0.013008926076971737    
  0.013300085726741143    0.014196287445082261    0.015699795115673924    0.017792834058039636    0.020494228764564124    
  0.024002019801363902    0.028946459381764367    0.03680750334052408    0.05055843770929756    0.07499885214965872    
  0.1158960436144926    0.17531574463861144    0.24311233243169342    0.29649088426352804    0.3161772888027327    
  0.16817236607107455    0.15818448667333113    0.13273681094333525    0.1020007599628674    0.07499884569975925    
  0.05560707259538709    0.04325162930244245    0.03560945844857599    0.030528000661597745    0.02664262880351977    
  0.02333933001725083    0.020494225436588794    0.018198724604066383    0.016539884160490483    0.015562452939145963    
  0.015249625239840107    0.015562456522250594    0.016539892188950318    0.018198714580019076    0.020494247393082837    
  0.02333931924541389    0.02664261183803248    0.030528003085557174    0.03560943218766167    0.04325163236133421    
  0.05560708129296735    0.0749988397771336    0.10200074323516757    0.1327368054602454    0.15818450062898348    
  0.16817236607107455    0.08417949501731564    0.08065339759523245    0.07159673101935074    0.06050879354001581    
  0.05055846265659774    0.04325162914034193    0.038452175339925    0.03513460524103552    0.032331203596282235    
  0.02951462668210014    0.026642620786769357    0.02400199231933188    0.02187501236124207    0.02038853755077729    
  0.019553170800311086    0.019293126532165493    0.019553168085920874    0.0203885445759222    0.02187500394469585    
  0.02400200271679493    0.026642621910976216    0.029514621110467633    0.03233119312001687    0.03513459751186142    
  0.03845218916087232    0.04325165271490041    0.05055844724623948    0.06050879406630817    0.07159672978627081    
  0.0806534147598223    0.08417949501731564    0.04496235525266701    0.04403854866762018    0.041681908058123524    
  0.038953827952772316    0.036807529129723966    0.03560946552082954    0.0351346076670721    0.03472643030284993    
  0.03383352861786075    0.03233119610120522    0.0305280110082123    0.02894646038845172    0.027898011448390447    
  0.02743653552793091    0.02736389184249585    0.027382131111222913    0.027363891696565612    0.02743654605835188    
  0.027898004095237305    0.028946463021022904    0.03052799876812559    0.03233119913899307    0.03383354000132876    
  0.0347264051603075    0.03513460940852504    0.03560945716695974    0.03680752342245533    0.03895383100824435    
  0.04168190639133939    0.044038545870259994    0.04496235525266701    0.02738212998720143    0.02736388274892429    
  0.027436551771706175    0.027897995592777995    0.02894646438873099    0.03052800967804383    0.03233119814672884    
  0.033833545845898885    0.03472640483369233    0.0351346287172274    0.03560944315475907    0.036807521429940565    
  0.03895384404945368    0.041681907806183804    0.04403855520752355    0.044962361537725835    0.044038536513197314    
  0.04168189736724386    0.03895382015762952    0.03680752702142181    0.035609455332856366    0.03513461647617313    
  0.03472641829776419    0.033833547090792886    0.03233120082980938    0.030528015795734647    0.028946451448409724    
  0.027898015496965776    0.027436540667696234    0.02736389287852877    0.02738212998720143    0.019293124870294904    
  0.0195531717803947    0.02038854872965197    0.0218750084363974    0.02400200582989333    0.026642615971654463    
  0.029514617729693576    0.032331188856599795    0.0351346119523877    0.03845217065285945    0.04325163733528178    
  0.05055843673102987    0.060508817463367316    0.07159671618848877    0.08065341604298618    0.08417948967101525    
  0.08065340329272867    0.07159671817334991    0.06050881092374198    0.05055844631916964    0.043251637637662745    
  0.03845219621568587    0.03513460932621628    0.03233117981925055    0.02951460741686031    0.026642617656750807    
  0.024002001622901347    0.021874999940929455    0.020388542486599156    0.01955316732358002    0.019293124870294904    
  0.015249627139650774    0.015562452763133275    0.016539898772031957    0.018198713100709425    0.02049424264514653    
  0.02333931870232921    0.026642611607679372    0.030528019635386795    0.03560943205924039    0.04325165517484779    
  0.055607072546857    0.07499882931942813    0.10200074448013917    0.13273677993093322    0.15818451080659576    
  0.16817235819176546    0.15818449494298054    0.13273678544673456    0.10200074659840078    0.07499886192088147    
  0.05560705057921873    0.0432516356471796    0.03560944411083373    0.030528018374185912    0.026642630942585906    
  0.02333932348899666    0.020494221238044414    0.018198730476926092    0.016539894474493746    0.015562450909272283    
  0.015249627139650774    0.013008929094000615    0.013300084724785827    0.014196282872000896    0.01569979600498284    
  0.017792836840235665    0.020494229420217523    0.024001998956235553    0.028946463901576052    0.0368074998905386    
  0.05055846405169569    0.07499882629593199    0.11589604240660303    0.17531576545434394    0.24311229771650794    
  0.2964908916629588    0.3161773160102973    0.2964908246140065    0.2431123461829336    0.1753157679260617    
  0.1158960782838293    0.07499883720473859    0.05055845830379176    0.03680750286672915    0.028946448991919366    
  0.024001996445398063    0.020494235428065465    0.017792851520429084    0.015699794512386702    0.014196287692441802    
  0.01330008626280259    0.013008929094000615    0.011611348747258908    0.011864015371538203    0.012625346508485106    
  0.013893177152498073    0.015699807596523452    0.01819873128158271    0.021875000059472915    0.027897999103610294    
  0.03895379648014417    0.06050882804420766    0.10200075632886528    0.1753157354408776    0.28113076507180945    
  0.38419083909517143    0.4359207661758297    0.44484310991574033    0.43592074593693136    0.38419086529886814    
  0.2811307769219189    0.17531578647155072    0.1020007392091206    0.060508818606570244    0.03895381968474624    
  0.027897997175050048    0.02187500377133889    0.018198733341496423    0.015699799129714018    0.01389318595446695    
  0.01262534307971778    0.011864023959737569    0.011611348747258908    0.010720379919553363    0.010932112570504223    
  0.011566083167069823    0.01262535291013741    0.014196294538786711    0.01653989704609918    0.020388555059544133    
  0.027436545865856442    0.041681886287070535    0.07159675573391538    0.13273680855439532    0.24311235873844222    
  0.38419086574800515    0.4497697646389341    0.3920071989710107    0.3459124176496715    0.39200713243977164    
  0.44976982385824255    0.38419087676735086    0.24311239507019702    0.13273679498389543    0.07159672108282564    
  0.041681919368718755    0.027436531262984027    0.02038854214930931    0.016539897409931878    0.014196281742892416    
  0.012625349680170785    0.011566079331441903    0.010932114921276069    0.010720379919553363    0.010199916752487487    
  0.010382376936950098    0.010932100848767917    0.01186402430563611    0.01330007508997359    0.015562444408166485    
  0.01955317345986898    0.02736388172167877    0.044038531875259475    0.08065340817621394    0.15818449797505546    
  0.2964908861229864    0.4359208293334322    0.3920070890806887    0.21993272025578994    0.1497044024545403    
  0.21993268985271136    0.3920072261651162    0.43592080244340903    0.29649088299267046    0.1581844437788758    
  0.08065343388704935    0.0440385302368845    0.02736387211184694    0.019553166806416472    0.015562450643200665    
  0.01330008316413947    0.01186401294188358    0.010932091048953176    0.010382378119304713    0.010199916752487487    
  0.0100297368746374    0.010199906066456071    0.010720380549375534    0.011611337724148211    0.013008938518644833    
  0.015249621283909092    0.019293136992497014    0.027382141230693383    0.044962342111256534    0.08417950091424088    
  0.16817239110592472    0.3161773202381435    0.4448431557671011    0.34591234413518124    0.14970439741866598    
  0.08581255201238168    0.14970437592479216    0.34591243088648294    0.44484312108621854    0.31617735961651433    
  0.1681723691016775    0.08417949721446262    0.04496235225705492    0.027382138769627806    0.019293124373615227    
  0.015249623872999229    0.013008929670132367    0.011611353338367717    0.010720384578693096    0.010199903769408025    
  0.0100297368746374    0.010199904873560699    0.010382375072636625    0.010932098494838402    0.011864015939265544    
  0.01330007565325665    0.015562451071662521    0.019553164621419004    0.027363877348724235    0.04403852891109684    
  0.0806534205051561    0.1581845030246327    0.29649088493734094    0.43592064684825366    0.39200712801504145    
  0.21993264909216453    0.14970439749487172    0.2199326515812155    0.3920071978162995    0.4359207692485142    
  0.29649091537162114    0.15818447702760333    0.08065340550754899    0.04403853392463609    0.027363878433523222    
  0.019553161190659748    0.015562454361067589    0.01330008635870153    0.011864018797769656    0.010932103808566625    
  0.010382383482038394    0.010199904873560699    0.01072038023924511    0.010932103459809425    0.011566080100318767    
  0.012625345312689835    0.014196296738774063    0.01653990241565166    0.02038854484898774    0.02743654343017688    
  0.041681887361084205    0.0715967446375459    0.132736836273969    0.2431123188855187    0.38419084931621195    
  0.4497698036072909    0.39200718928816836    0.3459124484569035    0.3920072007397798    0.44976980691746427    
  0.384190906318338    0.24311238137477093    0.13273681215160577    0.07159673560538064    0.04168190977477396    
  0.027436538898425594    0.020388546587778337    0.016539902945804725    0.014196281084767897    0.012625354637716907    
  0.011566079799818491    0.010932110820513529    0.01072038023924511    0.011611349956428185    0.011864022674135995    
  0.01262535487874452    0.013893181908992755    0.015699802085666317    0.018198717883265627    0.021875006429958713    
  0.027897994666287583    0.03895381052799146    0.060508834307257515    0.10200072808725849    0.1753157708037061    
  0.2811307952019566    0.384190855481111    0.4359207728818024    0.44484317346495716    0.43592069857132115    
  0.3841909122501647    0.28113077191287567    0.17531576761873852    0.10200075148394677    0.06050880699731995    
  0.03895381642483329    0.027897995286867545    0.021875002759075588    0.018198740270259018    0.015699789372555152    
  0.01389319165863062    0.012625346975754431    0.011864031001386778    0.011611349956428185    0.013008930366899216    
  0.013300082188292739    0.014196281307908242    0.015699796253712473    0.017792838254585844    0.020494227688319506    
  0.024002007479575316    0.028946468440694047    0.03680750887462915    0.050558446088622255    0.07499884530451019    
  0.115896038973507    0.1753157726406999    0.2431123587953969    0.2964908790862822    0.3161773124866825    
  0.29649090419146223    0.24311234604704005    0.17531578387136787    0.11589606023106809    0.07499883025694155    
  0.05055846815378746    0.036807512446209126    0.028946461011412454    0.024001993360570174    0.020494228123457307    
  0.017792850189130405    0.01569979097188882    0.014196280599263368    0.01330008919973649    0.013008930366899216    
  0.015249627142599404    0.01556245363164548    0.01653989178340188    0.018198721346491604    0.020494236243264886    
  0.02333932051951816    0.026642625493237804    0.030528011184784706    0.035609432054967145    0.043251644947011975    
  0.055607075835975996    0.07499881899580749    0.1020007539250723    0.13273677958758154    0.15818448937796503    
  0.1681723684737825    0.1581844776691117    0.13273678883224402    0.10200075624512278    0.07499887040679515    
  0.05560706269698786    0.043251619852994715    0.03560944182177719    0.030528002836947368    0.02664262628861294    
  0.023339318489328707    0.02049423582639091    0.018198725625568832    0.016539897404967377    0.015562456389809501    
  0.015249627142599404    0.019293116033970825    0.019553178810089417    0.02038854274563741    0.021875003878341036    
  0.024001995964782287    0.02664262261174505    0.029514600799957436    0.032331204017736044    0.03513460007198374    
  0.038452192922132755    0.04325163820691079    0.050558445150579036    0.060508815735243915    0.07159671701473296    
  0.08065339197897821    0.08417949422821872    0.08065339594441717    0.07159671784159712    0.060508812631948315    
  0.05055846956051191    0.043251621724489854    0.03845217519995252    0.03513461712334674    0.03233119365827957    
  0.02951461707326927    0.02664261061240959    0.02400199910356287    0.02187500216313303    0.020388538139798594    
  0.019553172804702774    0.019293116033970825    0.027382141092850275    0.027363888821329393    0.02743654332946347    
  0.0278979977387616    0.02894647078313573    0.030528019016207452    0.0323311950610319    0.03383355666593215    
  0.03472639902066532    0.03513462431458272    0.0356094549935861    0.03680751375515566    0.038953844101180336    
  0.04168190218896701    0.044038545416838444    0.04496236455575623    0.04403855460856357    0.041681906705340346    
  0.03895383652637763    0.0368075235978117    0.03560943390635051    0.03513461465625309    0.03472642363521609    
  0.03383354693785609    0.03233118750727356    0.030528012687724943    0.028946467299479188    0.027898002699809372    
  0.02743653135488625    0.02736389783378611    0.027382141092850275    0.04496234176506714    0.04403855990251899    
  0.041681905227491885    0.03895382581667263    0.03680751635735729    0.0356094599730642    0.03513460503616134    
  0.034726429807250415    0.033833525195204474    0.03233121898701053    0.030528010366965456    0.02894646554597088    
  0.02789800697136875    0.027436538087797165    0.027363892717612186    0.027382141813677614    0.027363873320578984    
  0.027436550048009926    0.02789800399780987    0.028946477895869245    0.03052801156072996    0.0323311868662596    
  0.033833550504366705    0.0347264195169127    0.03513461596553426    0.03560945864966125    0.03680751239624915    
  0.038953827184820225    0.041681906216691336    0.04403855208059659    0.04496234176506714    0.084179483338726    
  0.08065340591274546    0.07159671017889704    0.060508806591762644    0.05055844962001492    0.04325162254168922    
  0.03845219482430713    0.03513460811736464    0.03233119147657477    0.029514612185151366    0.026642610682708345    
  0.024001999813216216    0.021875008936247515    0.020388545735574484    0.019553168309844483    0.01929312863007446    
  0.01955316758289656    0.02038855040364162    0.02187500428042006    0.02400201119723222    0.026642619326526007    
  0.029514620861571042    0.03233118158519727    0.03513459676906386    0.03845217184495797    0.04325162904238191    
  0.05055846073263289    0.06050878997956534    0.0715967095219397    0.08065342014966422    0.084179483338726    
  0.16817237276330219    0.15818449275892016    0.1327368026559593    0.10200073897263999    0.07499885071609007    
  0.05560707255196201    0.04325164268226148    0.03560945131872224    0.03052799644244644    0.02664261837034689    
  0.023339338775977908    0.020494222377121556    0.018198727397498    0.016539886072618724    0.015562452396289428    
  0.015249628092274613    0.015562447552658447    0.01653988980177612    0.018198718309498457    0.020494242622490565    
  0.023339319225188268    0.026642610980906915    0.030528008934713434    0.03560942649802784    0.043251644639913225    
  0.05560707854395997    0.07499883413084012    0.1020007365687759    0.13273679822696938    0.1581845249183925    
  0.16817237276330219    0.3161772909465423    0.29649087121298145    0.2431123545584985    0.17531573144794332    
  0.11589605719245602    0.07499883466820922    0.050558450738249716    0.036807514980111214    0.028946455395964268    
  0.0240020089832487    0.02049422633966458    0.017792834470497156    0.015699803309685147    0.014196276918535812    
  0.013300082645284378    0.013008934387907841    0.013300082027069596    0.014196283777603225    0.01569979198234928    
  0.017792848882426427    0.020494228376188795    0.024002004822362682    0.028946448788339255    0.03680752004210602    
  0.05055846534674387    0.07499884242606837    0.11589606645506738    0.17531573575521373    0.24311238465517754    
  0.29649089836875414    0.3161772909465423    0.44484313835452033    0.4359208109646681    0.38419080004862294    
  0.28113074676940414    0.17531575242587757    0.10200076664122762    0.06050881229304878    0.03895383683945607    
  0.027897986537577784    0.021875008804559646    0.018198724888068722    0.015699793069437362    0.013893190479707622    
  0.012625355119399608    0.011864019770355833    0.011611360917035947    0.011864022822794454    0.01262535295623208    
  0.01389318674754304    0.015699804566093066    0.0181987130954136    0.021875008710676505    0.02789799234140687    
  0.03895382077181379    0.06050881243365103    0.10200076810044686    0.17531574922076462    0.28113074210875405    
  0.38419081973144453    0.4359208116431719    0.44484313835452033    0.3459124046237738    0.39200718013641483    
  0.4497698911567138    0.38419082713761676    0.24311239740695662    0.13273680076040797    0.0715967400994663    
  0.041681918723487435    0.02743653474658878    0.020388547744858824    0.016539897596258693    0.014196287264944424    
  0.01262536430925173    0.011566078874193555    0.010932106161369927    0.010720392828650529    0.010932104924525038    
  0.01156608412662752    0.012625358070433945    0.014196295049903086    0.01653989406451072    0.020388552695122488    
  0.02743655664304752    0.04168189189650683    0.07159672636369073    0.1327368370991158    0.24311232661436039    
  0.38419083901229734    0.44976991051641363    0.39200722571031704    0.3459124046237738    0.14970435819781786    
  0.21993269216657194    0.3920071493384719    0.43592080120960447    0.2964908899119766    0.15818450098321477    
  0.08065337870671876    0.04403854238543984    0.02736388015741169    0.019553173887611863    0.015562448685049886    
  0.013300087355519822    0.01186402097491002    0.01093210604489147    0.010382382691606632    0.010199905408381444    
  0.01038236970997831    0.010932104650128293    0.011864018360011698    0.01330007410900324    0.015562446611192509    
  0.019553179013585276    0.0273638745203707    0.04403851925845929    0.08065340209043176    0.15818452750927695    
  0.29649088563496456    0.43592074329769537    0.3920071307769057    0.21993271000988615    0.14970435819781786    
  0.08581252834699876    0.1497043834681066    0.34591242649196835    0.44484310226948187    0.3161773387929775    
  0.16817234836648437    0.08417949649622106    0.04496235621621048    0.027382135003063104    0.01929312997067378    
  0.015249628633200207    0.013008927648301827    0.01161134843442987    0.010720380839052527    0.010199911657230469    
  0.010029728799178898    0.010199910882516606    0.010720376219054749    0.011611349126404949    0.01300893842492343    
  0.015249617692107777    0.01929312459582108    0.02738212914568554    0.04496233729852865    0.08417951204511313    
  0.16817238383239236    0.3161773295417913    0.44484307243189014    0.34591237813098774    0.14970441141071142    
  0.08581252834699876    0.14970438100236955    0.21993266223033578    0.39200715409498466    0.4359207079678201    
  0.2964908735357948    0.15818447477261108    0.0806534101231327    0.04403854573672291    0.027363874498075598    
  0.019553175098715556    0.015562450491783052    0.013300083924611348    0.011864015893737563    0.010932095805506878    
  0.010382374294286872    0.010199906691502416    0.010382376894956745    0.010932094896921393    0.011864009327937703    
  0.01330008374352047    0.01556244334895873    0.019553165586920166    0.027363877007374856    0.044038523015299265    
  0.08065340576478472    0.15818450179397958    0.29649088057818734    0.4359207261031029    0.39200717805936164    
  0.21993270299737774    0.14970438100236955    0.21993268135744468    0.28797006577820616    0.4249676009344513    
  0.4239336039884857    0.2807636263646661    0.15209755247025225    0.08009634485477975    0.045423841981353776    
  0.02916631823228892    0.021236152207362028    0.016958478473158983    0.014365349169137941    0.012619025189634257    
  0.011438062946441391    0.01070391954641217    0.010382374016256779    0.010448297829801643    0.010887120288304707    
  0.011683065562758471    0.012936517159699047    0.014964517962903975    0.018624756408370493    0.02585321654177088    
  0.04130562549543072    0.075113648413411    0.1463855577204692    0.2752116914222086    0.420157618129112    
  0.42333559557503864    0.28746115881829315    0.21993268135744468    0.39200715587097434    0.42496765314286944    
  0.4504017683134408    0.3687190820045266    0.23425604316990126    0.13227392358321652    0.0750015018547257    
  0.046113689233230615    0.031700249729337694    0.024037631744554623    0.01943380430688885    0.016319664013781328    
  0.014062636541864    0.012462918880730877    0.011438085025503036    0.01093210893159398    0.010887126342060429    
  0.01124673579761035    0.011976222383076513    0.013133559124665833    0.01498110010243588    0.01823087940263542    
  0.024464499937597015    0.03735315302934127    0.06466720561083118    0.12068206234043463    0.22279192068326756    
  0.359816446075205    0.44559689062348923    0.42333552558473    0.39200715587097434    0.4359207244204081    
  0.42393367382920943    0.3687190789184423    0.2713827064094665    0.17486364862046813    0.10763658247740372    
  0.06854156973640861    0.04730800037077501    0.03556835883764435    0.02834110520301911    0.023233095908396513    
  0.019304386267876096    0.01627050066706598    0.014062631263115978    0.012619034304035551    0.011864026621694515    
  0.011683060158774669    0.0119762205670803    0.012676225450244664    0.013787919618098428    0.015477461958824816    
  0.018261417012454716    0.023275973840744223    0.032998728195550324    0.05246318033050556    0.09044957535501087    
  0.1582002983166169    0.2576029864126369    0.35981645084831687    0.42015762591133077    0.4359207244204081    
  0.29649086601986147    0.28076360775567627    0.2342559761328473    0.1748636190362857    0.12256947121106251    
  0.08601124953596918    0.06344372672132267    0.04993112368165652    0.04110768496782769    0.034297686085346356    
  0.028444601698927187    0.023382567523596513    0.019304391456186364    0.016319660298843984    0.01436534740660055    
  0.013300078710790636    0.01293651166755173    0.01313355223713663    0.01378791638010831    0.014844896568772595    
  0.01636649218094989    0.01865738439394009    0.02243070206988004    0.02912362778930818    0.04150158236647612    
  0.06408171035179586    0.10230831631123644    0.15820030095346096    0.22279196285565164    0.27521170196018213    
  0.29649086601986147    0.15818448714565417    0.15209753087249137    0.1322739170029312    0.10763656999313395    
  0.08601127105966558    0.07060814351128887    0.060705537174122484    0.05390986039898863    0.047905157336690984    
  0.041510501419499586    0.03478476984446446    0.028444605227257027    0.023233099818164772    0.019433794366023837    
  0.016958489711215104    0.01556245048864433    0.01496452665363731    0.014981087248898864    0.015477460590001872    
  0.01636650519737675    0.017634893896875226    0.019391903891648778    0.021999050848285573    0.026183181777772204    
  0.03324963653348499    0.04517831988340046    0.0640816769973566    0.09044955135405074    0.12068202316173032    
  0.146385539543452    0.15818448714565417    0.08065340041881057    0.08009634114354107    0.07500150829804063    
  0.06854158627912121    0.06344370789659212    0.060705547779022886    0.059519525836117734    0.058023812668989025    
  0.054593512172405545    0.04879352505152285    0.041510476116354604    0.034297676758158015    0.028341096614898992    
  0.024037616184721385    0.021236155345411303    0.019553166862375862    0.018624755528595206    0.01823086964335482    
  0.018261421013539225    0.018657357047671016    0.019391909624355795    0.020468294740609877    0.0219855744769244    
  0.02422733125827301    0.027726228681051557    0.03324963153002128    0.04150158923350915    0.052463176586348886    
  0.06466720251911201    0.0751136462886703    0.08065340041881057    0.04403854333385528    0.045423847741398876    
  0.04611368884842731    0.047308004163097654    0.049931119043144845    0.05390987882290993    0.05802381290354311    
  0.0602901253211237    0.05918276035812767    0.05459353767852226    0.047905191201929785    0.0411076856658929    
  0.03556836840416178    0.0317002505029642    0.029166319729033517    0.027363876067660452    0.025853223815110415    
  0.024464501422336575    0.023275977449501967    0.02243071452476714    0.021999048665011577    0.02198559332761187    
  0.022333574839278298    0.02303417224116785    0.024227324599153336    0.026183199880720737    0.029123653224192386    
  0.03299874523260407    0.03735315702560685    0.04130565578047417    0.04403854333385528    0.02736386693314542    
  0.02916632926437781    0.03170025599166387    0.03556836076003452    0.041107702607454076    0.04790519169240241    