#     DFTpy    
  CRYSTAL 
    
  PRIMVEC    
  3.2171379310344825    0.0    0.0    
  0.0    3.2171379310344825    0.0    
  0.0    0.0    3.2171379310344825    
  PRIMCOORD    
  4    1    
  Si    0.0    0.0    0.0    
  Si    0.0    1.6085689655172413    1.6085689655172413    
  Si    1.6085689655172413    0.0    1.6085689655172413    
  Si    1.6085689655172413    1.6085689655172413    0.0    
  BEGIN_BLOCK_DATAGRID_3D    
  3d_datagrid_density    
  BEGIN_DATAGRID_3D#0    
  15    15    15    
  0.0    0.0    0.0    
  3.2171379310344825    0.0    0.0    
  0.0    3.2171379310344825    0.0    
  0.0    0.0    3.2171379310344825    
  0.05283051591283145    0.09781794419734077    0.2693977358094617    0.4614531682738988    0.4790985413834154    
  0.4056034068641899    0.34719799504792775    0.32752358144301047    0.3471979992191614    0.4056034234378407    
  0.479098560048572    0.46145313895040696    0.2693977647746813    0.09781789068154682    0.05283051591283145    
  0.09781792137046706    0.15311947406256718    0.32825843316906544    0.49028211566936436    0.4911497279456702    
  0.42004296227869037    0.3655954215329019    0.34719799709802757    0.3655954211989774    0.42004290339895783    
  0.4911497820305049    0.4902821932370341    0.3282584054159608    0.15311948666818934    0.09781792137046706    
  0.2693977705916543    0.3282584091299089    0.46272097440331045    0.5427196058651805    0.5183347813552518    
  0.46145338593306356    0.4200429839686681    0.4056034144361983    0.42004293845209434    0.4614533516786991    
  0.518334881367216    0.5427196017432488    0.46272089712199005    0.3282584285057696    0.2693977705916543    
  0.4614531264381352    0.49028210111262216    0.5427195546033063    0.56290832952552    0.546756751227057    
  0.5183348142894398    0.49114984902020475    0.4790984969701192    0.49114973837446113    0.5183347439924941    
  0.5467568200072478    0.5629082520279558    0.5427194605353604    0.4902822112248283    0.4614531264381352    
  0.4790985263570847    0.49114978911652046    0.5183347687374692    0.5467567732646481    0.5629082176122056    
  0.5427195222215626    0.4902822018910207    0.46145314518313757    0.4902821694729108    0.5427194896475276    
  0.5629082710284751    0.5467567400922665    0.5183348298665982    0.4911497775601417    0.4790985263570847    
  0.4056033966291068    0.42004297034626864    0.46145332840530384    0.5183348307672196    0.5427197001891861    
  0.46272090225607476    0.32825840408814333    0.26939772306246185    0.32825836519018564    0.46272092408940735    
  0.5427195479984758    0.5183348306380815    0.46145334845740954    0.42004301061903104    0.4056033966291068    
  0.34719801168743997    0.36559538986182033    0.4200430337239097    0.4911497730836    0.49028215117532054    
  0.32825842842560765    0.1531195112406374    0.09781793223260375    0.15311947836501175    0.32825842283471385    
  0.49028215875744    0.4911497848974212    0.42004297444550004    0.3655953894331846    0.34719801168743997    
  0.32752358563989065    0.34719803755760076    0.4056033827273041    0.4790986562853496    0.4614530793067804    
  0.2693977555154636    0.0978179332549395    0.05283050333682433    0.09781793422570109    0.26939773968768926    
  0.4614531177940123    0.4790985316384769    0.40560344730601333    0.34719796851052365    0.32752358563989065    
  0.34719800228924574    0.3655953612512775    0.42004299038460036    0.4911498009182676    0.49028215351919036    
  0.32825840202587503    0.1531195188305259    0.09781793739812686    0.15311952584191763    0.32825843413284184    
  0.4902822184860157    0.4911497586906331    0.4200429928753413    0.36559536825501654    0.34719800228924574    
  0.40560339510706833    0.4200430197396436    0.4614533474858159    0.518334851298605    0.5427196523473753    
  0.46272097180069865    0.32825841875543177    0.2693977590787591    0.32825837600531216    0.4627209522281457    
  0.5427196220109396    0.518334807517769    0.46145336406263404    0.42004295452090007    0.40560339510706833    
  0.47909854333385954    0.49114975677236583    0.5183347341321868    0.5467567705175019    0.5629082570882064    
  0.5427195180088376    0.49028213699474615    0.4614530442530351    0.49028210396152744    0.5427195682295273    
  0.5629082780960839    0.5467568108516638    0.5183347186815518    0.49114981654949763    0.47909854333385954    
  0.4614530916459497    0.49028214192410136    0.5427195182124752    0.5629082959316061    0.5467566796775755    
  0.5183348479990368    0.4911497476317742    0.47909856270772727    0.4911497851839697    0.5183346780385406    
  0.5467567737637876    0.562908257718556    0.5427196117813606    0.49028217328710555    0.4614530916459497    
  0.26939773777159587    0.3282584088576222    0.46272088933924266    0.5427195976433694    0.5183348597445134    
  0.46145339782887745    0.42004304428703304    0.40560346791680923    0.42004296269397723    0.46145331703305853    
  0.5183348326399436    0.5427196368745176    0.4627209619692295    0.3282584181086112    0.26939773777159587    
  0.09781794198099446    0.1531195106772073    0.3282584310542608    0.49028217442332495    0.49114983278189944    
  0.42004290806417066    0.3655954403776418    0.34719799315605465    0.3655953965584601    0.42004297764485055    
  0.49114986899880714    0.4902821782587549    0.3282584100674775    0.15311950073625494    0.09781794198099446    
  0.05283051591283145    0.09781794419734077    0.2693977358094617    0.4614531682738988    0.4790985413834154    
  0.4056034068641899    0.34719799504792775    0.32752358144301047    0.3471979992191614    0.4056034234378407    
  0.479098560048572    0.46145313895040696    0.2693977647746813    0.09781789068154682    0.05283051591283145    
  0.09781794490336106    0.15311949229618715    0.3282584147531103    0.49028223842020646    0.49114980608952136    
  0.4200429190832387    0.36559539165653065    0.3471980178213365    0.36559541602292894    0.4200429298406346    
  0.4911498048393589    0.4902821795978061    0.3282584501139248    0.15311946041703756    0.09781794490336106    
  0.1531194976371849    0.2137799077847413    0.38113727152556875    0.5124148319100955    0.5004524052496139    
  0.4327597323644657    0.3825633431608551    0.3655953891002487    0.3825633841472703    0.43275965860881455    
  0.5004524657130948    0.5124148877500728    0.3811372488730019    0.21377989640721545    0.1531194976371849    
  0.32825842645897985    0.3811372806686977    0.49334239187666074    0.5506429573155748    0.5217567778441075    
  0.4695275832155694    0.43275975510184356    0.42004295599311864    0.43275971427156856    0.46952757154861086    
  0.5217568092217754    0.5506430692025228    0.4933423156536628    0.3811372846163201    0.32825842645897985    
  0.49028215404477477    0.5124148006713132    0.550642973008914    0.5618450350822376    0.5455457416369935    
  0.5217567128283206    0.5004524664970936    0.4911497468281803    0.5004524470078409    0.5217566796391359    
  0.5455457586678316    0.5618449364867485    0.5506429567239457    0.5124148906436029    0.49028215404477477    
  0.49114979058920116    0.5004524710017972    0.5217567718115127    0.54554571871231    0.5618449726144435    
  0.5506429849602877    0.5124148816959962    0.4902821729360565    0.5124148308582821    0.5506430056893856    
  0.5618450982321549    0.5455458287502792    0.5217567438034059    0.5004524922779024    0.49114979058920116    
  0.4200429394945354    0.4327597362272979    0.4695275240059216    0.5217568012489673    0.5506430147334545    
  0.49334238252562235    0.38113725454756725    0.3282583937137709    0.38113726999093356    0.49334238427876487    
  0.5506430269697943    0.5217567764622087    0.469527577227166    0.43275973918679095    0.4200429394945354    
  0.36559538891473475    0.382563341133242    0.4327597492708392    0.500452444462478    0.5124148897072411    
  0.3811372946445718    0.21377991810247338    0.1531194924004733    0.21377986128385965    0.38113728947755804    
  0.5124149633787572    0.5004524483867888    0.432759692699019    0.38256329274771617    0.36559538891473475    
  0.34719803650908126    0.3655954029304033    0.42004297214435116    0.49114979621632765    0.4902821369308332    
  0.3282584179305268    0.1531194976459376    0.09781795941251561    0.15311947734330683    0.32825839275672825    
  0.49028214663878517    0.49114984810187123    0.42004300361832386    0.3655953425414485    0.34719803650908126    
  0.36559538802371294    0.3825632999398304    0.4327597049427862    0.500452533807733    0.5124148345807535    
  0.38113726853499363    0.21377992557660164    0.15311948433012587    0.21377991794576967    0.38113727809059145    
  0.5124149085123803    0.5004524173738066    0.43275971832325766    0.38256329622781127    0.36559538802371294    
  0.4200429589614782    0.4327597410029732    0.4695275984544816    0.5217568160327318    0.5506429819942479    
  0.49334241290564274    0.38113731637484255    0.32825839578895283    0.3811372236925445    0.49334232881445034    
  0.550643029414253    0.5217568261403286    0.46952757631930864    0.43275974131472067    0.4200429589614782    
  0.4911497394217376    0.5004525315581315    0.5217567143697968    0.5455457616715778    0.5618450338231441    
  0.550643019984229    0.5124148437367011    0.4902821051724225    0.5124148948787326    0.5506430281337027    
  0.5618449508047839    0.5455457301752685    0.521756707661181    0.5004524990713658    0.4911497394217376    
  0.49028218298180826    0.5124148912596254    0.5506429351102897    0.5618449903210225    0.545545692197903    
  0.5217568159993037    0.5004524707302013    0.49114985832984953    0.5004524736368424    0.5217567144643634    
  0.5455458132943815    0.5618450554593261    0.5506430016577479    0.5124148500472014    0.49028218298180826    
  0.32825840991373606    0.38113726421706634    0.49334231721077715    0.5506430387391958    0.521756752508822    
  0.4695276820558145    0.4327597106416047    0.42004300408332157    0.43275971705593225    0.4695275660532755    
  0.5217567111045245    0.550643034442275    0.4933423626918045    0.38113726880252385    0.32825840991373606    
  0.1531195004910473    0.21377991900072996    0.38113731315067906    0.5124149024589582    0.5004525225521872    
  0.4327596894357304    0.3825633802266312    0.3655954062448733    0.3825633263168961    0.43275971517047407    
  0.5004525233958234    0.5124148746522494    0.3811372514473347    0.21377991349254888    0.1531195004910473    
  0.09781794490336106    0.15311949229618715    0.3282584147531103    0.49028223842020646    0.49114980608952136    
  0.4200429190832387    0.36559539165653065    0.3471980178213365    0.36559541602292894    0.4200429298406346    
  0.4911498048393589    0.4902821795978061    0.3282584501139248    0.15311946041703756    0.09781794490336106    
  0.26939777465663817    0.32825841056796395    0.46272093109907547    0.5427196099007361    0.5183348048526865    
  0.46145336139783527    0.4200429955070705    0.4056034249123273    0.4200429934221522    0.46145328081752657    
  0.5183348950851884    0.5427195894810999    0.4627209834765347    0.32825837820439474    0.26939777465663817    
  0.3282584177516158    0.3811372723392873    0.4933423698616509    0.5506430145168931    0.5217566820818387    
  0.46952757401134576    0.43275975817181483    0.4200429893607863    0.43275974265634676    0.4695275497867045    
  0.5217567593381806    0.5506430042100381    0.49334236009123433    0.38113728434672645    0.3282584177516158    
  0.46272093457214913    0.4933423369494806    0.5474508803824483    0.5604922504159066    0.529777549396038    
  0.49321201516849095    0.46952758887677976    0.461453317973621    0.46952757841828213    0.4932119717522561    
  0.5297776216382415    0.5604921963889105    0.5474508756727939    0.4933423737162814    0.46272093457214913    
  0.5427195877104192    0.5506430550804224    0.5604921369020054    0.5556157789851109    0.5416511564492681    
  0.5297774955803704    0.5217567050291928    0.518334761201792    0.5217568060062595    0.5297775558159018    
  0.5416511181669716    0.5556157919527368    0.5604921176594266    0.5506429924494071    0.5427195877104192    
  0.5183348493266127    0.5217567663130482    0.5297775163054342    0.5416510992144595    0.5556157336978106    
  0.5604921725462215    0.5506430582212333    0.5427195581692789    0.5506430097465264    0.5604921608767846    
  0.5556157773653791    0.5416511557870552    0.5297775305009823    0.5217567506222792    0.5183348493266127    
  0.46145328049677986    0.46952756485933833    0.49321195664884415    0.529777523938029    0.5604922461207021    
  0.5474509845328694    0.49334238060662955    0.4627209170104442    0.49334230136623375    0.5474509015226909    
  0.5604922000885816    0.5297775472853145    0.49321198705906494    0.4695276018235214    0.46145328049677986    
  0.42004301094917484    0.43275973578524585    0.46952764311899375    0.5217567159397416    0.5506429205161325    
  0.49334238828250004    0.38113729903588883    0.3282584271395191    0.3811372655228144    0.49334240486684533    
  0.550643092371294    0.5217567435318021    0.4695275683775098    0.4327597406279385    0.42004301094917484    
  0.40560343230538193    0.42004303145667804    0.46145331074288265    0.5183349234641615    0.5427195127955756    
  0.4627208616540291    0.328258381463395    0.2693977794102444    0.32825840309519794    0.46272086760727604    
  0.5427195717305239    0.5183348531607941    0.4614533827191192    0.42004293511892293    0.40560343230538193    
  0.4200429963338634    0.43275968951703125    0.46952757565456826    0.5217568255271807    0.5506429681338381    
  0.4933423066216628    0.38113730758409725    0.3282584082325163    0.3811372808528957    0.4933423458092534    
  0.5506430002337119    0.5217567600101947    0.46952768496456654    0.4327596813150931    0.4200429963338634    
  0.4614532715687509    0.46952759349602935    0.49321200647166635    0.5297776163931628    0.5604921416277746    
  0.5474509149140537    0.49334234102898483    0.4627209373957582    0.4933423549050318    0.5474508901965989    
  0.5604921435737951    0.529777554153711    0.49321199989914805    0.4695275499702538    0.4614532715687509    
  0.5183348074213868    0.5217567610324275    0.5297775321688499    0.5416511472632742    0.5556156528044988    
  0.5604921912096068    0.5506430407840076    0.5427195793663095    0.5506429592634574    0.5604921654105375    
  0.5556157184375934    0.5416511750742584    0.529777500208666    0.5217568025823195    0.5183348074213868    
  0.5427195922699616    0.550642963875494    0.5604920729730488    0.5556157472534744    0.5416510882966834    
  0.5297775440537412    0.5217567159294865    0.518334851239808    0.5217567169789344    0.5297775379913531    
  0.541651111406053    0.5556157515880134    0.5604921858644997    0.5506429971353652    0.5427195922699616    
  0.4627209218512372    0.4933423304177281    0.5474508560128631    0.5604921567240865    0.5297775731994779    
  0.4932120764822278    0.46952757908549164    0.4614533387309378    0.4695275583602421    0.49321198021034823    
  0.5297775334762993    0.5604922115102684    0.5474508608558998    0.49334236378793195    0.4627209218512372    
  0.32825841018859625    0.3811372592842482    0.49334241432970505    0.5506429748275525    0.5217567325706762    
  0.46952764126735674    0.43275971773348976    0.42004298683794966    0.4327597036441242    0.4695275286798782    
  0.521756781856624    0.5506429145053162    0.49334239675530345    0.3811372747935966    0.32825841018859625    
  0.26939777465663817    0.32825841056796395    0.46272093109907547    0.5427196099007361    0.5183348048526865    
  0.46145336139783527    0.4200429955070705    0.4056034249123273    0.4200429934221522    0.46145328081752657    
  0.5183348950851884    0.5427195894810999    0.4627209834765347    0.32825837820439474    0.26939777465663817    
  0.46145313917254915    0.49028214535687553    0.5427194978268856    0.5629082725452668    0.5467567544566331    
  0.5183347167794689    0.49114979061574776    0.47909850923878294    0.49114981118255335    0.5183347734442261    
  0.546756780294048    0.5629083171619067    0.5427195451049016    0.49028207028194515    0.46145313917254915    
  0.4902821515642452    0.5124148591382659    0.5506430141016309    0.5618449114257456    0.54554574079513    
  0.5217567538240204    0.5004525337477972    0.4911498006863002    0.5004525189665567    0.5217566616091344    
  0.5455458111819985    0.5618450163194816    0.5506429613362931    0.512414795371727    0.4902821515642452    
  0.542719507754261    0.550643000481866    0.5604921487524427    0.5556158294006296    0.5416511904616301    
  0.5297776106087949    0.5217568110433938    0.518334722684034    0.5217566989317781    0.5297775403930018    
  0.5416511281320615    0.5556157079786072    0.5604921761887603    0.5506430018742978    0.542719507754261    
  0.562908257369803    0.5618449175927746    0.5556156322459148    0.5455111990830301    0.5397739712685462    
  0.5416510817436431    0.5455457053286928    0.5467567419850516    0.545545801292207    0.541651043910814    
  0.5397739408965915    0.5455111550569312    0.555615774463614    0.5618450098508094    0.562908257369803    
  0.5467566836691632    0.545545741826172    0.5416510734484971    0.5397739145625612    0.5455111414320241    
  0.5556157682540471    0.5618450175926105    0.5629082675842894    0.5618450190264292    0.5556157749994745    
  0.545511154324219    0.5397739465087127    0.5416510843029408    0.5455457860723854    0.5467566836691632    
  0.5183347905022313    0.5217567358707895    0.5297774773808055    0.5416511570750396    0.5556157640960866    
  0.56049220395795    0.5506430388900186    0.5427195416102589    0.5506429747104625    0.5604920998581374    
  0.5556157746825409    0.5416511873211967    0.529777504274147    0.5217568479436734    0.5183347905022313    
  0.4911498088974965    0.5004525013182145    0.5217567712447277    0.545545696134984    0.5618449617028058    
  0.5506429078874631    0.512414868333454    0.49028216672680464    0.5124148180574221    0.5506430166114754    
  0.561845065964022    0.545545706864769    0.5217567212335215    0.5004524585030925    0.4911498088974965    
  0.4790985641027854    0.49114979774060374    0.5183347987400645    0.5467568582294228    0.5629082301600943    
  0.5427195658864111    0.4902821292924573    0.4614530981274222    0.49028207193187673    0.5427195324363521    
  0.5629083020587563    0.5467567311632566    0.5183348218719329    0.4911497569265215    0.4790985641027854    
  0.4911497460900891    0.5004524592393246    0.521756736434619    0.5455456908761552    0.5618449838250474    
  0.5506429640369972    0.512414935094783    0.490282145406513    0.5124148733845304    0.5506429953068268    
  0.561845011974301    0.5455457097016977    0.5217568087725984    0.5004524188912134    0.4911497460900891    
  0.5183347317322345    0.5217567162686879    0.5297775384389204    0.5416510915239219    0.5556157037039443    
  0.5604921902508289    0.5506429746473018    0.5427195556846209    0.5506430170722225    0.5604922138863249    
  0.5556157166682425    0.5416511246813859    0.5297775364690618    0.5217567967805404    0.5183347317322345    
  0.5467567584379392    0.5455457411348315    0.5416511019339028    0.5397739330759789    0.5455111912656786    
  0.5556157465753307    0.5618449621049759    0.5629082386592504    0.561845012647186    0.5556157238143749    
  0.5455112182908138    0.5397739660889807    0.5416510492618207    0.5455457572516096    0.5467567584379392    
  0.5629082171171098    0.561844975001804    0.5556156517322264    0.5455112105362998    0.5397739289353335    
  0.541651110930361    0.5455457337294278    0.546756670163782    0.5455457387214259    0.5416511318526341    
  0.5397738959624997    0.545511154121498    0.5556156863073054    0.5618450443729804    0.5629082171171098    
  0.542719559987258    0.5506429462767192    0.5604921368288527    0.5556157237509397    0.5416510897827367    
  0.5297775626024536    0.5217567733314241    0.5183347804012675    0.521756692089826    0.5297775625045884    
  0.5416512237857748    0.5556157945465725    0.5604921711490372    0.5506429854625912    0.542719559987258    
  0.49028216393808527    0.512414876999984    0.5506430425204114    0.5618449975438944    0.5455457948907749    
  0.5217567194955778    0.500452473948492    0.4911497042081658    0.5004525081279324    0.5217567082563291    
  0.5455457933065962    0.5618449470164402    0.5506430217009223    0.512414883906641    0.49028216393808527    
  0.46145313917254915    0.49028214535687553    0.5427194978268856    0.5629082725452668    0.5467567544566331    
  0.5183347167794689    0.49114979061574776    0.47909850923878294    0.49114981118255335    0.5183347734442261    
  0.546756780294048    0.5629083171619067    0.5427195451049016    0.49028207028194515    0.46145313917254915    
  0.4790985778188546    0.4911497789129221    0.5183347396894772    0.5467567812715406    0.5629082444273404    
  0.542719511794814    0.49028218553182856    0.4614531313543727    0.4902821539402531    0.5427195148422254    
  0.5629082822410867    0.5467567834190994    0.5183347939787688    0.4911496939912697    0.4790985778188546    
  0.4911497804430314    0.5004524580965516    0.5217567502412996    0.5455457341467244    0.5618449848727796    
  0.5506430163510433    0.5124148913082724    0.4902821647185947    0.5124148904215841    0.5506429368036869    
  0.5618450421399587    0.5455457563034057    0.5217566871894106    0.5004524188222351    0.4911497804430314    
  0.5183347386275744    0.5217567244196174    0.5297775617676654    0.5416511721135797    0.5556158057954282    
  0.5604922258960175    0.5506430214225677    0.542719447657063    0.5506430097196292    0.5604921953590446    
  0.5556158036911115    0.5416510836577364    0.5297775443739081    0.5217567513555219    0.5183347386275744    
  0.5467567482109674    0.5455457665756582    0.5416510041733779    0.5397739351943022    0.5455112135050241    
  0.555615674429792    0.5618449643847224    0.5629082704419571    0.561844950959391    0.5556157166656338    
  0.5455111865011854    0.5397738649388581    0.5416511166645656    0.5455457817340829    0.5467567482109674    
  0.5629081763494961    0.5618449245452741    0.5556157238544247    0.5455111128384977    0.5397738599651888    
  0.5416511380628038    0.5455458271686286    0.5467566938568411    0.5455458048889884    0.5416511321888674    
  0.5397739032556081    0.5455111842846391    0.5556157275167017    0.5618449983433308    0.5629081763494961    
  0.5427195196910644    0.5506430189370558    0.5604921193156451    0.5556157426134263    0.5416512060162798    
  0.5297775489183277    0.521756746373281    0.518334830269997    0.5217567230267893    0.529777470580869    
  0.5416511221169171    0.555615741400599    0.5604921942878003    0.5506430973186324    0.5427195196910644    
  0.490282178810644    0.5124149162056512    0.5506430360852467    0.5618449360662441    0.5455457207022376    
  0.5217567142274694    0.500452493592849    0.4911497765593014    0.5004524731853098    0.5217567475275865    
  0.5455457963510535    0.5618449506532557    0.5506429736261961    0.5124148060379176    0.490282178810644    
  0.4614530845280832    0.4902822183692131    0.5427195457516922    0.5629083581538199    0.5467567250396266    
  0.5183348343635789    0.4911497530130188    0.47909857131520944    0.4911497209322879    0.5183347765111181    
  0.5467567561774221    0.562908262777131    0.5427195563618888    0.49028215328525593    0.4614530845280832    
  0.49028212854405157    0.512414805403236    0.5506430273417479    0.5618450084071133    0.5455457241906406    
  0.5217567390004744    0.5004525548338743    0.49114977028221357    0.5004525111950582    0.5217567101366236    
  0.5455458130270455    0.5618448742766107    0.5506430671450152    0.5124148402381584    0.49028212854405157    
  0.5427195340288025    0.5506429669118529    0.5604921495633441    0.5556157999189275    0.5416510962917668    
  0.5297775573750758    0.5217566924509301    0.5183347927255815    0.52175677608218    0.5297775685018273    
  0.5416511222404793    0.5556157472935963    0.5604921098885441    0.550643017123018    0.5427195340288025    
  0.5629082761445665    0.5618449757553655    0.555615742378899    0.5455111971555741    0.5397739707391542    
  0.5416511424943811    0.5455457922235127    0.5467567597952836    0.5455457916489939    0.541651123934512    
  0.5397739115356074    0.54551112573853    0.5556156996496239    0.5618450209433129    0.5629082761445665    
  0.5467567152978673    0.5455457301912009    0.5416510286111933    0.5397739615062869    0.5455111558101474    
  0.5556157201810592    0.5618449467328531    0.5629082104041069    0.5618449665259843    0.5556156803157555    
  0.5455111526369595    0.5397739032238102    0.5416511119453965    0.5455457578811131    0.5467567152978673    
  0.5183347552169997    0.5217567887662685    0.5297775049656078    0.5416511441572547    0.5556157474032508    
  0.5604921918960398    0.5506431018915916    0.542719548027006    0.5506429942536395    0.5604922314935251    
  0.555615780820129    0.5416511101875257    0.5297775367656283    0.5217567842805891    0.5183347552169997    
  0.49114980321278323    0.5004525306180421    0.5217567519807563    0.5455457397531799    0.5618450645949105    
  0.5506430011754128    0.5124148554865653    0.49028212424822415    0.5124148764603318    0.5506429235833148    
  0.5618450382231128    0.5455457516954576    0.5217567892819068    0.5004524615149513    0.49114980321278323    
  0.4790985778188546    0.4911497789129221    0.5183347396894772    0.5467567812715406    0.5629082444273404    
  0.542719511794814    0.49028218553182856    0.4614531313543727    0.4902821539402531    0.5427195148422254    
  0.5629082822410867    0.5467567834190994    0.5183347939787688    0.4911496939912697    0.4790985778188546    
  0.40560345150785604    0.4200429777613609    0.46145328561290483    0.5183348777662036    0.5427195510103349    
  0.46272093163030203    0.32825839982715493    0.2693977713626853    0.32825840590976224    0.462720913578913    
  0.5427195921863146    0.518334800829509    0.4614533792269694    0.4200429081871473    0.40560345150785604    
  0.4200429849896635    0.43275969199455905    0.4695275904031721    0.5217567495957515    0.5506429636659949    
  0.4933423681310319    0.3811372737282619    0.32825840867064987    0.3811373058926074    0.4933423153943669    
  0.5506430295513287    0.5217567715201431    0.4695275054810882    0.4327597409513352    0.4200429849896635    
  0.4614533267237623    0.46952757778959103    0.49321203501963995    0.5297776110204522    0.5604922346959145    
  0.5474508954085863    0.4933424002052133    0.4627209484707719    0.4933423011381866    0.547450927256663    
  0.5604922204818032    0.5297776025694957    0.49321200395135806    0.4695276034379472    0.4614533267237623    
  0.5183348178873781    0.5217567843885171    0.5297775053452443    0.5416511807444708    0.5556157613093679    
  0.5604921530754865    0.5506429168793906    0.5427195592689829    0.5506430156939905    0.5604921269523564    
  0.5556157159192636    0.5416511500229985    0.5297775106137672    0.5217567532311499    0.5183348178873781    
  0.5427195356511794    0.55064298325411    0.5604921728504958    0.5556156828119404    0.5416511085842663    
  0.5297775159386574    0.521756791363298    0.5183347894855599    0.5217567886763574    0.5297775315174981    
  0.5416511541085854    0.555615811959831    0.560492136645951    0.5506429699340974    0.5427195356511794    
  0.46272091866314796    0.49334240339177254    0.5474508861928908    0.5604922399482902    0.5297776044625938    
  0.49321207847956994    0.4695276174384458    0.46145329014161973    0.4695275815759951    0.4932119900656293    
  0.5297775437152487    0.5604921474492109    0.5474508271433143    0.49334244669490823    0.46272091866314796    
  0.32825843884466294    0.38113729558920917    0.49334237934587394    0.5506429978249634    0.5217567416984326    
  0.46952758565650365    0.4327597195133149    0.42004299267950174    0.4327596948136816    0.4695276663469349    
  0.5217568145316946    0.5506430046363515    0.4933423093221299    0.3811372649223219    0.32825843884466294    
  0.2693977612752505    0.3282584647458692    0.4627208696165325    0.5427195983579092    0.518334804478905    
  0.4614532735571857    0.4200429684124476    0.40560345857007896    0.4200429735663466    0.4614532594583778    
  0.518334843883285    0.5427196182855103    0.4627209587039708    0.32825836266220365    0.2693977612752505    
  0.3282584243094167    0.3811372476188423    0.49334236985996716    0.5506430769147732    0.5217567475655147    
  0.46952758463283195    0.4327597500433885    0.42004297263845125    0.4327596694638792    0.4695275998629568    
  0.5217567663271678    0.550643051084278    0.4933424139561365    0.3811372389623177    0.3282584243094167    
  0.46272088741231004    0.4933423475845664    0.5474508868430873    0.5604922041837332    0.5297775232532372    
  0.4932120387018252    0.4695276370047404    0.46145326173468293    0.4695275493668869    0.4932120111621208    
  0.5297775516167308    0.5604921833943374    0.547450889253845    0.493342329958942    0.46272088741231004    
  0.5427196027373005    0.550643027321432    0.5604921611901558    0.5556157127603955    0.5416510817398065    
  0.529777544527079    0.5217567214536875    0.5183347864254589    0.5217567261263975    0.5297775437515414    
  0.5416510828715035    0.5556157835162464    0.5604921105252831    0.5506430553514828    0.5427196027373005    