#     DFTpy    
  CRYSTAL 
    
  PRIMVEC    
  1.1765307627527395    -2.0378110577555097    0.0    
  1.1765307627527395    2.0378110577555097    0.0    
  0.0    0.0    3.977948045241379    
  PRIMCOORD    
  2    1    
  Si    1.1765307627527395    0.6792703525851699    0.9944870113103447    
  Si    1.1765307627527397    -0.6792703525851699    2.9834610339310337    
  BEGIN_BLOCK_DATAGRID_3D    
  3d_datagrid_density    
  BEGIN_DATAGRID_3D#0    
  11    11    17    
  0.0    0.0    0.0    
  1.1765307627527395    -2.0378110577555097    0.0    
  1.1765307627527395    2.0378110577555097    0.0    
  0.0    0.0    3.977948045241379    
  0.25772779681717806    0.27341503636061    0.3180626302309578    0.3799569352937422    0.4363126113070399    
  0.4598762181429003    0.43631263855707936    0.3799569182709751    0.318062617917349    0.2734150059914203    
  0.25772779681717806    0.2734150101728965    0.27341065771686546    0.3038174537284231    0.35777194804333295    
  0.4169942243929416    0.4568540471876643    0.4568518129490835    0.41699049617798756    0.3577765224801434    
  0.30381458721586413    0.2734150101728965    0.3180626139971808    0.30381746160740175    0.31805885980649823    
  0.35777558656456115    0.4095042355119006    0.4522945943843676    0.468912398195908    0.4522988858927071    
  0.40950231487626937    0.3577765511972762    0.3180626139971808    0.3799568685500095    0.3577719606272001    
  0.35777558502030893    0.37996780555700277    0.41698798641794704    0.45228879091240043    0.4722925045702355    
  0.47228876442993933    0.4522988559417106    0.4169904613728918    0.3799568685500095    0.4363126213420016    
  0.4169942363986289    0.4095042357805689    0.41698798132082515    0.43630256745959906    0.456855948420841    
  0.4689204081195117    0.4722924587908137    0.46891236253695223    0.45685184693413994    0.4363126213420016    
  0.45987623580922854    0.45685409528173476    0.45229459916121056    0.45228884784258344    0.456855906212021    
  0.4598809680397906    0.4568559843511129    0.45228882217935173    0.45229461043109914    0.45685408703193964    
  0.45987623580922854    0.43631260952282924    0.45685187974863994    0.46891235712458623    0.47229251699425157    
  0.4689203746819318    0.456855923142051    0.43630259965920803    0.4169879858998251    0.4095042263361055    
  0.416994210661763    0.43631260952282924    0.3799569187920073    0.4169904898639454    0.452298857758672    
  0.4722887607010796    0.47229247637147276    0.4522888152082863    0.4169879707744442    0.37996779656574137    
  0.35777557275532684    0.35777193270542645    0.3799569187920073    0.3180626152132506    0.3577765721121426    
  0.4095022827841888    0.4522989061921564    0.4689123479470155    0.4522945861044882    0.4095042668088609    
  0.3577755864928198    0.3180588614460202    0.30381743926499893    0.3180626152132506    0.27341500489237025    
  0.3038145976691476    0.35777653498851814    0.41699046688987396    0.45685186845020537    0.4568540738097596    
  0.41699421586937957    0.3577719648533646    0.3038174450160902    0.2734106739200011    0.27341500489237025    
  0.25772779681717806    0.27341503636061    0.3180626302309578    0.3799569352937422    0.4363126113070399    
  0.4598762181429003    0.43631263855707936    0.3799569182709751    0.318062617917349    0.2734150059914203    
  0.25772779681717806    0.2814180220418316    0.2972388176886843    0.34193195513365066    0.4021153743291662    
  0.45346656726090756    0.47355079933378386    0.4534559588630117    0.4021256229545818    0.34193889987079    
  0.2972369377539885    0.2814180220418316    0.2972369275572384    0.2972411278095707    0.32308733410003176    
  0.3684777167870475    0.41647072926654294    0.4476783592445192    0.4476780102784743    0.4164770118992146    
  0.3684721230430639    0.32308580171914747    0.2972369275572384    0.34193891113695707    0.3321013462273367    
  0.3419239563045645    0.3684786546467702    0.40082952598307164    0.42710367402946553    0.43784540564464924    
  0.4271043766637899    0.40082017554333016    0.368472146355501    0.34193891113695707    0.40212557636845986    
  0.39105426819159433    0.39106858607687495    0.40212950532865754    0.41646257605562187    0.42709245587952244    
  0.43375707856460505    0.43375150968697856    0.4271043439681452    0.41647702684262555    0.40212557636845986    
  0.453455910528755    0.4494959467492156    0.44555655150225926    0.44950087438252445    0.453456778032106    
  0.44768774965051605    0.4378511190750951    0.433757092047839    0.4378453906871692    0.44767801100755467    
  0.453455910528755    0.47355080762879315    0.48275516157821624    0.47630984673301036    0.47630407239394784    
  0.48274308799317184    0.4735586991332286    0.44768777210024113    0.4270924759030705    0.42710367850826414    
  0.44767837255011644    0.47355080762879315    0.4534666223039915    0.4827561843761926    0.4829213389867626    
  0.4754454438695928    0.48293233997793883    0.48274303921216066    0.45345680978200176    0.4164625645279369    
  0.4008294984854861    0.41647073033537074    0.4534666223039915    0.4021153537450906    0.4494966236475501    
  0.47630494355117026    0.4754457227257506    0.4754454213760113    0.47630402063533206    0.44950084620164915    
  0.40212947794437415    0.3684786879269561    0.3684777286977332    0.4021153537450906    0.3419319458214954    
  0.39106641983392665    0.44556875415035957    0.47630496222089447    0.48292136303205546    0.47630979483197955    
  0.44555659080066257    0.39106856157556985    0.3419239386595128    0.32308735358992324    0.3419319458214954    
  0.2972387787952746    0.3320998856892235    0.39106639229305845    0.4494965775613948    0.48275616763952095    
  0.4827551336967436    0.44949593830952944    0.39105428656964686    0.3321013113335852    0.29724113755700443    
  0.2972387787952746    0.2814180220418316    0.2972388176886843    0.34193195513365066    0.4021153743291662    
  0.45346656726090756    0.47355079933378386    0.4534559588630117    0.4021256229545818    0.34193889987079    
  0.2972369377539885    0.2814180220418316    0.3448896244082606    0.3608990028892788    0.4033603377124258    
  0.45157555540054484    0.4798648117153943    0.48643446909902666    0.47980670967567657    0.4515960026303208    
  0.4034035670102945    0.3608892237727316    0.3448896244082606    0.360889217480236    0.3608831572476212    
  0.38165316299033347    0.41676137254479056    0.4498436228482563    0.4680458062311963    0.4680528067285709    
  0.4498960146981812    0.4167493363940109    0.38161086246654674    0.360889217480236    0.40340357391201126    
  0.3978880703232952    0.40335056039343925    0.4167482449140094    0.4296235872449521    0.4376935333767733    
  0.44085894330720077    0.4376970496627044    0.4295684735093605    0.4167493756240604    0.40340357391201126    
  0.45159594301396205    0.4449802856484498    0.4450403380487159    0.4515953379818558    0.44984127606082525    
  0.4376913166015117    0.4282251551083534    0.4282075434478638    0.4376970137005978    0.4498959900301087    
  0.45159594301396205    0.4798066628371251    0.46175880583562723    0.4468425149078923    0.46177529576813764    
  0.4798600816055434    0.46805027670484106    0.4408562351822    0.42822515274413686    0.4408589370665538    
  0.4680528507667641    0.4798066628371251    0.486434466327196    0.4490163608271231    0.3935125383085258    
  0.3934984091203806    0.44893854638585884    0.48648086463758916    0.4680502715692145    0.43769136284938165    
  0.43769355736713467    0.4680458614010053    0.486434466327196    0.4798648063823438    0.4489889522431245    
  0.35981052855782286    0.31326002966786387    0.3598755946221564    0.4489385219997483    0.479860095899758    
  0.44984127470290236    0.42962359644286846    0.44984357192162044    0.4798648063823438    0.4515755609889217    
  0.4617621938586248    0.3935079072754399    0.31328834784112786    0.3132599992534738    0.3934983739505375    
  0.46177534350746086    0.45159535926326533    0.41674821128522793    0.4167613380523824    0.4515755609889217    
  0.40336031250103166    0.4450439871791448    0.4468400535417339    0.39350792656869976    0.35981051294659355    
  0.39351251409799803    0.4468425570130327    0.4450403278246953    0.40335055612899684    0.3816531847328172    
  0.40336031250103166    0.36089897176924757    0.3978567244501326    0.44504394947100173    0.46176217460585695    
  0.44898893145782426    0.4490163259596843    0.4617588343360849    0.4449802677982305    0.3978880724627757    
  0.3608831855792182    0.36089897176924757    0.3448896244082606    0.3608990028892788    0.4033603377124258    
  0.45157555540054484    0.4798648117153943    0.48643446909902666    0.47980670967567657    0.4515960026303208    
  0.4034035670102945    0.3608892237727316    0.3448896244082606    0.41695412947290433    0.4331602513574709    
  0.46955226817889634    0.49229870921376645    0.4811736963027093    0.4678497387178715    0.48103020158984483    
  0.49232309460867796    0.4696729029494457    0.4331319306491366    0.41695412947290433    0.4331319186200106    
  0.4331245423965323    0.44994102715378126    0.4737069768175802    0.4887420349876395    0.49192235222436403    
  0.4919432705920298    0.4888755977550188    0.4736803598108915    0.4498342842751242    0.4331319186200106    
  0.46967294383382385    0.4666094417187143    0.46953793504423114    0.47367461116222254    0.4712202280833756    
  0.46442289812562165    0.46128137043452144    0.46443892285750343    0.47109411340760854    0.4736803454241209    
  0.46967294383382385    0.49232305810950916    0.47926435594759625    0.4794060638914634    0.49232920917433864    
  0.4887453570046199    0.4644458530101653    0.44362878849801357    0.4435676508319463    0.464438881961299    
  0.48887560436341543    0.49232305810950916    0.4810301716191142    0.42006353313501066    0.3841646458677024    
  0.4200886972756507    0.48115194116743043    0.49193888057044477    0.4612338178056361    0.44362878066577727    
  0.46128137111613543    0.49194325576270875    0.4810301716191142    0.46784975047971156    0.3463068983538874    
  0.23910637268643767    0.23906523219048162    0.3461709840169463    0.46793822686442765    0.49193891291814174    
  0.4644458716893909    0.4644229025986093    0.4919224136660208    0.46784975047971156    0.4811737269685029    
  0.34624224398131204    0.18033632066554395    0.12222207910652774    0.18044362711771092    0.3461709931105038    
  0.4811519637156554    0.4887453344317952    0.4712202314794814    0.4887420336011325    0.4811737269685029    
  0.4922987032160275    0.42004576391948584    0.23910970518639132    0.12226053503630542    0.12222206625914085    
  0.2390651970081247    0.4200887099484271    0.4923292033639575    0.47367458364553783    0.47370699418860795    
  0.4922987032160275    0.4695522319700921    0.4794225183539298    0.3841287761332335    0.2391097236750018    
  0.18033634561097228    0.2391063353500854    0.38416463928404954    0.47940606528110885    0.4695379513712429    
  0.4499410468825141    0.4695522319700921    0.4331602648448513    0.4665310464648846    0.47942249850002405    
  0.42004573080384944    0.346242218169521    0.34630690001042835    0.42006352533849145    0.47926433943862373    
  0.46660939959515896    0.4331245195782111    0.4331602648448513    0.41695412947290433    0.4331602513574709    
  0.46955226817889634    0.49229870921376645    0.4811736963027093    0.4678497387178715    0.48103020158984483    
  0.49232309460867796    0.4696729029494457    0.4331319306491366    0.41695412947290433    0.4491281643349128    
  0.46550039130308174    0.49810929721202846    0.505782319922514    0.47381223786284044    0.45102393767686716    
  0.47365693074551046    0.5058021901715575    0.49825762966903875    0.46546508091906624    0.4491281643349128    
  0.46546511373821736    0.4654532235340506    0.48120862159468003    0.49962210790580047    0.5053613745281437    
  0.501076419052795    0.5011045348807996    0.5055103636943783    0.4995966570691042    0.48107509473150567    
  0.46546511373821736    0.4982576334860858    0.4953773709316508    0.4980932769726911    0.4995893516471495    
  0.4910189977908967    0.47793388522316765    0.47214549519900895    0.4779553677476616    0.49087613378766165    
  0.499596694363377    0.4982576334860858    0.5058021346901244    0.4865475754481713    0.48671686992257024    
  0.5058098130438667    0.5053648306524386    0.47796119986542274    0.45310599593331635    0.4530209124194956    
  0.47795535693463115    0.5055103147812529    0.5058021346901244    0.47365689352374585    0.38938134426887916    
  0.3440942053691441    0.38940946725120684    0.47378788261200844    0.5011087624853318    0.4720751525266398    
  0.4531059778795879    0.4721454567348529    0.5011045363342679    0.47365689352374585    0.4510239595485733    
  0.29282738442447875    0.17451333337290828    0.17446690527885036    0.29270383089788055    0.4511083656671044    
  0.501108775818403    0.47796123751441477    0.4779338991845236    0.5010764541982731    0.4510239595485733    
  0.47381221824758646    0.2927695364608181    0.1164309161299133    0.06622385739909731    0.11651915012905778    
  0.2927038283979663    0.47378790077932265    0.5053648644995182    0.49101900141041266    0.505361358160839    
  0.47381221824758646    0.505782253205707    0.3893551142128686    0.1745211410127459    0.06624594912843013    
  0.06622385010718017    0.17446689105488777    0.3894094758505732    0.5058097925496595    0.4995893257052769    
  0.49962213848094866    0.505782253205707    0.49810925578713805    0.4867383784342197    0.3440468834037291    
  0.17452115802504795    0.11643092482510903    0.17451331172774423    0.34409421596828743    0.48671686424231214    
  0.4980932923939461    0.4812086509860839    0.49810925578713805    0.4655003267523758    0.4952768161057632    
  0.4867383293628632    0.389355077867075    0.2927695359061873    0.2928273531731898    0.389381339795828    
  0.48654759055992863    0.4953773531075003    0.46545323868789323    0.4655003267523758    0.4491281643349128    
  0.46550039130308174    0.49810929721202846    0.505782319922514    0.47381223786284044    0.45102393767686716    
  0.47365693074551046    0.5058021901715575    0.49825762966903875    0.46546508091906624    0.4491281643349128    
  0.41695413969804    0.43316027415975633    0.46955225399704387    0.4922987127300444    0.48117368330965865    
  0.4678497548103642    0.4810301996833542    0.492323097436499    0.46967288314294114    0.4331319276601002    
  0.41695413969804    0.43313191382055616    0.43312451747852815    0.4499410457862587    0.47370696519365907    
  0.48874206201535636    0.49192235426127906    0.49194325421623813    0.48887561760940995    0.4736803268669497    
  0.4498343126018231    0.43313191382055616    0.46967292530200216    0.46660943712487807    0.4695379695159693    
  0.4736745913911065    0.47122025258183275    0.46442289803314846    0.46128136375601353    0.4644389224472878    
  0.47109411519688216    0.4736803617983956    0.46967292530200216    0.4923230461398448    0.4792643050753734    
  0.479406074008797    0.4923292161264813    0.488745355139766    0.46444583678513945    0.44362877685414254    
  0.4435676599710748    0.4644388914596281    0.488875640423186    0.4923230461398448    0.48103016868066634    
  0.4200635448413045    0.3841646194574089    0.42008870630892997    0.4811519331941203    0.4919388941703599    
  0.46123380754084115    0.4436287773634854    0.4612813595821267    0.49194325870694894    0.48103016868066634    
  0.46784978221649826    0.34630687682222294    0.23910637785014968    0.23906523135706623    0.3461709870969166    
  0.467938224580436    0.4919389277987992    0.4644458760683743    0.4644228933748526    0.4919224066776191    
  0.46784978221649826    0.4811737185599758    0.34624223467398246    0.1803363219188511    0.12222208033356544    
  0.18044361646457754    0.3461709833712304    0.48115195828662455    0.4887453169419401    0.47122022136173436    
  0.48874202889594703    0.4811737185599758    0.49229870210533483    0.42004576001866667    0.2391097063931383    
  0.12226052542915557    0.12222207251656983    0.2390652014158166    0.42008868617450446    0.49232920418199777    
  0.4736746233301946    0.4737069875632295    0.49229870210533483    0.46955223706615645    0.47942253400225293    
  0.38412879979120546    0.23910973193488985    0.18033634805727325    0.23910633721613017    0.38416465852999476    
  0.47940604913185664    0.4695379261448139    0.44994104878808044    0.46955223706615645    0.4331602382423724    
  0.46653102331878904    0.4794225177185466    0.4200457366406201    0.3462422078637128    0.34630688610776744    
  0.4200635411302201    0.4792643241664361    0.4666094179522384    0.4331245292424434    0.4331602382423724    
  0.41695413969804    0.43316027415975633    0.46955225399704387    0.4922987127300444    0.48117368330965865    
  0.4678497548103642    0.4810301996833542    0.492323097436499    0.46967288314294114    0.4331319276601002    
  0.41695413969804    0.3448896213027266    0.360899016037271    0.40336033929266085    0.45157554296150887    
  0.47986479795560244    0.4864344564914509    0.4798066904427924    0.4515960014171012    0.4034035669334127    
  0.360889224334078    0.3448896213027266    0.36088920595847107    0.36088317059231656    0.3816531649640256    
  0.41676137440413463    0.4498435941781809    0.4680458221901369    0.4680528146987763    0.44989600422072534    
  0.41674932105750395    0.38161085038631587    0.36088920595847107    0.4034035804103412    0.3978880809432582    
  0.403350561439429    0.4167482133023612    0.42962360835344177    0.43769354848636177    0.44085896733901525    
  0.43769704845909785    0.42956846271583304    0.41674938107307263    0.4034035804103412    0.4515959593256519    
  0.44498028579355964    0.4450403426701175    0.45159538202985877    0.44984125163486033    0.4376913117595923    
  0.42822517711076896    0.4282075581361536    0.43769700056095684    0.44989597847123475    0.4515959593256519    
  0.4798066460806203    0.4617588007393463    0.44684254170659793    0.4617753043262993    0.4798600773609654    
  0.4680502673476363    0.4408562604469119    0.42822516788401743    0.4408589445111864    0.4680528381053998    
  0.4798066460806203    0.48643444928083307    0.4490163770364882    0.3935125267333671    0.39349841803642743    
  0.44893852804983897    0.48648088787849614    0.4680502666583942    0.4376913661242948    0.4376935557177969    
  0.46804587740792175    0.48643444928083307    0.47986481587199553    0.4489889440039056    0.3598105137834061    
  0.31326002454575397    0.3598755977635967    0.44893854564973995    0.47986010621742897    0.4498412610902521    
  0.4296235812227872    0.44984360211943414    0.47986481587199553    0.451575520683415    0.461762165063143    
  0.3935079002846431    0.3132883565252671    0.3132600026118627    0.39349837599405685    0.46177530784834697    
  0.45159536830093455    0.4167482210253139    0.41676136582395    0.451575520683415    0.40336031041482956    
  0.44504399915679044    0.44684006254311986    0.39350791907589283    0.35981052319725854    0.39351249259011295    
  0.44684256912805215    0.44504033951537025    0.40335054726171354    0.3816531866105223    0.40336031041482956    
  0.36089896563322804    0.3978567331571367    0.44504393389298547    0.46176218436707045    0.44898893136570944    
  0.44901632754068244    0.46175879970656936    0.44498025194127755    0.3978880607382359    0.36088318068456166    
  0.36089896563322804    0.3448896213027266    0.360899016037271    0.40336033929266085    0.45157554296150887    
  0.47986479795560244    0.4864344564914509    0.4798066904427924    0.4515960014171012    0.4034035669334127    
  0.360889224334078    0.3448896213027266    0.2814180119406029    0.29723882194892565    0.3419319685439899    
  0.4021153867992111    0.45346657980809346    0.47355083195794123    0.45345592925835015    0.4021256315243635    
  0.3419388836786419    0.2972369354217512    0.2814180119406029    0.2972369369815608    0.2972411397923791    
  0.3230873339863655    0.3684777246285682    0.4164707404056219    0.44767832768156757    0.4476780454073708    
  0.41647702046499274    0.36847213821300734    0.32308580094116346    0.2972369369815608    0.3419389111536151    
  0.3321013360717483    0.34192393880316424    0.3684786893765231    0.4008295046995168    0.4271036791945067    
  0.43784538091836517    0.4271043569453402    0.4008201787829546    0.3684721571943917    0.3419389111536151    
  0.40212558921985503    0.3910543013676737    0.39106857370039383    0.40212951001881136    0.4164625805928007    
  0.42709247106955    0.4337570799781047    0.4337515185924844    0.427104320977617    0.41647700098063717    
  0.40212558921985503    0.4534559252867242    0.44949592337728017    0.44555653693734876    0.4495008538694722    
  0.453456766060938    0.4476877539886278    0.4378510885516769    0.4337570875767865    0.4378453672063947    
  0.44767802444011473    0.4534559252867242    0.47355080905799124    0.48275514042997775    0.4763098372430887    
  0.47630409412304164    0.482743044685546    0.4735587092847088    0.44768776151409745    0.42709246127465095    
  0.42710366483426665    0.44767837549613165    0.47355080905799124    0.4534666116861539    0.48275620863560637    
  0.48292132133093135    0.4754454544057327    0.4829323295612484    0.48274307835621294    0.45345678992300126    
  0.4164625841994463    0.4008294936580949    0.4164707254505796    0.4534666116861539    0.4021153712086242    
  0.449496594381029    0.47630492901272836    0.47544573982220706    0.47544541143703994    0.47630400541496337    
  0.4495008777210595    0.40212948330695303    0.36847866094763976    0.3684777413209724    0.4021153712086242    
  0.341931941935688    0.39106642729847135    0.44556873429455873    0.47630496042316894    0.48292135735296426    
  0.47630980473002554    0.44555657234189966    0.3910685759301189    0.3419239431255577    0.3230873532767214    
  0.341931941935688    0.297238789873416    0.33209989740838575    0.39106640161093514    0.4494965802880765    
  0.4827561687421358    0.48275515129656427    0.44949593954863054    0.39105428787456276    0.33210132343646714    
  0.29724113688716197    0.297238789873416    0.2814180119406029    0.29723882194892565    0.3419319685439899    
  0.4021153867992111    0.45346657980809346    0.47355083195794123    0.45345592925835015    0.4021256315243635    
  0.3419388836786419    0.2972369354217512    0.2814180119406029    0.2577277979059845    0.2734150366150539    
  0.31806263267022644    0.3799569321319448    0.43631260912776765    0.45987621304845644    0.4363126438823757    
  0.379956917082611    0.31806261844521255    0.27341500880828784    0.2577277979059845    0.2734150076721258    
  0.2734106613445101    0.30381745143108985    0.35777195185829774    0.41699422226986455    0.45685405409619856    
  0.4568518019333387    0.4169904997762462    0.3577765182157578    0.3038145966236617    0.2734150076721258    
  0.3180626155978626    0.30381746210971333    0.31805886471371064    0.3577755881551234    0.40950423959290233    
  0.45229460034960245    0.46891239934483975    0.4522988837278672    0.4095023193276948    0.35777655078662524    
  0.3180626155978626    0.37995686153334274    0.35777196325193683    0.357775580704408    0.3799678072662697    
  0.41698798177868873    0.4522887947330665    0.4722925048209096    0.4722887635342087    0.4522988483104472    
  0.4169904613356134    0.37995686153334274    0.43631261714125286    0.41699423506965244    0.4095042399773835    
  0.4169879846152931    0.4363025690917729    0.4568559492328032    0.4689204121219818    0.4722924657992411    
  0.468912358665663    0.4568518469560026    0.43631261714125286    0.4598762374380851    0.4568540950631229    
  0.45229460499657825    0.4522888624464805    0.45685590172630086    0.4598809720078475    0.45685597805758266    
  0.4522888274461836    0.4522946038793431    0.4568540850788004    0.4598762374380851    0.4363126080200496    
  0.45685187373883007    0.4689123541197462    0.4722925098796516    0.4689203810680745    0.45685592011211207    
  0.4363026016857852    0.41698798684492894    0.4095042301538733    0.4169942072317705    0.4363126080200496    
  0.3799569184323757    0.4169904964165311    0.4522988530590977    0.472288777545229    0.47229247323605966    
  0.4522888110412761    0.4169879693513202    0.3799678013688998    0.35777556695135776    0.3577719346256175    
  0.3799569184323757    0.3180626174482928    0.3577765658156145    0.4095022827748835    0.4522989068595934    
  0.4689123476611191    0.4522945815397921    0.4095042676811495    0.35777558653907204    0.31805886322889454    
  0.3038174384405091    0.3180626174482928    0.2734150032934292    0.3038145990174678    0.35777653040565216    
  0.4169904674620022    0.45685186101465314    0.45685407261609523    0.41699421917835017    0.3577719706472752    
  0.3038174448596875    0.27341067894371524    0.2734150032934292    0.2577277979059845    0.2734150366150539    
  0.31806263267022644    0.3799569321319448    0.43631260912776765    0.45987621304845644    0.4363126438823757    
  0.379956917082611    0.31806261844521255    0.27341500880828784    0.2577277979059845    0.28141801782130066    
  0.2972369595747802    0.3419388988153986    0.40212563287510816    0.4534558947910345    0.47355081171062    
  0.4534666296471191    0.40211536113550844    0.3419319451895494    0.2972388009381841    0.28141801782130066    
  0.297238792664763    0.2972411271143324    0.33210132479698756    0.39105425246777736    0.4494959109123507    
  0.4827551366583789    0.4827561751172497    0.4494966033496156    0.3910664014211013    0.3320998886324188    
  0.297238792664763    0.34193196640731494    0.32308735939887284    0.3419239548235053    0.3910685520177344    
  0.4455565748968022    0.4763098213718529    0.4829213767285822    0.4763049652577094    0.44556875473813656    
  0.39106642648915474    0.34193196640731494    0.4021153229543329    0.36847773156547875    0.3684786903469456    
  0.4021295039060793    0.44950087065097843    0.4763040382029803    0.4754454351278643    0.4754457133669648    
  0.4763049404034378    0.4494966182713926    0.4021153229543329    0.45346658472912826    0.41647076832638086    
  0.400829494646225    0.4164625727803986    0.4534567757226426    0.4827430562611073    0.4829323367814575    
  0.47544544765955077    0.4829213523493514    0.48275617194736126    0.45346658472912826    0.4735508058088444    
  0.44767836934555033    0.42710368895327755    0.42709248949947787    0.44768777140754745    0.47355869939046674    
  0.48274306845556575    0.4763040754353275    0.4763098208060909    0.4827551586869905    0.4735508058088444    
  0.45345595949396844    0.44767802309150734    0.4378453618307877    0.433757104968197    0.4378511113684973    
  0.4476877379344879    0.45345680234609015    0.449500860416094    0.44555654208127354    0.4494959056154237    
  0.45345595949396844    0.4021256110220885    0.4164770265659959    0.42710434722332424    0.43375151907576726    
  0.4337570633850202    0.4270924442032934    0.4164625515131878    0.4021294772484173    0.3910685844711521    
  0.3910542687479257    0.4021256110220885    0.3419388883881823    0.36847213784337635    0.40082017804881    
  0.4271043638540223    0.4378453930913156    0.4271036650130276    0.40082953200349064    0.3684786620224796    
  0.3419239372183849    0.33210134484781434    0.3419388883881823    0.29723691541506114    0.32308579934441367    
  0.3684721162810905    0.41647699192632354    0.44767800682917813    0.44767834820945107    0.4164707589053501    
  0.368477745703033    0.3230873252640515    0.29724113868427976    0.29723691541506114    0.28141801782130066    
  0.2972369595747802    0.3419388988153986    0.40212563287510816    0.4534558947910345    0.47355081171062    
  0.4534666296471191    0.40211536113550844    0.3419319451895494    0.2972388009381841    0.28141801782130066    
  0.34488961971399235    0.360889249110204    0.4034035785408481    0.45159600850078163    0.47980667994945836    
  0.48643446955525893    0.4798648370468961    0.45157555066609756    0.40336031913940684    0.3608989869604454    
  0.34488961971399235    0.36089897770366336    0.3608831518567794    0.3978880556379345    0.44498029224727853    
  0.4617588286302593    0.4490163033695275    0.4489888920686566    0.461762206931072    0.44504393385610674    
  0.3978567165349346    0.36089897770366336    0.403360325038829    0.3816531821532874    0.4033505607141444    
  0.44504034167598544    0.4468425163477536    0.3935125185941548    0.35981051815646253    0.39350793727441263    
  0.4468400845394967    0.4450439774142159    0.403360325038829    0.4515754935900138    0.4167613625791089    
  0.4167482357722829    0.45159535066859396    0.4617753346380252    0.39349836147524064    0.31326002986926177    
  0.31328833821752466    0.393507898939613    0.4617621629611176    0.4515754935900138    0.4798647985720165    
  0.449843605462502    0.4296235898601037    0.44984124240556744    0.4798600668627935    0.4489385633919883    
  0.35987557705526757    0.31326003225329957    0.3598105092032674    0.4489889343042561    0.4798647985720165    
  0.486434469266042    0.4680458657792219    0.43769355617906325    0.4376913702175627    0.46805025534922895    
  0.48648087850539523    0.4489385511538563    0.3934984002795698    0.3935125334646382    0.4490163492960308    