#     DFTpy    
  CRYSTAL 
    
  PRIMVEC    
  4.070275862068965    0.0    0.0    
  0.0    4.070275862068965    0.0    
  0.0    0.0    4.070275862068965    
  PRIMCOORD    
  2    1    
  Si    0.0    0.0    0.0    
  Si    2.0351379310344826    2.0351379310344826    2.0351379310344826    
  BEGIN_BLOCK_DATAGRID_3D    
  3d_datagrid_density    
  BEGIN_DATAGRID_3D#0    
  19    19    19    
  0.0    0.0    0.0    
  4.070275862068965    0.0    0.0    
  0.0    4.070275862068965    0.0    
  0.0    0.0    4.070275862068965    
  0.0670752840550235    0.11376359361497297    0.2678480714859708    0.3881549495098467    0.3231108735367088    
  0.2004055837235113    0.11619611054986567    0.07189420512704366    0.051902518397458415    0.04629061468265142    
  0.05190251930440266    0.07189420009345196    0.11619612015380139    0.20040561309177596    0.32311088982977976    
  0.38815498342218935    0.26784809070957766    0.11376357608769887    0.0670752840550235    0.11376357683046745    
  0.1661972446467632    0.3092026299660156    0.3887250933309852    0.30761166124499234    0.18982331224371005    
  0.11118690132661647    0.06975681502847147    0.050934101969850834    0.04563527640064901    0.05093408868198535    
  0.06975680998214243    0.1111869063926546    0.1898233144667533    0.30761163447815765    0.38872516395435147    
  0.3092026314702091    0.16619724210977707    0.11376357683046745    0.2678480586685087    0.3092026365651227    
  0.37999829941951574    0.36451847370603413    0.26254095092276175    0.16206859962228876    0.09820984480840164    
  0.06419775054829906    0.04843812120615627    0.04395229728977709    0.04843813000652752    0.06419776027319943    
  0.09820984784660954    0.16206858760445297    0.2625409281541533    0.36451848678848886    0.3799983144600375    
  0.30920261599506976    0.2678480586685087    0.3881549437890786    0.3887251918765504    0.36451846765416956    
  0.2914311664247123    0.19985146401075135    0.12716873274117257    0.08193765642218458    0.05724108314366084    
  0.04548013573320361    0.04207469743822483    0.045480131738012464    0.05724107134614286    0.08193766745485319    
  0.12716873208877147    0.19985145251640105    0.2914311315258092    0.36451851102856225    0.3887251829862774    
  0.3881549437890786    0.3231108845996713    0.3076116584139957    0.2625409875489475    0.1998514428062945    
  0.1398979320308454    0.09523018255713749    0.06694677631469825    0.05100781211112948    0.043210616911302194    
  0.04090289378772148    0.043210610171056395    0.051007799670607035    0.06694677155644929    0.09523017359322228    
  0.13989792934317719    0.19985145370906277    0.2625409593944564    0.30761162767869416    0.3231108845996713    
  0.2004055788973529    0.18982334316630584    0.16206860749718585    0.1271687203574035    0.0952301964581064    
  0.0712779645816413    0.05567753448899046    0.04671189452366629    0.04225503550151935    0.04090326291531532    
  0.042255058470467746    0.04671188967424823    0.05567754293598952    0.07127797037571122    0.0952301693382006    
  0.12716875137454864    0.16206859005811702    0.1898233119836507    0.2004055788973529    0.11619609889431574    
  0.11118691449357739    0.09820984559270977    0.08193765634223053    0.06694675427137688    0.05567754043204939    
  0.04843262203515089    0.04445781512098549    0.042613623720093835    0.04207432663450571    0.04261363146015636    
  0.044457815989150364    0.048432632430191885    0.055677546205162826    0.06694676060306433    0.08193766359368077    
  0.09820985884036722    0.1111869131362215    0.11619609889431574    0.07189417757653109    0.06975682996949768    
  0.06419775727306863    0.057241077376638146    0.05100781317995971    0.04671188398160681    0.044457807984567076    
  0.043757285088590475    0.043834246897315514    0.04395266924751184    0.04383425368360496    0.04375728070034673    
  0.044457830510743715    0.04671188706002218    0.05100780549931262    0.05724108463257307    0.06419777640756343    
  0.06975680243378801    0.07189417757653109    0.05190251523547248    0.0509340978984222    0.0484381214555227    
  0.045480128679695093    0.04321062239844647    0.042255041472442016    0.042613631044170965    0.043834250612665125    
  0.045106886724661635    0.0456348882061564    0.04510690822342983    0.04383423893744412    0.04261362522488473    
  0.042255045311428215    0.04321061363297391    0.045480123630065    0.048438133076321534    0.050934093883064725    
  0.05190251523547248    0.046290619652821    0.04563528314486359    0.04395230568835728    0.042074701168951505    
  0.040902894470915406    0.040903271953719435    0.04207432255579955    0.043952677047881854    0.045634885851250986    
  0.04629099556875984    0.045634898845850105    0.04395267633642187    0.04207434901632181    0.040903266507177176    
  0.04090290338480962    0.04207469177125609    0.043952309832582505    0.04563528032202553    0.046290619652821    
  0.05190252091312594    0.05093410416534087    0.04843813264989056    0.04548012221443676    0.043210625642354415    
  0.04225505599636559    0.042613609497584026    0.043834253583242215    0.045106898444835904    0.04563488457506984    
  0.04510689117133686    0.043834242288274594    0.04261362485206763    0.0422550419972333    0.04321061070304485    
  0.04548011953811028    0.048438139438769616    0.0509340898435396    0.05190252091312594    0.07189419309945495    
  0.06975683293150621    0.06419775834335487    0.05724107703544278    0.05100781280968205    0.0467118661361171    
  0.044457826623415485    0.043757300386329856    0.04383423673522884    0.04395267727295954    0.04383425597389232    
  0.04375729425670332    0.04445781360041469    0.0467118958616208    0.05100781127545094    0.057241078989687146    
  0.06419776156848304    0.06975680930017429    0.07189419309945495    0.11619608751521028    0.11118691547087496    
  0.0982098362764442    0.08193767467498854    0.06694675844786689    0.05567753208380921    0.04843263138606642    
  0.04445781637978442    0.0426136242277075    0.04207433728001012    0.04261362276606708    0.04445780523556034    
  0.048432636054656024    0.05567753621251991    0.06694676125240598    0.08193764671998523    0.09820984527572416    
  0.11118691376630281    0.11619608751521028    0.2004055866323026    0.18982331424443602    0.16206862128242    
  0.127168740544111    0.09523018403412373    0.07127794380924636    0.05567754383321596    0.046711891438984424    
  0.042255058176669406    0.040903247650120204    0.042255055838999876    0.04671186517408851    0.055677543722297954    
  0.07127796455655039    0.09523018230952196    0.12716872745674077    0.1620686260603812    0.1898233236381866    
  0.2004055866323026    0.32311087465891547    0.30761167811083173    0.26254096550149275    0.19985144276578992    
  0.13989792772369838    0.0952301813636507    0.066946776872726    0.05100781221638584    0.04321059463056601    
  0.0409029049633767    0.043210635461327626    0.051007814971138966    0.06694676709807561    0.09523017253586773    
  0.13989793067013176    0.19985145379327265    0.2625409495612862    0.30761165169344257    0.32311087465891547    
  0.3881549456544839    0.38872519326962307    0.36451847052273545    0.2914311374990011    0.19985144973861016    
  0.12716872641974178    0.08193766667142265    0.0572410733232205    0.04548012641788679    0.04207469723413883    
  0.04548012798378237    0.057241079455737316    0.08193766320108252    0.1271687467136911    0.19985146311373422    
  0.29143118620360275    0.3645185131547637    0.3887251795702221    0.3881549456544839    0.2678480151930551    
  0.3092026575849282    0.3799983201762686    0.36451846222849077    0.26254094886048746    0.16206858817646633    
  0.09820983293113134    0.06419776251642284    0.04843812013841461    0.04395229213922872    0.04843813253903477    
  0.06419774128816312    0.09820984461954006    0.16206857901911761    0.26254095585992004    0.364518488405769    
  0.3799983271547831    0.30920261436379043    0.2678480151930551    0.11376357948001903    0.1661972532295197    
  0.3092026324066567    0.38872513888123555    0.30761166350097147    0.18982331412470446    0.11118692826499231    
  0.06975682419668702    0.05093408005443461    0.04563527057365083    0.05093409667552465    0.06975681570143434    
  0.11118690261903674    0.18982330805560688    0.3076116736804718    0.38872512938076476    0.3092026361650555    
  0.16619724480734127    0.11376357948001903    0.0670752840550235    0.11376359361497297    0.2678480714859708    
  0.3881549495098467    0.3231108735367088    0.2004055837235113    0.11619611054986567    0.07189420512704366    
  0.051902518397458415    0.04629061468265142    0.05190251930440266    0.07189420009345196    0.11619612015380139    
  0.20040561309177596    0.32311088982977976    0.38815498342218935    0.26784809070957766    0.11376357608769887    
  0.0670752840550235    0.11376358638284631    0.16619725508499042    0.30920263944958787    0.3887251570469391    
  0.30761166076427643    0.18982331815956782    0.11118689716996483    0.06975681631558123    0.05093409272550157    
  0.0456352589730963    0.050934096621414744    0.06975682212990693    0.11118691273874931    0.18982332870957977    
  0.3076116513088782    0.38872517484701713    0.3092026275466379    0.16619723974933748    0.11376358638284631    
  0.1661972678320437    0.21900994828218825    0.34187937870602736    0.38432819581697025    0.2923058525589182    
  0.17999254243337057    0.10658668492758268    0.06782649682738505    0.05011124888321685    0.045106515692779306    
  0.0501112436975291    0.0678265014440052    0.10658669979028358    0.17999251949556    0.29230582384006687    
  0.38432823975709585    0.3418793863941797    0.21900994155015985    0.1661972678320437    0.309202625256221    
  0.3418793889954826    0.38737274033476143    0.351607909489281    0.24888844049153003    0.1543613251202391    
  0.09477465219864338    0.06291112620737546    0.04807249437928115    0.043834610460229205    0.048072515743228864    
  0.06291113526746932    0.09477466360306765    0.1543613428118652    0.24888842989008628    0.35160790908811346    
  0.38737277312160584    0.34187936487614273    0.309202625256221    0.38872513924462665    0.38432826552557303    
  0.35160790062112546    0.2768332979335322    0.18993297544915366    0.12224627831923025    0.08005989317116356    
  0.05690251055627685    0.04582948825529556    0.04261326182447502    0.04582948748570404    0.05690250112302296    
  0.08005991825043518    0.12224627782366612    0.18993297366735282    0.2768332793500878    0.3516079245655796    
  0.38432826502507594    0.38872513924462665    0.30761163755554316    0.2923058553327559    0.24888846206259627    
  0.189932980539965    0.13425086473696088    0.09286005129737064    0.06655711879384105    0.051683991519549166    
  0.04440656399935746    0.042255406833039716    0.0444065730132468    0.05168398279670784    0.06655711883526155    
  0.0928600348521113    0.1342508622191    0.18993297497962908    0.2488884597091887    0.29230582723537746    
  0.30761163755554316    0.1898233223403277    0.17999254221667904    0.15436135394320386    0.12224625023816263    
  0.09286006559104493    0.07084624873600537    0.05655557210278812    0.04840366570586384    0.04440693186062093    
  0.043210248063782375    0.04440696028264842    0.0484036501701349    0.05655557744597157    0.07084625947239051    
  0.09286004031349189    0.1222462853433106    0.15436133521747944    0.17999253077784913    0.1898233223403277    
  0.11118689274973426    0.10658670599849884    0.09477466029561771    0.08005989345394753    0.06655710460178796    
  0.0565555672116515    0.05034967268587854    0.04715865076659035    0.04582910113330721    0.04548050545985852    
  0.04582910990474625    0.047158646402917836    0.050349670812138134    0.056555584672599205    0.06655709734244403    
  0.08005989722980301    0.09477467516694575    0.10658669626034657    0.11118689274973426    0.06975680481070773    
  0.06782652691594915    0.06291114210760042    0.056902506341014555    0.05168398512851151    0.0484036524261126    
  0.047158658964016206    0.0473506080779374    0.048072895964371115    0.048437718051980376    0.048072902858297795    
  0.04735058068876106    0.04715864721109923    0.04840365652377615    0.05168397343979444    0.05690250264329781    
  0.06291114757594825    0.06782648499920299    0.06975680481070773    0.050934087837458446    0.0501112422922281    
  0.04807249854969875    0.04582948112696906    0.04440658211593454    0.04440692996984081    0.045829106067288114    
  0.04807290794090902    0.050110844717868495    0.05093450049592223    0.05011086097862887    0.048072895198652064    
  0.04582909479435115    0.04440694969894962    0.04440657149697145    0.045829479041579475    0.048072513642663926    
  0.05011124588616717    0.050934087837458446    0.04563526677228615    0.04510652425635299    0.043834620392918584    
  0.042613256727037904    0.0422554178238719    0.043210248471538565    0.04548049817060349    0.04843774382614709    
  0.05093449403715667    0.051902097070682246    0.050934502444330704    0.04843774079716567    0.04548051113519579    
  0.043210253663679206    0.042255414444150464    0.04261324168715976    0.04383462848991344    0.04510651736644368    
  0.04563526677228615    0.05093409447661764    0.05011125005790933    0.04807250691051073    0.04582947247842713    
  0.04440657899662151    0.044406946943396204    0.04582908640920625    0.048072908235033796    0.05011085004089458    
  0.05093449207902354    0.050110852956629814    0.04807289719166169    0.04582910394725705    0.044406940414603704    
  0.044406559036646066    0.04582946656446528    0.04807251781970252    0.05011124028694076    0.05093409447661764    
  0.06975679754250322    0.06782652212643837    0.06291113383645532    0.05690250661165675    0.05168399342667467    
  0.04840365342585291    0.04715865830015936    0.04735060189192988    0.048072895499098454    0.048437735352641814    
  0.04807290454336542    0.047350616597413665    0.04715866297032692    0.04840365856854514    0.05168397742243983    
  0.05690251473409684    0.0629111408863362    0.06782650032606552    0.06975679754250322    0.1111869007578804    
  0.10658669040971937    0.09477466017037023    0.08005990510964374    0.06655709379433022    0.05655557568146663    
  0.05034966703213701    0.04715864982349294    0.045829093038332575    0.04548049899369915    0.04582909456342072    
  0.04715864550746735    0.05034968033589847    0.05655557522775052    0.0665570971897902    0.08005989312583897    
  0.09477466416522366    0.1065866913369212    0.1111869007578804    0.1898233247137947    0.1799925233518487    
  0.15436137152165771    0.12224627790668233    0.09286004173158983    0.07084624523095996    0.05655558403292695    
  0.048403666957110576    0.04440695737876491    0.04321023973075294    0.04440694254191612    0.048403645250886564    
  0.05655557940209919    0.07084627181490263    0.09286005542433079    0.1222462589991969    0.15436136507853704    
  0.17999254232674952    0.1898233247137947    0.3076116462316119    0.29230586719800855    0.24888844461510803    
  0.1899329749223037    0.13425086508135844    0.09286004524776244    0.06655711244321279    0.05168399301160629    
  0.04440655658019365    0.04225542070482326    0.04440657800196339    0.05168399305911093    0.06655710277085894    
  0.0928600351898052    0.13425086223310623    0.1899329914115912    0.2488884393019296    0.2923058636664149    
  0.3076116462316119    0.3887251394060702    0.3843282718183386    0.3516079026583173    0.27683329883284014    
  0.18993298292708738    0.12224626132613951    0.08005990265267203    0.05690250788611127    0.0458294756937673    
  0.04261324696473185    0.045829489375703324    0.05690249941067816    0.08005990330869088    0.12224628572838887    
  0.18993299571750905    0.2768333066889018    0.3516079389957029    0.3843282609179611    0.3887251394060702    
  0.3092025805604395    0.3418793870243391    0.3873727761158067    0.35160791246686884    0.24888845252824926    
  0.1543613203200882    0.09477465760551708    0.06291113675635224    0.04807250734636368    0.04383460783059384    
  0.04807250872631793    0.06291112367751042    0.09477466129540094    0.1543613262738648    0.24888842551865598    
  0.3516078739881114    0.3873727511924198    0.3418793527757806    0.3092025805604395    0.1661972368814372    
  0.2190099693385634    0.3418793764437283    0.3843282034090706    0.2923058821809521    0.179992501404891    
  0.10658670726645249    0.06782651676845822    0.050111236425102144    0.04510651638205414    0.05011125525814077    
  0.06782651247064177    0.1065866865164634    0.17999252384442485    0.2923058869032111    0.38432819126135065    
  0.3418793900813352    0.21900993668224736    0.1661972368814372    0.11376358638284631    0.16619725508499042    
  0.30920263944958787    0.3887251570469391    0.30761166076427643    0.18982331815956782    0.11118689716996483    
  0.06975681631558123    0.05093409272550157    0.0456352589730963    0.050934096621414744    0.06975682212990693    
  0.11118691273874931    0.18982332870957977    0.3076116513088782    0.38872517484701713    0.3092026275466379    
  0.16619723974933748    0.11376358638284631    0.2678480805872501    0.309202651350659    0.3799983157666584    
  0.36451848157119215    0.26254094194819405    0.16206859471570295    0.0982098403994544    0.06419774970087962    
  0.04843812662334616    0.043952294534617575    0.04843812419987756    0.06419776178806673    0.09820985113011425    
  0.16206859808229007    0.26254096141623184    0.3645184865409861    0.37999828428017485    0.30920259077767875    
  0.2678480805872501    0.3092026286284117    0.3418793734253108    0.3873727622844277    0.3516078942644    
  0.24888844004186808    0.1543613512698119    0.0947746527973229    0.0629111290366036    0.04807250653028768    
  0.0438346233205318    0.04807250344593758    0.06291113091077968    0.09477465990973205    0.15436131697552266    
  0.24888838632474514    0.3516079091043947    0.38737274805121796    0.34187939590672534    0.3092026286284117    
  0.37999831498284553    0.3873727550213635    0.37577142527715    0.30725189705163497    0.21197235812338378    
  0.1344502404886528    0.08607296058634806    0.05979218684538407    0.04735098076547691    0.04375691068109681    
  0.04735100443343697    0.05979219488697938    0.08607296363630812    0.1344502498331838    0.21197233562327206    
  0.30725190069049535    0.3757714307099012    0.3873727403613817    0.37999831498284553    0.36451847059805664    
  0.35160794241660365    0.3072518896442429    0.23630006842693338    0.16407411725037035    0.10962500570980259    
  0.07542870088874742    0.05637505746259621    0.04715827393340594    0.044458194185258336    0.04715827839648291    
  0.056375050287915514    0.0754287147590797    0.10962500724851278    0.16407413068276044    0.23630002557870178    
  0.3072519118252433    0.35160793448851085    0.36451847059805664    0.2625409253699099    0.24888844128391527    
  0.211972368084942    0.1640741251837501    0.11978800495567274    0.0869684560505595    0.0660126203844023    
  0.0541613268254685    0.04840404052954488    0.04671148817721258    0.048404043919590134    0.054161318669076794    
  0.06601261479489094    0.08696844755819146    0.11978800701866749    0.16407411069101432    0.21197236216649004    
  0.24888839040649294    0.2625409253699099    0.16206859153373626    0.1543613449670671    0.13445025757780066    
  0.10962500600511454    0.08696846775614969    0.07023618173892157    0.059753505026172764    0.05416176145912227    
  0.051683578804534634    0.0510082068833653    0.051683598864178545    0.05416172870847132    0.05975351033515082    
  0.0702361955853421    0.0869684523071767    0.10962501479680904    0.13445023985186122    0.15436131869950462    
  0.16206859153373626    0.09820983298644342    0.0947746628587617    0.08607295645537896    0.07542870589991656    
  0.06601260056124542    0.05975349788688078    0.05686380750880693    0.05637463980306009    0.05690294223180272    
  0.05724065589192043    0.05690295089441851    0.05637464387836752    0.05686381648074303    0.059753517737340056    
  0.06601259020901402    0.07542871542833723    0.08607297828324116    0.09477467019140848    0.09820983298644342    
  0.06419774193419005    0.06291115262093941    0.059792210439420124    0.05637506066423984    0.05416131883802722    
  0.054161746139519046    0.056374652102893365    0.059792638981783344    0.06291069408263213    0.06419817724061361    
  0.06291069613580146    0.05979260667589411    0.05637463959880704    0.05416174150058113    0.05416132451834831    
  0.05637505245676344    0.059792209563784914    0.06291112143518213    0.06419774193419005    0.048438124631665934    
  0.04807250597694519    0.047350980911967364    0.04715826943424123    0.04840404834563309    0.051683586207048646    
  0.05690294952046938    0.06291070576408306    0.06782696380848785    0.06975634523041921    0.06782697518358947    
  0.06291069547180006    0.0569029268162988    0.05168358675818136    0.04840404091380141    0.047158264401099596    
  0.04735099426411383    0.048072501541870344    0.048438124631665934    0.043952301397890435    0.043834622784910245    
  0.043756926350397844    0.04445819103093487    0.04671149238950842    0.05100821734821759    0.05724064491175323    
  0.06419818559001854    0.0697563446204992    0.07189465587633453    0.06975634803439408    0.0641982010135499    
  0.057240673760304936    0.05100822135943154    0.04671149756676618    0.04445818390158255    0.04375693204024212    
  0.04383462332695417    0.043952301397890435    0.048438119445948606    0.048072512635705736    0.04735099256658527    
  0.047158259873308975    0.04840405523685738    0.051683589068036884    0.05690291927780933    0.06291070371524504    
  0.06782696301775852    0.06975634578239766    0.06782696288401453    0.06291067951035993    0.056902939144207756    
  0.05168358069398825    0.04840403445617138    0.047158259087272204    0.047351007511055435    0.04807250582820265    
  0.048438119445948606    0.06419774086053295    0.06291114873270595    0.05979219087451542    0.05637506001785566    
  0.0541613258571854    0.05416173689766091    0.05637465437985429    0.059792627677621044    0.06291069654135223    
  0.06419820152896526    0.06291070799799306    0.05979263954993511    0.056374631349495385    0.05416174801232721    
  0.054161321175485784    0.056375060138124024    0.059792204066700584    0.06291113136088135    0.06419774086053295    
  0.09820982538386758    0.09477465839000432    0.08607295589865042    0.07542871790723131    0.06601258656450222    
  0.059753500356052716    0.056863811911864015    0.05637463892803158    0.05690292431770289    0.05724065444721349    
  0.05690293425003577    0.05637462808569276    0.05686381332373893    0.059753507110697095    0.06601259794009551    
  0.0754287005353776    0.08607296672519031    0.09477467322073038    0.09820982538386758    0.16206860818982824    
  0.15436132013567483    0.13445026319144912    0.10962501624247876    0.08696846389836815    0.07023617781537159    
  0.05975350909073406    0.054161755961644686    0.05168359286590562    0.051008202196092985    0.051683590727607975    
  0.05416173098405315    0.05975351906765589    0.07023619067863562    0.0869684708614487    0.1096249971887947    
  0.1344502570218378    0.15436132769764643    0.16206860818982824    0.26254093748346474    0.24888844133549662    
  0.2119723675660465    0.1640741193139315    0.11978801167752741    0.08696845619042136    0.06601261089469572    
  0.05416133033478664    0.048404029142397983    0.046711499289251966    0.0484040643707183    0.05416133857633357    
  0.06601259659345148    0.08696845496383222    0.11978800394141859    0.1640741252256641    0.21197235045557206    
  0.2488884208545787    0.26254093748346474    0.36451843656218863    0.3516079448840889    0.30725189598031616    
  0.23630005981505364    0.16407411991016413    0.10962500550099896    0.0754287069303332    0.05637505661262919    
  0.047158269017660064    0.04445818927641903    0.047158282068448666    0.056375052065477264    0.07542870977240489    
  0.10962501706000784    0.16407413691811135    0.23630008534441052    0.3072519259041505    0.3516078938695726    
  0.36451843656218863    0.37999822006760314    0.3873727848368434    0.3757714385047674    0.3072519267905543    
  0.21197235905810974    0.13445023153462468    0.08607295661779976    0.05979219673747678    0.04735098983769246    
  0.0437569120507962    0.047350996717159276    0.05979217894216798    0.08607295126951474    0.13445022669019266    
  0.21197235231326209    0.30725186880632854    0.3757714390914831    0.3873726961826986    0.37999822006760314    
  0.3092025964159765    0.3418793806744685    0.3873727558288243    0.35160791393979063    0.2488884466095547    
  0.1543613222378433    0.09477468098554007    0.06291114074719284    0.048072500280154834    0.043834619422839734    
  0.04807251786898279    0.06291114209485864    0.09477465069079533    0.15436132267761202    0.24888843720444448    
  0.3516078938608822    0.387372741845083    0.34187934716357543    0.3092025964159765    0.2678480805872501    
  0.309202651350659    0.3799983157666584    0.36451848157119215    0.26254094194819405    0.16206859471570295    
  0.0982098403994544    0.06419774970087962    0.04843812662334616    0.043952294534617575    0.04843812419987756    
  0.06419776178806673    0.09820985113011425    0.16206859808229007    0.26254096141623184    0.3645184865409861    
  0.37999828428017485    0.30920259077767875    0.2678480805872501    0.38815498588698816    0.38872517959290614    
  0.3645185369643519    0.291431122739329    0.19985144320626425    0.1271687248622963    0.08193766078698106    
  0.05724108791506719    0.04548012652723469    0.04207468562454581    0.04548012486116816    0.057241088451489563    
  0.081937668613045    0.12716874542300713    0.19985146007195556    0.29143115332004627    0.36451848827385824    
  0.3887251682468529    0.38815498588698816    0.3887251649377705    0.3843282322764524    0.3516079005902691    
  0.2768332490194302    0.18993300378769412    0.12224627667996692    0.08005989757094625    0.05690251388976676    
  0.04582948141518072    0.04261325646228517    0.04582947644741182    0.0569025095390189    0.08005990619663908    
  0.12224626706475504    0.1899329733822611    0.2768332841653379    0.3516079212772128    0.38432822034085834    
  0.3887251649377705    0.3645184571847905    0.3516078820149756    0.3072519126977823    0.23630005597837017    
  0.16407414650122717    0.10962501551138404    0.07542871241617045    0.056375055068620936    0.04715826541796303    
  0.04445818279275382    0.04715826874127893    0.056375058738922235    0.07542871158310982    0.10962501953371476    
  0.1640741279788909    0.23630005166458257    0.3072519201868905    0.3516078770075894    0.3645184571847905    
  0.2914311116064432    0.2768333068074592    0.23630003858041665    0.18225094721692464    0.13162751343575285    
  0.09410756348327808    0.07028028469422387    0.05686339095927215    0.05035008076105044    0.04843224134257322    
  0.05035007981665698    0.056863383145776276    0.07028028886114102    0.09410756935997058    0.13162750858748762    
  0.1822509138339054    0.23630009319860443    0.2768333267149788    0.2914311116064432    0.1998514571072335    
  0.18993298919551196    0.1640741641874974    0.13162751361816113    0.10208965986453009    0.08043122521624893    
  0.06694432058887753    0.05975393613920847    0.05655515422838671    0.05567794679686967    0.05655515234021531    
  0.05975393111365372    0.06694430399548941    0.08043122783459486    0.1020896588729156    0.13162750223920208    
  0.16407415304981005    0.18993297880552712    0.1998514571072335    0.12716874192802682    0.12224627459529692    
  0.10962501266665017    0.09410755297501493    0.08043124571235456    0.07130034065714128    0.06694475398415631    
  0.06601216884064727    0.06655754098351872    0.06694630606143578    0.06655757655097815    0.06601214871211841    
  0.0669447628577404    0.07130035301866819    0.0804312215056034    0.09410757776117931    0.10962501024788875    
  0.12224627670754594    0.12716874192802682    0.08193764705254329    0.0800599044803448    0.07542870552602994    
  0.07028027817036461    0.06694429478430133    0.06694475368192175    0.0702798091335072    0.07542918623608082    
  0.08005940159735822    0.08193815760409673    0.08005941886259392    0.07542918972170412    0.07027982427812976    
  0.06694475986612196    0.06694428719505263    0.07028027777641238    0.07542872012573001    0.08005990215160183    
  0.08193764705254329    0.057241072131796    0.0569025255884657    0.05637506746797786    0.05686338941405623    
  0.059753939671384794    0.06601213989220812    0.07542918278986893    0.08607244051691683    0.09477518913825984    
  0.09820926121119156    0.0947752045642376    0.08607241403965857    0.07542918830474801    0.0660121566863836    
  0.059753928584125184    0.05686339576463723    0.0563750744941208    0.05690249671792034    0.057241072131796    
  0.04548012020197213    0.04582948420520721    0.04715825878167257    0.05035007845947377    0.056555157304538396    
  0.06655754469828414    0.08005940501240634    0.0947752172061675    0.10658611506372798    0.11118749112199525    
  0.10658612913665781    0.09477518176712268    0.08005940173675362    0.06655754590616206    0.05655514681689651    
  0.050350072523619976    0.047158268913125086    0.0458294759407797    0.04548012020197213    0.042074684681951705    