#     DFTpy    
  CRYSTAL 
    
  PRIMVEC    
  4.935710684509004    2.0649184483191725e-05    -5.177131034482759e-13    
  -2.467837459535133    4.2744612867134055    -1.0129310344827585e-11    
  -8.513158620689656e-13    -1.9723274482758616e-11    8.115075267011353    
  PRIMCOORD    
  4    1    
  Si    1.2286881448368714e-05    2.849647538982508    4.563705959974614    
  Si    2.46786093808664    1.4248343968804167    0.5061682665453288    
  Si    1.2286883302683886e-05    2.849647538981332    7.60890694053844    
  Si    2.4678609380946495    1.4248343969120736    3.5513693669430286    
  BEGIN_BLOCK_DATAGRID_3D    
  3d_datagrid_density    
  BEGIN_DATAGRID_3D#0    
  21    21    37    
  0.0    0.0    0.0    
  4.935710684509004    2.0649184483191725e-05    -5.177131034482759e-13    
  -2.467837459535133    4.2744612867134055    -1.0129310344827585e-11    
  -8.513158620689656e-13    -1.9723274482758616e-11    8.115075267011353    
  0.01403156701255103    0.014466776891270251    0.015981848970751517    0.019294938544843543    0.02571389181273843    
  0.03719331979627635    0.05624492816207202    0.084041228703046    0.1172506132648537    0.1460451916265823    
  0.157637403761889    0.14604518166121344    0.11725060777899127    0.08404121697416418    0.056244898471190505    
  0.037193312651165385    0.02571390504789382    0.019294938864532072    0.015981850699437552    0.014466773109771344    
  0.01403156701255103    0.014466772980079243    0.014467679274506774    0.015449641940709462    0.017917293970710044    
  0.022985836694059264    0.0325650862131789    0.04942564429807995    0.07626241952264674    0.11246661778612305    
  0.15029265358964916    0.17531742071745332    0.17532192138065023    0.15031668706713164    0.11244947996286256    
  0.07625088031181479    0.04944174072507708    0.032563607536320927    0.02298577815159963    0.01791670613994915    
  0.015450468358946999    0.014466772980079243    0.015981846680363905    0.015449632288810362    0.015981316089813607    
  0.017917042107058984    0.022281415382251053    0.031155405143885963    0.0481630001195645    0.07791412607725812    
  0.12315594520956627    0.17853193653663416    0.22633955454454693    0.24535226421634682    0.2263062269342671    
  0.17853828183317724    0.12319746752338716    0.07790625109157247    0.04815586375793477    0.03115688991419666    
  0.02228364575338762    0.017916690286112653    0.015981846680363905    0.019294942296391785    0.01791728646382665    
  0.017917032707284362    0.019295311997149994    0.022985878344542923    0.031157395647826266    0.048177509216981544    
  0.0810707346468153    0.1372503941289407    0.21556471290569015    0.29477369383516977    0.3431240540028612    
  0.3431781865993454    0.29476888039052646    0.21554280439583087    0.13725340520789076    0.0810746904135036    
  0.048188056716705875    0.031156893230009662    0.02298577454899543    0.019294942296391785    0.025713902249374435    
  0.022985839527207425    0.022281417705384745    0.022985886504593066    0.02571214118068398    0.03256379554210278    
  0.04816279702359333    0.08107080720019985    0.1434757023291581    0.24121196684235166    0.3486422801378281    
  0.4166349996036517    0.4347833239086902    0.4166735300463676    0.34869473730355804    0.24119331274433528    
  0.14349229119595508    0.08107470364505819    0.04815587665345425    0.032563596404895354    0.025713902249374435    
  0.03719331797582214    0.0325650891374661    0.031155420739102806    0.03115739449608627    0.03256379834049513    
  0.03719569252900273    0.049427072706595306    0.07791336189878502    0.1372556339548964    0.24118746444787134    
  0.36747870160404567    0.4377877274758493    0.43526693330208405    0.43524180110223054    0.43768917722423395    
  0.3675411495610276    0.2411933482858171    0.13725337039057622    0.07790626548443051    0.049441738716561275    
  0.03719331797582214    0.05624491112293048    0.04942563295594357    0.04816301275507587    0.048177489761629694    
  0.04816279199871552    0.04942705060450966    0.056257357321709646    0.07624616292267739    0.12318694080868843    
  0.21554640713309    0.3486911510523235    0.43775494301956963    0.4134012514908172    0.37823139286989665    
  0.41347430346792685    0.43768918598372103    0.34869477947213406    0.21554276314028276    0.12319749479173181    
  0.07625088646876665    0.05624491112293048    0.08404123178241159    0.07626241892131362    0.0779141114362584    
  0.08107072636008125    0.08107078843713154    0.07791335070757982    0.07624616121653009    0.0840524383062227    
  0.11245648230035926    0.17853912591221038    0.29476624491683534    0.4166755961196894    0.4352500750973941    
  0.3782625097417789    0.3782313865131245    0.4352419190367901    0.416673571455475    0.294768888859479    
  0.17853829057688195    0.11244945238221311    0.08404123178241159    0.11725060180425166    0.11246661306404925    
  0.12315590460544411    0.1372503365919024    0.14347567004561163    0.13725559205468083    0.12318695395359905    
  0.11245645328597854    0.11724635005048162    0.15032183378618844    0.22632316623957682    0.34317645109281847    
  0.4348002369908408    0.43525001012990466    0.4134013250262416    0.4352668466780018    0.43478338986882603    
  0.34317813710481493    0.22630627003321135    0.15031667017026135    0.11725060180425166    0.14604521764630676    
  0.15029270251530596    0.178531956041128    0.21556469826508604    0.24121186482737086    0.2411874359679975    
  0.21554636200737115    0.17853911656640356    0.15032186007519172    0.14603588381205196    0.17533853571082875    
  0.24533450160169037    0.34317647801107093    0.4166755900395752    0.4377548914728121    0.43778772799643056    
  0.4166350239251045    0.3431241109370964    0.24535236173909744    0.17532191219511503    0.14604521764630676    
  0.15763740847370208    0.1753173693198331    0.22633952612097333    0.29477362572494425    0.3486421278025574    
  0.36747862687867866    0.3486910482333454    0.29476617125533255    0.22632312315744033    0.17533846723310484    
  0.15763584566474864    0.1753385339960563    0.22632318478191985    0.2947661241355753    0.3486909507502785    
  0.3674785427750005    0.3486421867857897    0.29477365100682895    0.22633957138243477    0.17531739203654859    
  0.15763740847370208    0.14604521449003416    0.1753219366475978    0.2453523211704601    0.34312402777050827    
  0.41663498363064694    0.43778776530516583    0.4377549757389273    0.41667556221091645    0.34317643172422607    
  0.245334398529232    0.17533857392744245    0.14603591528968224    0.1503218452308427    0.17853913328057033    
  0.21554635620523482    0.2411874621340176    0.24121194341500674    0.2155647154238813    0.17853197468364654    
  0.15029269144915688    0.14604521449003416    0.11725061631675368    0.15031666141641786    0.22630628091920402    
  0.34317817761493313    0.43478338361465413    0.435266921805718    0.4134013086574506    0.43525000464688307    
  0.43480017637707885    0.3431763929898909    0.22632312473684893    0.150321851308487    0.11724636465781457    
  0.11245648322786825    0.12318692641161234    0.1372556447796769    0.1434757340884775    0.13725033810486886    
  0.1231559589008886    0.11246662610150869    0.11725061631675368    0.08404122304316568    0.11244947822970618    
  0.17853827080519927    0.2947688855718763    0.4166735287028074    0.43524182964346003    0.3782314727274708    
  0.3782625427832443    0.43525000826317145    0.4166755908568024    0.2947661993610611    0.17853911745683232    
  0.11245649536298455    0.08405242348607461    0.07624613668589994    0.07791336565732548    0.08107081379476234    
  0.08107072614357884    0.07791411601397535    0.07626240259404587    0.08404122304316568    0.05624491833346923    
  0.07625089581372525    0.1231974867457287    0.21554278337606336    0.3486947258548946    0.43768917014433095    
  0.4134743182732217    0.3782314441623258    0.4134012291168888    0.43775488181558186    0.34869108818291245    
  0.21554641623113546    0.12318696849215453    0.0762461526136052    0.056257326649586    0.04942705039920925    
  0.0481628064376325    0.04817749746073166    0.04816302235315929    0.049425631169320874    0.05624491833346923    
  0.037193316319083514    0.049441745271513016    0.07790624979831531    0.13725339772677642    0.24119328249480476    
  0.36754113488771994    0.4376892503838898    0.4352418403542164    0.4352669543961591    0.4377877904583395    
  0.36747867407036466    0.24118744165626418    0.13725568640353825    0.07791336676415007    0.04942702914377218    
  0.03719569176788245    0.03256380458399736    0.031157392238877004    0.03115541206856684    0.032565079829981    
  0.037193316319083514    0.025713895851786368    0.03256360668734785    0.048155857009863155    0.08107468338147047    
  0.1434922605364473    0.241193286410844    0.34869478906035944    0.41667347171827357    0.4347833676733761    
  0.41663494935502854    0.34864216229814815    0.24121189638476276    0.14347572283357937    0.08107080289158897    
  0.04816278213574268    0.03256379772986433    0.025712148477577582    0.022985883613020036    0.022281417692455827    
  0.022985832163252094    0.025713895851786368    0.019294934407633853    0.022985775326920428    0.03115687894238938    
  0.048188062538015275    0.08107469063797874    0.1372533815882011    0.2155427935803608    0.29476887015896064    
  0.34317818785612364    0.3431240315895415    0.29477369336611875    0.21556468469524978    0.13725038772284726    
  0.0810707364901683    0.048177497133210505    0.03115740766600556    0.0229858976318799    0.019295308286595352    
  0.017917044951797603    0.017917277322936215    0.019294934407633853    0.015981848822101418    0.01791669776194664    
  0.02228363502140236    0.031156891461017532    0.048155854459005706    0.07790622554195148    0.12319748814516444    
  0.17853824917226968    0.22630624322333673    0.2453522857587309    0.22633958157374112    0.17853193439620532    
  0.12315592824636332    0.07791410593335073    0.04816300742614929    0.031155419100624523    0.02228141302344878    
  0.017917038293546832    0.015981307531387698    0.015449625411807945    0.015981848822101418    0.014466776122375005    
  0.01545047200636892    0.01791670260259876    0.022985777876879616    0.03256359392029855    0.049441741344362806    
  0.07625089582584486    0.11244944540624942    0.150316677534638    0.17532189801724318    0.17531742875324102    
  0.1502926770376807    0.11246664022687385    0.07626242768983697    0.04942562446527692    0.03256508356489308    
  0.022985842227458787    0.017917290147597846    0.015449636549998957    0.014467681572778536    0.014466776122375005    
  0.01403156701255103    0.014466776891270251    0.015981848970751517    0.019294938544843543    0.02571389181273843    
  0.03719331979627635    0.05624492816207202    0.084041228703046    0.1172506132648537    0.1460451916265823    
  0.157637403761889    0.14604518166121344    0.11725060777899127    0.08404121697416418    0.056244898471190505    
  0.037193312651165385    0.02571390504789382    0.019294938864532072    0.015981850699437552    0.014466773109771344    
  0.01403156701255103    0.013891422960287017    0.014317417889227186    0.01580150246033113    0.01904315486739742    
  0.02530008244673183    0.03643753337963443    0.054810189427828025    0.08151744517867386    0.11332255693743819    
  0.14081394646770012    0.15188063824771234    0.14081525707326445    0.11327833020215793    0.08152551380157999    
  0.05484380288165696    0.036428957058583795    0.0252979861273548    0.01904302344772211    0.015801924725168642    
  0.014317393194865214    0.013891422960287017    0.014317393624293222    0.014318218818343467    0.015376447072985319    
  0.01804240643543529    0.023515023255469614    0.033924951819768095    0.05242667438660363    0.08206027240319211    
  0.12222371898050254    0.16429417315090214    0.19211876992316032    0.19212802679592544    0.16436176242930292    
  0.12221345365698999    0.08201572479571635    0.052443353157582834    0.03392817330811358    0.023515885703187613    
  0.018041452730423003    0.015377292676880896    0.014317393624293222    0.015801918432499087    0.01518278785097862    
  0.015801412473993665    0.018041683410092896    0.02309418419771204    0.03345336946305837    0.05359038244846143    
  0.0894046063415811    0.14452889291413604    0.21194076568627296    0.26924498820866566    0.2916219146974842    
  0.26913923142955676    0.21195584843015486    0.14460973127502977    0.08938643595280768    0.053588608572265835    
  0.0334531334270029    0.02309644706594184    0.018041441438231127    0.015801918432499087    0.019043024579176827    
  0.017350025246191038    0.017349041542323612    0.01904409482683555    0.023514470447805507    0.03345346757676209    
  0.0544629779471629    0.09579199877948488    0.16727218914171763    0.2655090852090041    0.35787589698226807    
  0.4073483892894462    0.4075017734921026    0.35786838185130365    0.2654149079883609    0.16730479258473402    
  0.09580158753360447    0.05446703125136213    0.03345313701278168    0.023515873804204415    0.019043024579176827    
  0.025297986662368883    0.021787066715150773    0.020840497268586614    0.02178735951080749    0.025296171158964854    
  0.033930413511403676    0.05358373453742518    0.09580142085439373    0.17684554426850171    0.2998834990700619    
  0.412931768330198    0.4489969390159397    0.44409792944378795    0.449058765469867    0.41308573722210534    
  0.29984039506137494    0.1768497161124093    0.09580159419095409    0.05358860671679563    0.03392816198706717    
  0.025297986662368883    0.03642896305677206    0.03004187519977314    0.027844851162324172    0.027853843647281582    
  0.03003233847533573    0.03643893215998509    0.052427480791421885    0.08940558731938854    0.16727508804098548    
  0.2998502664581725    0.42690914066207497    0.419033762002779    0.33620407011391956    0.3361453784195212    
  0.41879351471910803    0.4270663692901419    0.29984042009883544    0.1673048128331821    0.08938645698564626    
  0.052443350985402815    0.03642896305677206    0.05484382746216696    0.04425858255987962    0.0409698905543369    
  0.04023279801871767    0.040971548815824474    0.04425748539391025    0.054847830154197655    0.08200991998095335    
  0.14461482156900032    0.26540456177700206    0.4130977597870821    0.41893113516638786    0.2711971869877966    
  0.19827938739018788    0.2713762821660003    0.4187935131864983    0.4130858013024684    0.2654149167006134    
  0.14460974965479248    0.08201571805968655    0.05484382746216696    0.08152552148080669    0.06656634838848333    
  0.06327110273365642    0.06357518993636702    0.06356948540570195    0.06327547571781345    0.06656076296652177    
  0.08153530606629698    0.12220258367533816    0.21197393716743568    0.35784632461019994    0.4490339157717917    
  0.33618346580455744    0.19836923392664685    0.19827942163231616    0.3361454097122277    0.4490588713450004    
  0.3578684017479941    0.21195587156679255    0.12221346828142785    0.08152552148080669    0.1132783289922068    
  0.09625933764306334    0.09640650014350181    0.10241574215072426    0.1054124881672774    0.10241656884038831    
  0.09641445227617287    0.09625425728177375    0.11328911296626717    0.1643563960419496    0.26916791978807636    
  0.40751756999689365    0.44407678430876185    0.33618337423470507    0.27119721600493324    0.3362040750659729    
  0.44409786877362256    0.40750177570263896    0.26913925949201284    0.16436178312119681    0.1132783289922068    
  0.14081532020890825    0.1269321546873003    0.13648291707606616    0.15613117722703926    0.1712431375536318    
  0.17122521320901551    0.1561514298420965    0.13647023369798383    0.1269540529638263    0.1407984834346266    
  0.1921635146291823    0.29154915714328267    0.40751764214331715    0.44903391986775426    0.4189310764598819    
  0.41903381115149113    0.4489969485024017    0.40734836821807113    0.29162199182127335    0.19212803318290325    
  0.14081532020890825    0.1518806198468392    0.14711733312478054    0.17105445669981598    0.2122524341976968    
  0.2504691738383218    0.2657828472191561    0.2504652150661448    0.2122597967505825    0.17105557538668678    
  0.14713097098879097    0.15187589076429495    0.1921635001571863    0.26916793110514237    0.35784632509863556    
  0.41309767050695473    0.42690901355126365    0.41293167178006135    0.3578758111416104    0.2692450062981806    
  0.19211873993159542    0.1518806198468392    0.14081395485055595    0.14712304214245311    0.18487048279164411    
  0.24874672417511012    0.31445166870233204    0.35274780781388865    0.3527494424290848    0.31447497697650073    
  0.24875377013481936    0.18487245971937796    0.14713102573597187    0.1407985393637926    0.1643564273911426    
  0.21197395730125712    0.26540456100610865    0.2998503405672539    0.2998834640483114    0.2655091238977152    
  0.21194081317223026    0.1642942009029211    0.14081395485055595    0.11332257424883359    0.1269370513891978    
  0.17104732613315085    0.24875682630007984    0.33820366549619185    0.39716335868516633    0.41377186603044214    
  0.3971611042683279    0.33821822070094276    0.2487536821868672    0.1710555675582734    0.12695405925922457    
  0.1132891361911442    0.12220260978129041    0.14461480320687    0.16727507545431383    0.17684554954298287    
  0.1672721568623871    0.14452890896488357    0.12222371696761176    0.11332257424883359    0.0815174377006094    
  0.09622039788270477    0.13648262756275367    0.21225543993700915    0.3144671974461176    0.39715846346800954    
  0.42814613565584275    0.42812734055197393    0.39716117996757705    0.31447501824391944    0.21225991702034538    
  0.13647019945749664    0.09625427343085921    0.08153527607464285    0.08200988524893313    0.0894055952093067    
  0.09580142164340728    0.09579199491868329    0.08940462616996837    0.08206024962593854    0.0815174377006094    
  0.05481016947522851    0.0665698621501433    0.09644768071471538    0.15613806544940087    0.2504715645441892    
  0.352734364440333    0.4137699347469569    0.42814617109533776    0.41377186708255687    0.3527494563754581    
  0.2504652422923742    0.1561514053325865    0.09641441459855134    0.06656075476187327    0.054847794702682036    
  0.05242746753428776    0.053583740254051146    0.05446296246311333    0.05359040338575957    0.05242665314189205    
  0.05481016947522851    0.03643752706459606    0.044289553328572276    0.06326805084040407    0.10238722150507609    
  0.17123568460698682    0.2657998198681424    0.35273446923567675    0.3971584653562992    0.397163341034446    
  0.3527478180516058    0.2657829231334085    0.17122522482399813    0.1024166167344488    0.06327549837109311    
  0.04425746509557355    0.036438929743016574    0.0339304097846526    0.03345347245166098    0.033453377228805765    
  0.03392495968798785    0.03643752706459606    0.025300091227208443    0.030035038645615995    0.0409440722282818    
  0.06357537938242691    0.10544891867527033    0.17123568353148247    0.2504716105863514    0.31446719621766756    
  0.3382036887977121    0.3144516897676587    0.2504692561420527    0.17124314438266497    0.10541251168968395    
  0.06356949032198188    0.040971553336394004    0.030032349253500814    0.025296175733971218    0.023514475043001797    
  0.023094182975318147    0.02351502176907796    0.025300091227208443    0.01904315292992953    0.021785076645156415    
  0.027849894007397805    0.04026179070665638    0.06357539533703112    0.10238719495035778    0.15613805745059392    
  0.2122554256427936    0.24875680225247723    0.24874665678166766    0.2122524618765121    0.156131170179887    
  0.10241578534416045    0.06357520144954842    0.04023279307272326    0.027853857792856276    0.021787369206081562    
  0.01904409118440217    0.018041695166769445    0.0180423901138301    0.01904315292992953    0.015801502050395273    
  0.01734915900075827    0.02084413949291778    0.02784989762965776    0.04094406759371531    0.06326802494726484    
  0.09644769857928533    0.136482617792838    0.17104730788017086    0.18487043636598227    0.17105452417343486    
  0.1364829283742673    0.09640654350123098    0.0632710658986816    0.04096987739542583    0.027844847034817564    
  0.02084049296215036    0.017349039988403904    0.01580140638694567    0.015376432724483488    0.015801502050395273    
  0.014317416636896275    0.015183781139668305    0.017349163028201334    0.02178508226822405    0.03003503658508479    
  0.044289555478281194    0.06656985736662158    0.09622038441749876    0.12693707884852456    0.14712300899146658    
  0.1471173588926217    0.12693214864669833    0.09625933918905077    0.06656635316752117    0.04425856869764107    
  0.030041876700691878    0.021787070331539832    0.01735003131143994    0.015182790191482888    0.014318219497897348    
  0.014317416636896275    0.013891422960287017    0.014317417889227186    0.01580150246033113    0.01904315486739742    
  0.02530008244673183    0.03643753337963443    0.054810189427828025    0.08151744517867386    0.11332255693743819    
  0.14081394646770012    0.15188063824771234    0.14081525707326445    0.11327833020215793    0.08152551380157999    
  0.05484380288165696    0.036428957058583795    0.0252979861273548    0.01904302344772211    0.015801924725168642    
  0.014317393194865214    0.013891422960287017    0.013479587440581654    0.013883199555654075    0.015284029969175382    
  0.018315966728573704    0.02409786853094944    0.03427202089344171    0.050819400578202056    0.07455457899320105    
  0.10251426987094811    0.12648307125793617    0.13609300442193462    0.126485448053115    0.102449749047273    
  0.07456402916939009    0.05086883875356813    0.0342604213552417    0.024093666743998744    0.018316341866628522    
  0.015284393900395278    0.013883290147281404    0.013479587440581654    0.013883293352724878    0.013883447138811473    
  0.014968573440805951    0.017679135965774372    0.023196675151386473    0.03366680746830468    0.052253388469110866    
  0.0819408966708053    0.12204506913235649    0.16386680784162064    0.19143675422440679    0.1914504671493975    
  0.16396409579509436    0.1220361904051956    0.08187706771726307    0.052272400489081    0.033674282626101025    
  0.023196264290303043    0.017679211697048478    0.014968663919578571    0.013883293352724878    0.015284386413545516    
  0.014615632968672406    0.01528400768510859    0.01767924354213855    0.02303730764792342    0.034034035376176774    
  0.05549394057485885    0.09381536446139299    0.1528751248242108    0.22460448353557258    0.284627934520747    
  0.30771216879677865    0.2844687136943026    0.2246208211744362    0.15298561458142962    0.09379362898941465    
  0.05548800324692398    0.03403522263097803    0.02303894006798286    0.017679203112103428    0.015284386413545516    
  0.018316345970981016    0.016443155985423487    0.016443110069861214    0.0183161091971669    0.02319605321770058    
  0.03403336933668356    0.057073013627564714    0.10270754803625674    0.18175536475944584    0.28851969692496393    
  0.3829408138925295    0.4277740158860273    0.42799613071526976    0.3829362896269245    0.2883822931557596    
  0.18179263867013412    0.10272859481159734    0.057072753652252686    0.034035221761906695    0.0231962602014431    
  0.018316345970981016    0.024093674452216832    0.020160245663490617    0.019078072738436477    0.020160789577663638    
  0.024091827350586684    0.033676583066629066    0.05548209326953142    0.10272631710406666    0.19364460434932573    
  0.3278282999044956    0.4338182627609319    0.43936103509417107    0.4174202997691302    0.43943498859154123    
  0.43402435239035686    0.3277857147387987    0.1936342019115577    0.1027286190215655    0.055488006698841394    
  0.03367426999621228    0.024093674452216832    0.03426043443088642    0.0269170354445127    0.024285054862041095    
  0.024297066037682443    0.02690394927995394    0.034274390848492625    0.0522520321234783    0.09381969498686407    
  0.1817503133534814    0.32779269054008064    0.4422830832844031    0.3761194854443209    0.256058878723673    
  0.25597580137862275    0.3758340226370845    0.4424772011023813    0.32778579196366375    0.18179265397908495    
  0.09379363884878782    0.052272405933542765    0.03426043443088642    0.05086887304896218    0.03821033712551719    
  0.03373198837105928    0.03254896318902544    0.0337334823784071    0.038208534905731124    0.05087243767044599    
  0.08186940124884014    0.15299689779419637    0.28836244643452363    0.4340539805808192    0.3759942535782858    
  0.1813394223724326    0.10941711202981112    0.18153448254764096    0.37583395346015674    0.43402438161728024    
  0.28838230724768604    0.15298564082383678    0.08187706928017607    0.05086887304896218    0.07456403867979267    
  0.055507558370687264    0.04916316919517741    0.04763203772525424    0.04762672566709667    0.04916787313158496    
  0.05550284684077385    0.0745731818482388    0.12202126520611555    0.2246438196920626    0.38290372972654974    
  0.4393786183049048    0.25604692611523633    0.10949685272516624    0.10941710029661159    0.2559758235240389    
  0.4394350884678426    0.3829363010877415    0.22462088633668148    0.1220361864655371    0.07456403867979267    
  0.1024497504607843    0.07802146329976699    0.07133653745589934    0.07181633906463718    0.07258526268880558    
  0.07181630576433018    0.07134014897608588    0.07801795474833946    0.10246013919772995    0.16395948613543293    
  0.2845007391194656    0.42803756288532535    0.41735630773936744    0.2560468974898817    0.1813394507201391    
  0.2560588888583825    0.4174203135724034    0.42799624276018944    0.28446870715225797    0.16396408724867656    
  0.1024497504607843    0.1264854410106616    0.10082543182735475    0.09751105238034406    0.10425110040455693    
  0.11093028560898698    0.11090773941897838    0.10427772177791149    0.09748957444756934    0.10085239408515267    
  0.12645774880285984    0.19149823970357996    0.3075933507489125    0.4280376266060956    0.4393786454774671    
  0.3759942302392476    0.37611944637908806    0.4393610199306517    0.427773998164178    0.30771219015214    
  0.1914504695740117    0.1264854410106616    0.13609295161317686    0.1156581899328871    0.11969958415055038    
  0.13787759383985038    0.15753965962165506    0.16593873938271508    0.1575339190448357    0.13788535083286851    
  0.11969870015824043    0.115670455041346    0.13608772572317265    0.19149816741347825    0.28450070016007106    
  0.3829036592577033    0.4340538551394079    0.4422829804039556    0.4338182243451694    0.3829406852485341    
  0.28462794658712204    0.1914367708636221    0.13609295161317686    0.12648311178694485    0.1156637312275365    
  0.12849863974485184    0.1599533734489097    0.1976347594945712    0.22330186838407223    0.22330758622517383    
  0.19764003062370072    0.159958752865705    0.12849820357674271    0.11567050175948457    0.12645775442068122    
  0.16395948280284517    0.2246438671311326    0.2883623902633141    0.3277927069836219    0.3278282821777972    
  0.28851974430749544    0.2246045375931319    0.16386679590335185    0.12648311178694485    0.10251428046849108    
  0.10082947527018489    0.11969363631112016    0.15995924497252867    0.2136267309094433    0.2600723329173572    
  0.2782485373022353    0.26007397225342005    0.2136314275858106    0.15995872727399985    0.1196987077936313    
  0.10085240712499469    0.10246015484623852    0.12202125864445963    0.152996887204356    0.18175027453096554    
  0.19364461330548444    0.18175536790051294    0.15287512801320974    0.12204507682045804    0.10251428046849108    
  0.07455458634338868    0.07796766906121685    0.09750853532655052    0.13788036329682418    0.19764003178667325    
  0.26006635053152366    0.2991424490739453    0.2991250598859003    0.260074012496395    0.19763999723063017    
  0.1378853960879185    0.09748953147146346    0.07801797096977732    0.07457317631998314    0.08186936258491519    
  0.09381969317323328    0.10272630885367513    0.10270754766910346    0.09381535438131747    0.08194087297638074    
  0.07455458634338868    0.05081939083023441    0.055513607000311424    0.07138399827840268    0.10426155251076008    
  0.15753519924577214    0.22330518611580608    0.2782444465866609    0.2991425038565558    0.2782485232144791    
  0.2233075877091176    0.1575339532942787    0.1042777187139718    0.07134014617807719    0.05550283503764987    
  0.05087240790636493    0.052252018519339354    0.05548208764067288    0.05707300091795382    0.055493954554051976    
  0.05225337420012976    0.05081939083023441    0.034272015811207056    0.03825050795854608    0.04916026500470006    
  0.07177465409984457    0.11092199812101021    0.16594439336021607    0.22330531423648242    0.2600663184158534    
  0.26007232750075004    0.22330182417995434    0.16593878547126462    0.11090773493844232    0.07181635615687536    
  0.049167882110057265    0.03820852305703429    0.03427438366925946    0.033676581914355797    0.034033368835719495    
  0.034034045794134035    0.03366680858204728    0.034272015811207056    0.024097885768728716    0.026908188849527358    
  0.03369602518798167    0.04763239852240948    0.07262883129972832    0.11092197053925473    0.15753525170838964    
  0.19764005188701306    0.2136267045903924    0.19763473739386223    0.1575396865843371    0.11093029296908387    
  0.07258528434549    0.047626726491457445    0.03373348334823291    0.02690395104695062    0.024091834657205758    