#     DFTpy    
  CRYSTAL 
    
  PRIMVEC    
  4.681034482758621    0.0    0.0    
  0.0    4.681034482758621    0.0    
  0.0    0.0    4.681034482758621    
  PRIMCOORD    
  8    1    
  Si    0.0    0.0    0.0    
  Si    1.1702586206896552    1.1702586206896552    1.1702586206896552    
  Si    0.0    2.3405172413793105    2.3405172413793105    
  Si    1.1702586206896552    3.5107758620689653    3.5107758620689653    
  Si    2.3405172413793105    0.0    2.3405172413793105    
  Si    3.5107758620689653    1.1702586206896552    3.5107758620689653    
  Si    2.3405172413793105    2.3405172413793105    0.0    
  Si    3.5107758620689653    3.5107758620689653    1.1702586206896552    
  BEGIN_BLOCK_DATAGRID_3D    
  3d_datagrid_density    
  BEGIN_DATAGRID_3D#0    
  21    21    21    
  0.0    0.0    0.0    
  4.681034482758621    0.0    0.0    
  0.0    4.681034482758621    0.0    
  0.0    0.0    4.681034482758621    
  0.05963535858375426    0.1115621788610763    0.30316218519422855    0.4850067937445811    0.4432465728236123    
  0.3072082822994105    0.19829177815788146    0.1313045053707815    0.09447245211884038    0.07656420012816165    
  0.07117505930400427    0.07656429684670633    0.09447223434088987    0.1313048556036783    0.1982913484537324    
  0.30720886350674453    0.44324593654212086    0.4850073389398296    0.30316184898844595    0.11156230544196223    
  0.05963535858375426    0.11156219029421693    0.1748350824445568    0.36541243722901295    0.5056313953568674    
  0.4430204893831266    0.30862410089016834    0.20293791893031973    0.13708462193037368    0.10023438630690501    
  0.08207058770878674    0.07656421173523514    0.08207050076849716    0.10023456746906204    0.13708432462885334    
  0.20293834334257005    0.30862353218403643    0.4430210548516808    0.5056308604265266    0.36541279546272126    
  0.17483493107785153    0.11156219029421693    0.3031621853896192    0.3654124469799082    0.4926391284950375    
  0.5271187515490703    0.43375656782900035    0.31143407280196256    0.2165172546904265    0.15490034521064033    
  0.118784975988988    0.10023436481546409    0.0944724797604799    0.10023443970335091    0.11878477113172886    
  0.15490068650699126    0.21651684158970844    0.31143460665485734    0.4337559483609517    0.5271192250828383    
  0.4926387277151888    0.3654126806606791    0.3031621853896192    0.48500693523225785    0.5056313040072029    
  0.5271188243295498    0.4896681919648349    0.4031428078162086    0.31143499303221506    0.2379657537509008    
  0.18702576088533204    0.15490029440232508    0.13708467117889556    0.13130443636322675    0.13708456995063148    
  0.154900537658099    0.18702543659542398    0.23796623595251795    0.31143442806552357    0.40314333000901525    
  0.4896676568446871    0.5271191848494448    0.5056311129350649    0.48500693523225785    0.4432464047574572    
  0.4430206408328344    0.43375641989179603    0.40314289282788385    0.35653624666314315    0.30862319843568503    
  0.268151636810326    0.2379657482902455    0.2165173282970031    0.20293783155657463    0.19829189744971942    
  0.20293793456321363    0.21651705667978716    0.23796615462774728    0.2681511813983065    0.3086237370328343    
  0.35653566979440926    0.4031433699260857    0.4337561000979351    0.4430208572626675    0.4432464047574572    
  0.30720852009423527    0.30862382988929077    0.3114342343817687    0.3114348632251856    0.30862324110787204    
  0.3072091075882468    0.3086230895131277    0.31143507434934414    0.3114339361213182    0.30862418945528197    
  0.30720812454785    0.3086240133648574    0.3114342359595342    0.3114346896666846    0.3086236757879106    
  0.30720858235781656    0.30862374584806057    0.31143441275551553    0.311434577962857    0.3086236795077903    
  0.30720852009423527    0.19829154629215498    0.20293815596596265    0.21651701364898207    0.23796599149383188    
  0.26815151410848365    0.3086232678025427    0.35653630283132987    0.40314264732225136    0.433756743552125    
  0.44302024400623075    0.4432468637509339    0.4430204008740933    0.43375638710342296    0.40314318746218036    
  0.35653576521196223    0.30862380438383086    0.26815100068388653    0.2379663492549397    0.21651677300643743    
  0.20293830882804048    0.19829154629215498    0.13130475265526753    0.1370843476883855    0.15490060810763395    
  0.18702551776944135    0.23796594782635325    0.31143494893702883    0.4031427496157197    0.4896683776791536    
  0.5271184999728497    0.5056316761268199    0.4850065076686583    0.5056314190534418    0.5271188731506498    
  0.4896678683114658    0.4031433639206469    0.3114343903743766    0.2379663844868209    0.18702516252396428    
  0.15490083774425634    0.1370842693525371    0.13130475265526753    0.09447218045096911    0.10023464488340894    
  0.11878470932289056    0.15490058408514543    0.21651708928338892    0.3114341700485576    0.4337566347996848    
  0.5271185670289332    0.4926394040950119    0.3654121483304556    0.30316245398914765    0.36541235214091583    
  0.49263898271056306    0.527119086989306    0.43375606193817084    0.3114347021708521    0.2165166411066218    
  0.15490087859440874    0.11878451148447239    0.10023473765892499    0.09447218045096911    0.0765644822723775    
  0.08207030714345079    0.10023461234437424    0.13708438010900517    0.20293812896222282    0.30862397426157145    
  0.44302046267378703    0.5056315115216549    0.3654122348960802    0.17483529340625947    0.11156198600757053    
  0.17483514063335692    0.3654125426117868    0.5056310057275049    0.44302107913142297    0.30862341824491063    
  0.20293854075319726    0.1370840728166379    0.10023483038085165    0.0820702469357845    0.0765644822723775    
  0.07117479963040556    0.07656447633275877    0.09447218831063951    0.13130473022027062    0.19829156781170904    
  0.3072084207288425    0.44324656395900547    0.4850066957006892    0.3031624271705646    0.11156199577946802    
  0.059635521587252854    0.11156209046168879    0.30316204356493537    0.4850072617812079    0.4432459365422689    
  0.30720899894161074    0.19829114290859812    0.1313050492747663    0.0944719984747843    0.07656456857786864    
  0.07117479963040556    0.07656458332320994    0.08207023051595842    0.10023472993324184    0.1370842452838931    
  0.20293826297254966    0.30862377681898534    0.44302070509533736    0.5056313211972481    0.3654124073208241    
  0.17483513965324873    0.11156212838244892    0.17483497735800568    0.3654127746496357    0.5056307396588093    
  0.4430213579227652    0.3086232211485644    0.20293869294517353    0.13708393438494937    0.10023495283505021    
  0.0820701179423167    0.07656458332320994    0.09447197873311625    0.10023484517403698    0.11878446750538472    
  0.1549008563579786    0.21651677776670106    0.3114345223271991    0.43375618643578223    0.5271189993537758    
  0.4926389429604797    0.3654126042429164    0.3031620859279158    0.3654127410152251    0.4926384990684488    
  0.527119650988181    0.43375554989671944    0.31143516021596573    0.21651626745867716    0.15490118974173042    
  0.11878424735736844    0.10023496661010294    0.09447197873311625    0.13130512827695429    0.1370840158378837    
  0.1549009738900551    0.1870251186331036    0.23796637590900205    0.31143440958249846    0.40314327934548144    
  0.48966776947684204    0.5271191410390341    0.5056310603746316    0.4850071300444013    0.5056307727034363    
  0.5271195405048683    0.48966722420165393    0.4031440008878003    0.31143380335051135    0.23796685454392186    
  0.18702470399967247    0.1549012212790489    0.13708386630362832    0.13130512827695429    0.19829103579039245    
  0.20293864763856317    0.21651652205528865    0.23796648752098915    0.26815096405640537    0.3086238430073976    
  0.3565356534312139    0.40314333484078263    0.43375610538003295    0.4430209681634791    0.4432460411543993    
  0.44302119273703244    0.4337556235815761    0.4031439388402079    0.35653505571923555    0.30862444825703156    
  0.2681504038865813    0.2379669409628078    0.21651619960528382    0.20293882892833195    0.19829103579039245    
  0.30720919735122587    0.30862322392184044    0.3114349171753878    0.31143420966371665    0.3086239125753393    
  0.3072084479383475    0.3086237367441205    0.3114344598476114    0.3114345622594302    0.30862356282820835    
  0.3072087668458689    0.30862337215509994    0.31143493882664697    0.31143400087016926    0.30862436012644207    
  0.307207883268039    0.3086244496999513    0.31143371435127304    0.31143522722619654    0.30862303422600196    
  0.30720919735122587    0.44324573489339114    0.443021347309955    0.43375576310703773    0.4031435601591776    
  0.3565356197911119    0.3086238243289818    0.2681511109765258    0.2379662671591311    0.21651680237533588    
  0.20293834354747434    0.1982913811365399    0.2029384719974663    0.21651650422728175    0.2379667336224442    
  0.2681505476932224    0.30862439805707886    0.35653494853109596    0.40314410369831566    0.43375536719488716    
  0.44302158803704694    0.44324573489339114    0.48500758095260627    0.5056306471863696    0.5271194152824619    
  0.4896675898135745    0.40314335290226255    0.31143450481420726    0.23796621727558404    0.18702533721273124    
  0.15490068151449105    0.13708432413071986    0.13130479794471225    0.13708416743109816    0.1549009371883017    
  0.18702497397584167    0.23796675529678332    0.31143388999637933    0.40314400157087454    0.48966698048693    
  0.5271199052605786    0.5056304787111484    0.48500758095260627    0.3031618090766913    0.36541288548607764    
  0.4926386558348912    0.5271191873095552    0.43375617793008997    0.31143442476347993    0.21651694013961625    
  0.15490060297241595    0.11878475105226677    0.10023457501624553    0.09447223622434504    0.1002346775245453    
  0.11878450344337169    0.15490095120527805    0.2165164994212464    0.31143503303887093    0.4337555042196615    
  0.5271198096908135    0.49263821980653844    0.3654130883160987    0.3031618090766913    0.11156233405402463    
  0.17483488778432074    0.3654126132359401    0.5056311128169845    0.4430206868774105    0.30862388345952085    
  0.20293807597057323    0.1370844892877668    0.10023448857803868    0.08207048789548012    0.07656430655525655    
  0.08207038719094449    0.10023469570230349    0.1370841772336613    0.20293851396618995    0.30862330190187465    
  0.44302134427638173    0.5056305796223588    0.3654130400082597    0.17483479192358334    0.11156233405402463    
  0.05963535858375426    0.1115621788610763    0.30316218519422855    0.4850067937445811    0.4432465728236123    
  0.3072082822994105    0.19829177815788146    0.1313045053707815    0.09447245211884038    0.07656420012816165    
  0.07117505930400427    0.07656429684670633    0.09447223434088987    0.1313048556036783    0.1982913484537324    
  0.30720886350674453    0.44324593654212086    0.4850073389398296    0.30316184898844595    0.11156230544196223    
  0.05963535858375426    0.11156213144986327    0.17483513659540018    0.36541236081419004    0.5056314616651993    
  0.44302038903583774    0.3086241738395753    0.20293783424615827    0.1370846763865071    0.10023433248111478    
  0.08207063819624108    0.07656416393877641    0.08207053117980213    0.10023450332093291    0.13708441788458797    
  0.20293831327669945    0.3086236081147948    0.44302099898194625    0.5056308862333921    0.3654127168607553    
  0.17483498823233815    0.11156213144986327    0.17483513333484707    0.2597613909072629    0.4638442878232889    
  0.5851134921147919    0.503808144065786    0.35653517456616146    0.23912401066964636    0.1628025840672376    
  0.1175247944791043    0.09291111971890749    0.08207065040122086    0.08265646361905284    0.09539022672087889    
  0.12473020152313434    0.1791176033867342    0.26815113332222446    0.38584409813785125    0.4603357761010475    
  0.37876118751274707    0.22747901071778787    0.17483513333484707    0.36541239797940855    0.46384423043782946    
  0.6141350271984727    0.65240855028124    0.5472953864142621    0.40314401837978636    0.2849895028807238    
  0.2027529496040243    0.14967990736011036    0.11752480064893189    0.10023429774269975    0.0953903307177277    
  0.1027738545104991    0.12499791815360334    0.16777110572818774    0.23796632276523313    0.3346962602676198    
  0.42425856218466534    0.43667839697165345    0.3787613528860844    0.36541239797940855    0.505631414968604    
  0.585113606704495    0.6524084631876029    0.638234564046091    0.5472968617704347    0.4337553802629155    
  0.3346970559812503    0.2588176633622989    0.20275298125044208    0.16280252590264452    0.13708473672571    
  0.12472997998416248    0.12499802207449284    0.1384388951704752    0.16777140304822483    0.21651674142389582    
  0.2849901975780034    0.36257270948049575    0.4242586793278383    0.46033553028619645    0.505631414968604    
  0.4430205422025262    0.5038079209185438    0.5472955122232429    0.547296781231298    0.5038067406510857    
  0.4430216689157071    0.38584337251149076    0.3346971138576011    0.2849894141093936    0.23912412439407232    
  0.2029377399455398    0.17911795428121516    0.1677708694618427    0.16777148908471795    0.17911736701243844    
  0.20293838594114197    0.23912337602747927    0.2849902592433097    0.3346962160486854    0.38584441096405553    
  0.4430205422025262    0.30862393976799624    0.35653538286596864    0.40314374909382145    0.4337555386600028    
  0.4430215450588051    0.4432455319929447    0.4430216492507497    0.4337553067972215    0.4031441472804281    
  0.35653495132669183    0.3086243608605241    0.2681505612453129    0.2379666507237401    0.21651660143260162    
  0.20293845448493875    0.1982914115893277    0.20293833828832264    0.216516753159271    0.23796637870509343    
  0.26815095387036364    0.30862393976799624    0.2029380877348158    0.23912373534432493    0.28498975265711773    
  0.3346968516250604    0.3858435804404771    0.44302167615414    0.5038066228738541    0.547296987637918    
  0.547295187784283    0.5038083545653705    0.44302010575491907    0.3858447420318339    0.33469591601325654    
  0.28499043557085446    0.23912330463284    0.2029383764846569    0.17911746306247858    0.16777127403732248    
  0.16777116207349235    0.17911765727113413    0.2029380877348158    0.13708441856778833    0.16280283072958177    
  0.2027526781947802    0.2588179518366339    0.3346968566653352    0.43375547885836796    0.5472969086243638    
  0.6382342713300148    0.6524087428120561    0.585113221623926    0.5056317965880148    0.46033512848699804    
  0.4242589689439664    0.3625725688167099    0.2849903179464999    0.2165168061405334    0.16777122521324148    
  0.13843908115497364    0.12499777166136737    0.12473026377588296    0.13708441856778833    0.10023459562271796    
  0.11752450048984858    0.14968018584575393    0.2027526855390604    0.2849897207618911    0.40314388064821727    
  0.5472953745679332    0.6524086710844809    0.614134706308911    0.46384457513047006    0.3654120507217282    
  0.37876160504845985    0.43667815394227416    0.4242587490689705    0.3346963265222782    0.23796623607512288    
  0.16777128314617298    0.12499768720077888    0.10277411273313833    0.09539006156187269    0.10023459562271796    
  0.08207037851201492    0.09291140537198125    0.1175244813129628    0.16280282526344253    0.23912380062084984    
  0.3565353223729978    0.5038081362034937    0.5851133088096941    0.46384454030489464    0.25976112709465665    
  0.17483536448068573    0.22747876666089537    0.3787613850894798    0.4603356696969061    0.3858441683277847    
  0.2681512571715997    0.17911739338675367    0.12473043505446865    0.09538998718828876    0.08265674755930175    
  0.08207037851201492    0.0765644438738125    0.08207036314193152    0.10023458264557986    0.13708444105307485    
  0.20293804336792615    0.3086240514810746    0.44302036440047377    0.5056316561568657    0.36541214275435446    
  0.17483534801620926    0.1115619431322717    0.1748351702670461    0.3654124704532286    0.5056310808156453    
  0.44302099825760727    0.30862349357826807    0.20293848502395598    0.13708413608008685    0.10023478573494013    
  0.08207027050122664    0.0765644438738125    0.0820702667960624    0.08265675745666866    0.0953900456624791    
  0.12473025818875583    0.17911767228183237    0.26815091756453063    0.3858445089545312    0.46033534519717173    
  0.3787615218073559    0.22747881661020836    0.17483521497101812    0.25976146194669003    0.46384388334371796    
  0.585114205595338    0.5038071947973558    0.3565361229429458    0.239123119506221    0.1628033169915816    
  0.11752416248007484    0.09291162468134856    0.0820702667960624    0.10023482280582993    0.0953899524729786    
  0.10277412047859108    0.12499774413892767    0.1677711521993976    0.23796639413225687    0.33469610158749347    
  0.4242588283755536    0.4366782460376832    0.37876142795751117    0.3654124495687711    0.4638439040882745    
  0.6141356542851969    0.6524075259590176    0.5472965476483388    0.4031428463206676    0.28499059257142045    
  0.20275199024307825    0.14968069544852425    0.11752413566000275    0.10023482280582993    0.13708407633911868    
  0.12473049641484442    0.12499763884874601    0.13843912501075478    0.167771227831345    0.2165167539017822    
  0.28499027648068714    0.36257263001835344    0.4242587530157419    0.46033556071359205    0.5056311502360729    
  0.585114093617984    0.652407593775602    0.6382357015101732    0.5472955942996948    0.4337567408174176    
  0.33469572041873336    0.25881880696276593    0.20275198452331866    0.1628033511054743    0.13708407633911868    
  0.2029385887739432    0.17911729380221078    0.1677713608816269    0.16777114721121128    0.17911756279492969    
  0.2029383333596886    0.23912336838200296    0.2849902716610392    0.33469619454571353    0.3858443078439041    
  0.4430208118193525    0.5038073702393211    0.5472963704930414    0.547295699328067    0.5038080899027466    
  0.4430202191190938    0.3858448429521307    0.33469572690548377    0.28499067043724086    0.2391230622707496    
  0.2029385887739432    0.30862333002042436    0.2681514157214451    0.23796609081361852    0.21651693081400128    
  0.20293826351401226    0.1982914617275387    0.20293833183848042    0.21651673351881898    0.23796637670430043    
  0.26815103796802914    0.3086236829598488    0.3565358266604124    0.40314302461151014    0.4337566143731675    
  0.4430202998203899    0.4432469972810126    0.4430201251318602    0.433756811739043    0.403142646286466    
  0.3565362745577903    0.30862333002042436    0.4430212830870196    0.385843940495996    0.3346964698242745    
  0.28499010958701687    0.23912344960739357    0.20293837277814158    0.17911741450181648    0.16777136599308945    
  0.16777110174824245    0.1791176236489339    0.2029382438007018    0.2391233965137201    0.28499034289057906    
  0.3346960481449485    0.3858446818479902    0.4430202717217091    0.5038081489608037    0.5472954220362557    
  0.5472968092115217    0.503806965686971    0.4430212830870196    0.5056308225902922    0.4603359009535888    
  0.42425847444835724    0.3625728258297805    0.2849902403146973    0.21651670347687793    0.16777138776617484    
  0.13843891243451698    0.12499789641835463    0.12473019954810756    0.13708437389714856    0.16280301736929853    
  0.20275229947647538    0.2588185754820413    0.3346959929898184    0.43375666606490904    0.5472955080402037    
  0.6382358484870922    0.6524073345897221    0.5851145754615144    0.5056308225902922    0.36541282519996526    
  0.378761109830794    0.4366784805289474    0.4242586771196436    0.33469612584552605    0.23796647797172432    
  0.16777098778903696    0.12499794909821972    0.102773891332933    0.09539023396129864    0.10023450526045535    
  0.11752443763808904    0.14968038478929274    0.20275226583859385    0.2849904332210989    0.40314291991937545    
  0.5472965389788483    0.6524073692630139    0.6141359529151694    0.46384361795358836    0.36541282519996526    
  0.1748349775195361    0.2274790199736808    0.37876128648301405    0.4603354841259307    0.3858445144229767    
  0.268150809121656    0.17911787052384487    0.12473003087472424    0.0953903057708289    0.08265648639729377    
  0.08207053076266148    0.09291133112694748    0.11752443888974945    0.1628030522629558    0.2391233536078997    
  0.35653598947408593    0.5038071903544181    0.5851143410630371    0.4638436812977091    0.25976177330265127    
  0.1748349775195361    0.11156213144986327    0.17483513659540018    0.36541236081419004    0.5056314616651993    
  0.44302038903583774    0.3086241738395753    0.20293783424615827    0.1370846763865071    0.10023433248111478    
  0.08207063819624108    0.07656416393877641    0.08207053117980213    0.10023450332093291    0.13708441788458797    
  0.20293831327669945    0.3086236081147948    0.44302099898194625    0.5056308862333921    0.3654127168607553    
  0.17483498823233815    0.11156213144986327    0.30316235781974676    0.36541225876111594    0.49263935201714126    
  0.5271184598630129    0.43375680053915333    0.3114338816288588    0.2165174118951504    0.15490020527750062    
  0.11878511302669394    0.10023422433186456    0.0944725903723281    0.10023432062948472    0.1187848800791441    
  0.15490055465381827    0.21651699159006232    0.311434442154593    0.43375620292019945    0.5271189894923216    
  0.49263898131315464    0.3654124466884137    0.30316235781974676    0.3654122728726339    0.46384440362754437    
  0.6141348787311959    0.6524086393251262    0.5472952805602788    0.40314413413833283    0.2849893985824199    
  0.2027530585334886    0.14967983256182685    0.11752486019105592    0.10023422678153358    0.09539040899816542    
  0.10277378516848548    0.1249979780390601    0.16777105713323234    0.2379664109214244    0.33469615250828627    
  0.42425869520002313    0.43667831467802526    0.3787614303408577    0.3654122728726339    0.4926393457764862    
  0.6141348838545969    0.7389374838751115    0.7494903062120639    0.6382361787206486    0.4896668445649883    
  0.36257370142270223    0.26708771028696404    0.1978056276520118    0.14967979889637922    0.11878512980074572    
  0.10277366749615258    0.10003815383855197    0.11095375703892633    0.13843933075678613    0.187025099887208    
  0.25881850764004094    0.3417646814456688    0.40414134410905056    0.4366781750071407    0.4926393457764862    
  0.5271186320609269    0.652408573901168    0.7494903354057095    0.7494922115241113    0.6524067751650877    
  0.5271201304207487    0.4242575105263886    0.34176587935703523    0.2670877057262405    0.20275312653664565    
  0.1549001180443032    0.12499819298255274    0.11095364111970205    0.11095431896466311    0.12499749052268408    
  0.15490092908848793    0.2027521583692582    0.26708875781970315    0.34176462545689595    0.424258942076068    
  0.5271186320609269    0.4337566523528627    0.5472954293881601    0.6382359985876137    0.6524069062939241    
  0.5851150914479853    0.5056300591593007    0.46033680774301206    0.42425749561723813    0.3625737659243089    
  0.2849893192498685    0.21651754072289858    0.16777066500326482    0.13843949571828934    0.12499739746929857    
  0.12473058230829072    0.13708409351469097    0.1628032293943024    0.202752161795411    0.2588185961913362    
  0.33469598198950185    0.4337566523528627    0.3114340703666532    0.4031438481678047    0.48966703311792054    
  0.5271199458203798    0.5056301261465391    0.4850080729821172    0.505629918250789    0.5271202798298118    
  0.4896666951831496    0.4031442355756968    0.31143370540030074    0.23796684167483248    0.18702481620364367    
  0.1549011046127196    0.13708405951287275    0.1313049932475205    0.13708410986793484    0.15490091224870164    
  0.1870250805201284    0.23796656530667473    0.3114340703666532    0.21651717032378248    0.2849896973079754    
  0.3625733774894592    0.4242578074890518    0.4603366287928118    0.5056301162334058    0.5851151682074595    
  0.6524066272345361    0.6382363838541738    0.5472950124446689    0.43375705970772793    0.3346955981028413    
  0.2588188401964362    0.20275202715814303    0.16280329932567614    0.13708413227010657    0.12473046207106274    
  0.12499757717597469    0.13843927587766247    0.16777100647348267    0.21651717032378248    0.1549004790364713    
  0.20275273042932523    0.2670880589102443    0.3417655670336979    0.4242577792290088    0.5271200902936406    
  0.6524067344325164    0.7494923930793426    0.7494899642923238    0.6524089762018664    0.5271182042710477    
  0.4242592465123232    0.34176437032114276    0.26708893653675136    0.20275216301313528    0.15490088984448175    
  0.12499759714073416    0.11095412505301047    0.1109538999579197    0.12499791348380529    0.1549004790364713    
  0.11878482804531007    0.14968014033364782    0.1978052770380391    0.2670880333675173    0.3625734960752649    
  0.4896669641415348    0.6382362315357016    0.7494900581839683    0.7389378158060792    0.6141345203836404    
  0.49263967794486374    0.4366778398366457    0.4041415986277542    0.3417645529743601    0.25881858128600327    
  0.1870251791122088    0.1384391868879618    0.11095393101899317    0.10003791219069773    0.10277396813660043    
  0.11878482804531007    0.10023454069041175    0.11752454074501673    0.1496801099820699    0.20275277313976675    
  0.2849896321012288    0.4031440033568967    0.5472952948063572    0.6524087823659583    0.6141346017301628    
  0.46384469533758443    0.3654119597740518    0.37876169879347155    0.43667806017214444    0.42425885765014165    
  0.33469617467541896    0.23796632578834725    0.16777120502181106    0.12499774656248919    0.10277405546261471    
  0.09539012821380176    0.10023454069041175    0.09447229211748065    0.10023452924669564    0.11878481876129571    
  0.15490046412587274    0.21651722138250168    0.3114339999862627    0.4337568251619995    0.5271183628940217    
  0.49263959949110864    0.36541197445308177    0.30316262011139267    0.36541212547374013    0.4926391607826307    
  0.5271189161194453    0.43375622140323705    0.31143457395607005    0.2165167779305805    0.15490077892900125    
  0.11878463090067179    0.1002346308825058    0.09447229211748065    0.10023464448949201    0.0953900968331484    
  0.10277395986753428    0.12499789674445497    0.16777097325477835    0.23796663967656503    0.33469584332497965    
  0.42425914344379795    0.43667792192066635    0.3787617125183053    0.3654121663106609    0.46384423280773196    
  0.6141352392387627    0.6524079232399366    0.5472962085074392    0.4031431333379058    0.2849902972366774    
  0.2027522378429634    0.14968049430041905    0.11752431747254283    0.10023464448949201    0.11878458987905882    
  0.10277407648271784    0.10003787120314343    0.1109539073964195    0.13843927284247357    0.1870250494037487    
  0.2588186720849249    0.341764473149968    0.40414155940529745    0.4366781140192164    0.4926392369519045    
  0.6141352204370037    0.7389367777408661    0.7494912703136838    0.6382349742793898    0.4896680783105414    
  0.36257248179869855    0.2670887900099779    0.19780471291753723    0.1496805247976168    0.11878458987905882    
  0.15490084697974946    0.12499767767881656    0.1109539994909905    0.11095408099178627    0.1249975923106523    
  0.15490090178379834    0.2027521154843673    0.267088851501351    0.34176457098559127    0.42425889850572945    
  0.5271188090978556    0.6524080047492022    0.7494911849100047    0.7494910481099943    0.6524082423581166    
  0.5271186841767888    0.4242589097647487    0.3417645253564417    0.2670888243820487    0.20275217502701634    
  0.15490084697974946    0.21651665506754617    0.16777130683145006    0.13843906487097463    0.12499768410705821    
  0.12473043883730385    0.13708417277484788    0.1628032282518365    0.20275213499595812    0.25881858556292725    
  0.3346960759391968    0.4337563341670238    0.54729602259983    0.6382351126397524    0.6524081868658472    
  0.585113648291495    0.5056315806085966    0.46033522958238454    0.4242590104335423    0.36257241880326185    
  0.2849904723176465    0.21651665506754617    0.31143474931861675    0.23796616122714773    0.18702532800605445    
  0.15490075593439506    0.13708420772729055    0.1313049115006246    0.13708409168197833    0.15490096639790515    
  0.18702506768983065    0.23796646724643142    0.31143433942728627    0.4031433340181765    0.4896678413767449    
  0.5271189491793373    0.5056314965461961    0.48500660710239707    0.5056315812163792    0.5271186046057117    
  0.48966822230765755    0.40314294152461866    0.31143474931861675    0.4337559670384633    0.334696420605848    
  0.2588183400539642    0.20275229696664643    0.16280317756334722    0.1370841448264066    0.12473052505835133    
  0.12499750682021209    0.13843932378967228    0.16777100545416126    0.21651703167733893    0.2849900341113578    
  0.36257278398143117    0.42425875599284596    0.4603354395031181    0.5056315361504211    0.5851135093777513    
  0.6524083740357673    0.6382348140198687    0.5472964400930191    0.4337559670384633    0.5271192666201124    
  0.42425853132912505    0.34176481333211994    0.2670887356435405    0.20275216422689699    0.1549009937568965    
  0.12499746880946697    0.11095427307063858    0.11095376467369787    0.12499797555211252    0.1549005053778905    
  0.2027525488996782    0.26708848198086066    0.34176486596552    0.42425875085059556    0.5271188356971428    