#     DFTpy    
  CRYSTAL 
    
  PRIMVEC    
  3.4392452110142537    1.4388527485628277e-05    -3.6074689655172417e-13    
  -1.7196101446760768    2.9784810029758306    -7.058189655172415e-12    
  -5.932041379310346e-13    -1.3743345517241378e-11    5.654653510523868    
  PRIMCOORD    
  4    1    
  Si    8.561603562427137e-06    1.9856586574824926    3.1800291529610347    
  Si    1.7196265047305843    0.9928367339964607    0.35270235594381955    
  Si    8.56160485452973e-06    1.9856586574816733    5.301951112821999    
  Si    1.7196265047361654    0.9928367340185196    2.474624399306047    
  BEGIN_BLOCK_DATAGRID_3D    
  3d_datagrid_density    
  BEGIN_DATAGRID_3D#0    
  15    15    25    
  0.0    0.0    0.0    
  3.4392452110142537    1.4388527485628277e-05    -3.6074689655172417e-13    
  -1.7196101446760768    2.9784810029758306    -7.058189655172415e-12    
  -5.932041379310346e-13    -1.3743345517241378e-11    5.654653510523868    
  0.07858646470492267    0.08916292038046143    0.125670545410896    0.20181127092518958    0.33221512627404953    
  0.5083239842155183    0.6735566496142601    0.742783387446994    0.6735567155697115    0.5083241499124597    
  0.33221506389921435    0.20181123430386058    0.1256705557933343    0.08916293256264438    0.07858646470492267    
  0.08916295753742344    0.08916330100969877    0.11267061529993438    0.1689440716175778    0.272687708310532    
  0.42618733451172375    0.5895218167447787    0.6921482842426893    0.6922864644330969    0.5893519858352507    
  0.4260698788393326    0.27280037931909007    0.16894556985069392    0.1126656253806032    0.08916295753742344    
  0.12567058102336756    0.11267063258628857    0.12566695954759413    0.16893474525615643    0.2530815507951367    
  0.3786513505079378    0.5014899062773015    0.5578034259218725    0.563575579875621    0.5578773947546452    
  0.501727006567504    0.37864179620964955    0.25297489139792123    0.16894558796526946    0.12567058102336756    
  0.20181125416184434    0.16894411178552748    0.16893471795825157    0.20182699769707613    0.2726928544493644    
  0.37866215209296455    0.4628946999341634    0.43828352693977224    0.36348644451037543    0.36345119397838094    
  0.4381006774795751    0.46291129906020756    0.37864180542544484    0.2728003571307946    0.20181125416184434    
  0.33221513094825317    0.2726876897330116    0.253081567700666    0.2726927885330136    0.3323220506995249    
  0.4260498161999614    0.5016148941473204    0.4382492606285057    0.27894129192051376    0.20893346614302408    
  0.27907036184164324    0.43810076219191085    0.501726894972717    0.4260697911973939    0.33221513094825317    
  0.5083241897652216    0.4261873880557337    0.3786513857599146    0.37866214733896414    0.426049858633957    
  0.5083875999169059    0.5894693919638977    0.5577996175027026    0.3634948939082028    0.20898183275274992    
  0.20893351509511363    0.3634512516285383    0.557877325496132    0.5893520710023309    0.5083241897652216    
  0.6735566560932869    0.5895217876071726    0.5014899460031145    0.46289476069447405    0.5016149460950612    
  0.5894693805915543    0.6734917004842754    0.6923810118060749    0.5635579172595875    0.363494905132855    
  0.278941290825132    0.36348649149296963    0.5635755650779766    0.6922864864363173    0.6735566560932869    
  0.7427834063634978    0.6921481819659782    0.5578034836695006    0.4382835602020088    0.4382493129661038    
  0.5577993763072244    0.69238102553812    0.7425287390724351    0.6923810249905946    0.5577995733915394    
  0.43824924310972163    0.4382835370411018    0.5578035005027797    0.6921482428317788    0.7427834063634978    
  0.6735567514446438    0.6922864282110015    0.5635755859587415    0.363486453139494    0.27894132658047177    
  0.36349490985916727    0.5635579083668351    0.6923810474067948    0.6734916732106445    0.5894694391140737    
  0.5016149433791863    0.46289478765399195    0.5014899123950088    0.5895217901317492    0.6735567514446438    
  0.5083241247195048    0.5893520382010509    0.5578774451144576    0.36345131208887105    0.20893351272291785    
  0.20898188937289652    0.3634949115149015    0.5577995210127565    0.5894694270432418    0.5083876892516647    
  0.42604999918991626    0.37866215240713014    0.37865131657176043    0.4261874139921465    0.5083241247195048    
  0.3322151142272136    0.42606979485214197    0.5017269338653985    0.43810076395615505    0.27907041759192996    
  0.20893346080657785    0.2789413119074797    0.4382492756089137    0.5016148870108335    0.42604988700321633    
  0.33232202661190846    0.272692821908142    0.25308152433127296    0.2726876847540363    0.3322151142272136    
  0.20181128304083773    0.2728003594002488    0.3786417772573687    0.4629113076175425    0.43810079149508474    
  0.36345113874476065    0.36348648837978864    0.4382835759094044    0.462894683332309    0.37866211907684283    
  0.2726927733843207    0.20182695101364706    0.16893469360767266    0.1689441146803039    0.20181128304083773    
  0.12567058422070837    0.16894560688843674    0.25297492477250877    0.3786417416304014    0.5017269704943788    
  0.5578773788905235    0.5635756007036045    0.5578034581668326    0.5014898881455788    0.37865135557197505    
  0.2530815731880846    0.1689347164600371    0.12566692495883805    0.11267063235575057    0.12567058422070837    
  0.08916296553022382    0.11266563168760446    0.16894559463223774    0.2728003387038191    0.4260697972560264    
  0.5893519337460462    0.6922865286551091    0.692148225037574    0.5895216709083253    0.4261873898508211    
  0.2726877008643969    0.1689441125293055    0.11267061819698283    0.08916330418889529    0.08916296553022382    
  0.07858646470492267    0.08916292038046143    0.125670545410896    0.20181127092518958    0.33221512627404953    
  0.5083239842155183    0.6735566496142601    0.742783387446994    0.6735567155697115    0.5083241499124597    
  0.33221506389921435    0.20181123430386058    0.1256705557933343    0.08916293256264438    0.07858646470492267    
  0.07659085182205273    0.08659626384348384    0.12096091500238555    0.19184663260981197    0.31172137827961466    
  0.47218007735969547    0.6212027129749822    0.6829387746312505    0.6210094597713498    0.4721599868400937    
  0.31184915922960765    0.19183208583043523    0.12094333150666547    0.0865973470808865    0.07659085182205273    
  0.08659738086512628    0.08659680390372865    0.11016507657195507    0.1663122167437714    0.2689977542084893    
  0.41658269687939503    0.5630014096932476    0.6454206307467204    0.6456520174238058    0.5629386499132899    
  0.41641152490958666    0.2690501559443891    0.16633915262697538    0.11016439211052233    0.08659738086512628    
  0.12094336225438428    0.1073702706095318    0.1209452247226632    0.16633252065238627    0.2542967285932273    
  0.38018761187386885    0.4801372785104876    0.48967638408572745    0.47118444775839596    0.4897604094171136    
  0.4803552685191158    0.38017806960219197    0.25422963883726846    0.16633922276060417    0.12094336225438428    
  0.19183205164718883    0.1565797444625772    0.15655051890862778    0.19185703948041166    0.2689911088499718    
  0.3801838798291438    0.4393415371175082    0.34946719112243285    0.23671109836126575    0.23665116661544125    
  0.3492330214380609    0.4394647569699646    0.3801780229929962    0.26905016849542884    0.19183205164718883    
  0.31184923168361744    0.24594438426880702    0.2250459152727228    0.24595130781148963    0.3118786289773716    
  0.41639621875267147    0.4803251250794634    0.3493751543173139    0.15443164221413586    0.0911824358048757    
  0.15457699958903098    0.3492331151441111    0.4803552990643632    0.4164115011406729    0.31184923168361744    
  0.472159987434731    0.3791428870914513    0.32975876814307686    0.32978053396510587    0.3790878049988757    
  0.4722235199791994    0.562957939439247    0.48968425617980454    0.2367240866551904    0.09122872659595824    
  0.09118247357131247    0.23665120969380263    0.48976030831917833    0.5629386166044955    0.472159987434731    
  0.6210095090118486    0.5274622603989922    0.4500911777740053    0.4205220493931926    0.4501208100118091    
  0.527427768008808    0.6210413776138404    0.6457122610836001    0.4711262360794714    0.2367240756177768    
  0.15443166027015778    0.23671113792595874    0.47118441445951065    0.645652088944377    0.6210095090118486    
  0.6829388572927378    0.6274211734815835    0.5389774203636425    0.4686658514344956    0.46872234399108453    
  0.5389471050462418    0.6275468282226083    0.6827167503283701    0.645712210222397    0.48968419065684093    
  0.3493750783925641    0.3494672054202238    0.4896764248284786    0.6454206047745766    0.6829388572927378    
  0.6212027804366518    0.6274432688197275    0.5684245759743924    0.4684469742637463    0.4182890173031382    
  0.46845330493158494    0.568456695292946    0.6275468393090087    0.6210414381500686    0.5629579430358167    
  0.48032519235500853    0.43934163252649205    0.4801372820682081    0.5630014532580996    0.6212027804366518    
  0.4721803067473868    0.5272405201491367    0.5390097524240846    0.46846239086937785    0.38318543731099436    
  0.38318972063815787    0.46845336630861606    0.5389472855303652    0.527427768931789    0.4722235911271316    
  0.4163963340919561    0.3801839216578407    0.38018754557354745    0.41658274752460683    0.4721803067473868    
  0.31172138320208753    0.3790991119544428    0.450289833767106    0.46861734219962187    0.4183071585367303    
  0.3831853910692314    0.41828902597241907    0.4687223883400169    0.4501207150565104    0.37908778661762144    
  0.3118785990468425    0.2689910910386194    0.25429670132699855    0.26899775105107326    0.31172138320208753    
  0.19184662617619103    0.24608551669416343    0.3297662533442454    0.4204066974482065    0.46861732308268306    
  0.4684622359946827    0.4684469177640994    0.46866589115139046    0.42052204321105596    0.32978051634962907    
  0.24595128204595318    0.1918570154035237    0.16633246810629218    0.16631225312406397    0.19184662617619103    
  0.12096095584349445    0.15656561216138715    0.22491112649718994    0.32976627972743355    0.4502898463002516    
  0.5390096693161418    0.5684244995854784    0.5389774409437365    0.4500911882359437    0.3297587316112586    
  0.22504592411259305    0.15655051663385755    0.12094517556863119    0.11016509575708487    0.12096095584349445    
  0.0865963139082913    0.10735486442669381    0.15656561018186196    0.24608548207386682    0.37909909954935384    
  0.5272404305376716    0.6274432240994746    0.6274212088158203    0.5274622628445433    0.37914286660539803    
  0.2459444053384846    0.1565797673663704    0.10737025494139958    0.08659679536044228    0.0865963139082913    
  0.07659085182205273    0.08659626384348384    0.12096091500238555    0.19184663260981197    0.31172137827961466    
  0.47218007735969547    0.6212027129749822    0.6829387746312505    0.6210094597713498    0.4721599868400937    
  0.31184915922960765    0.19183208583043523    0.12094333150666547    0.0865973470808865    0.07659085182205273    
  0.07159539359312811    0.08004606674637044    0.10874215571598563    0.1666006749462647    0.261796645414506    
  0.3860839550666392    0.4991016930997355    0.5452636785081896    0.49889802162062713    0.38606542044113534    
  0.26194000224989633    0.1665837660256415    0.10872462945494875    0.08004611492188539    0.07159539359312811    
  0.08004614350050825    0.0800467653694078    0.10112872995471144    0.1507294067346378    0.23995687639512278    
  0.3652288173909804    0.48559754366513375    0.550764383137859    0.5509839085038568    0.48558288425365503    
  0.36506685904185693    0.2399887465976339    0.1507551452834476    0.10113185361266656    0.08004614350050825    
  0.1087246483223047    0.0961639659359855    0.10872571465127624    0.15075067895865746    0.23215784780794035    
  0.3479752417542337    0.43797804709703125    0.44356846398598127    0.42506864876147443    0.4436433808715856    
  0.43816594858878016    0.3479599027491754    0.23211840810241993    0.15075519372187973    0.1087246483223047    
  0.16658376480268583    0.1336798973030715    0.13365262537042572    0.1666100941685309    0.23995071751928118    
  0.34796070601418827    0.4098208930883551    0.3298798137357263    0.22439898404780115    0.22434223835045267    
  0.3296443488672787    0.4099668062138626    0.3479598778216198    0.23998871829688753    0.16658376480268583    
  0.2619400279043818    0.19973768572796918    0.18056066626851586    0.19973867469746245    0.2619405973256329    
  0.36506027775201805    0.4381592052884462    0.32977445662916155    0.150252288362625    0.0900963809446736    
  0.15039782072361485    0.3296444875726347    0.4381658930381384    0.36506682561648107    0.2619400279043818    
  0.38606543100420804    0.2961961185473961    0.2516441546600509    0.2516680556513897    0.29617108815863463    
  0.386115004434076    0.485565888638141    0.44358870121310806    0.224407256337033    0.09014690257918657    
  0.09009641137605061    0.2243422979076652    0.4436433097609505    0.48558294599928714    0.38606543100420804    
  0.49889807180466306    0.4036423818280271    0.33793932808152904    0.3155455339783256    0.3379451977230681    
  0.40362154965142466    0.4989479310795622    0.5510104878352703    0.4250155946761223    0.22440725383293833    
  0.15025231529638022    0.22439904372413286    0.42506865578197767    0.5509838855998253    0.49889807180466306    
  0.5452637144725281    0.47715200213809167    0.4114063833328343    0.3714472670408896    0.3715107944720103    
  0.411362395160587    0.47722515131944315    0.5451059757610469    0.5510104277782281    0.4435886998532479    
  0.3297744012436723    0.32987983564784246    0.44356844594594286    0.5507643132681903    0.5452637144725281    
  0.49910171563994576    0.4771413242797992    0.44004501566799153    0.40118148608558896    0.38297333354546764    
  0.4011905107307488    0.44007180491594244    0.4772251435067394    0.4989479378772766    0.48556594045459534    
  0.43815923055178424    0.4098209276336311    0.4379780153852534    0.48559753924353605    0.49910171563994576    
  0.3860841209123334    0.4034675270673029    0.41140576613339574    0.401208199197979    0.3826577551288657    
  0.38265040850949195    0.4011905603882909    0.41136249168256867    0.4036215559779765    0.38611507228066155    
  0.3650604604759114    0.3479607592484281    0.34797520603465215    0.3652288585325815    0.3860841209123334    
  0.2617966586044388    0.2961821417256399    0.3380764542473675    0.37145668420398653    0.3829492396645134    
  0.38265767480524265    0.3829733545591933    0.3715108532150112    0.33794517219454223    0.296171030777513    
  0.2619405678799844    0.23995072418791324    0.23215781405175073    0.23995690044487125    0.2617966586044388    
  0.16660068898765246    0.19985593227881734    0.25165615660709073    0.31542259699263464    0.3714566917759397    
  0.4012080490948062    0.40118143038595944    0.37144733902328214    0.3155455023721539    0.251668008121889    
  0.19973863048780352    0.1666100718089514    0.1507506512150342    0.15072943226666027    0.16660068898765246    
  0.10874217385905766    0.13366534429017635    0.18044468450390302    0.25165615503482025    0.33807649055054345    
  0.41140573558728627    0.4400449777756624    0.41140640995414635    0.33793938966216663    0.25164410990277913    
  0.18056071951945674    0.13365261766428652    0.10872567771688939    0.10112877145725051    0.10874217385905766    
  0.08004611181229246    0.09614722033284029    0.13366536209650853    0.19985595078487162    0.29618217332031743    
  0.4034673787465774    0.47714132462033937    0.47715196412918925    0.40364232978542114    0.29619612586745175    
  0.1997376958107561    0.13367992510457266    0.09616395174833386    0.080046766154178    0.08004611181229246    
  0.07159539359312811    0.08004606674637044    0.10874215571598563    0.1666006749462647    0.261796645414506    
  0.3860839550666392    0.4991016930997355    0.5452636785081896    0.49889802162062713    0.38606542044113534    
  0.26194000224989633    0.1665837660256415    0.10872462945494875    0.08004611492188539    0.07159539359312811    
  0.06526005939230656    0.07183467767373844    0.09375179931958809    0.13664110978159086    0.2049219224250922    
  0.29148936885061133    0.36902082321420887    0.4007114481081271    0.3689154506130118    0.2914855231302264    
  0.20500493902676273    0.13662965231922383    0.09374537009726434    0.0718337124656176    0.06526005939230656    
  0.0718337460979803    0.07183402296536412    0.08923223341174809    0.12944258055736596    0.20051930334995424    
  0.29999845352222687    0.399231416997166    0.4580505407925906    0.4581750500231506    0.3992219647177936    
  0.299906283636499    0.2005441578283137    0.1294519593246238    0.08923745938889402    0.0718337460979803    
  0.09374539837800676    0.08303567722498541    0.0937465569701696    0.12944922686754198    0.1990862426478198    
  0.3027005691938761    0.40193323070760023    0.4445807764012219    0.4474351308868328    0.44464158751862126    
  0.402054286617674    0.30267976513221345    0.1990754655434502    0.12945196411127688    0.09374539837800676    
  0.13662965366009208    0.10858416175081652    0.10857019178208875    0.13664316345322372    0.20052268768772644    
  0.3026842663915165    0.3964067031963459    0.39512525454582487    0.33705854644336064    0.3370188661781831    
  0.39493713201189984    0.39651847202260704    0.3026797608385841    0.20054415696280226    0.13662965366009208    
  0.20500500185262904    0.15210459754790837    0.13605341159664355    0.15210282580267118    0.20500237467611462    
  0.29990638978469136    0.40203961087514345    0.39504650671130825    0.2781677857194734    0.21828961261208468    
  0.27830342646604295    0.394937191741622    0.40205423849337785    0.29990622600239275    0.20500500185262904    
  0.29148553459609367    0.21341590075442846    0.17694794263207447    0.17696445549406337    0.21340084357867556    
  0.2915115605998219    0.3992106162044811    0.4446186934566447    0.33705357495863925    0.218345567543353    
  0.2182896737285653    0.33701897237718803    0.4446415434691577    0.3992219941184658    0.29148553459609367    
  0.3689155100589081    0.2798616521900003    0.22634631747215206    0.20912907327754826    0.22635310767293562    
  0.2798494251720481    0.36894586196203655    0.4581774846285732    0.4474208499463281    0.33705363756392803    
  0.2781678189074839    0.33705863621623977    0.44743509613578175    0.45817506280339115    0.3689155100589081    
  0.4007114423379197    0.32489145316511575    0.26922058479066535    0.24079007881725106    0.2408202075485797    
  0.2691925019450546    0.32493216735866803    0.4006356418632117    0.4581774827013858    0.4446187324062795    
  0.3950464067501698    0.39512523697101765    0.4445808319639597    0.45805048477906246    0.4007114423379197    
  0.3690208393146146    0.32488520482087374    0.2864615464991425    0.26098890886692244    0.2516890757864462    
  0.26099604221673733    0.28646817518664247    0.3249321437818443    0.3689458129212099    0.3992106522809721    
  0.4020396379413285    0.3964067097645861    0.4019332519087916    0.3992314254175657    0.3690208393146146    
  0.29148950081453406    0.27977765329931004    0.26921626214852956    0.2609965471465857    0.2556595267882326    
  0.2556558999793687    0.26099606917931795    0.2691926217752393    0.27984941982231476    0.2915115791443862    
  0.2999065051943208    0.3026842938682099    0.30270053506445027    0.2999984850436141    0.29148950081453406    
  0.20492190649372538    0.21341371585966717    0.22640646845059026    0.24079966594595717    0.25168024885117785    
  0.25565945201040235    0.25168908585042954    0.24082020717483665    0.22635306464460306    0.213400808252525    
  0.2050023435190285    0.2005226499922362    0.1990862087948057    0.20051927696505803    0.20492190649372538    
  0.13664111636692206    0.15216303726105002    0.17695514571288798    0.20907008256614323    0.24079962575222777    
  0.2609964724505286    0.26098891232926563    0.24079012476549128    0.20912902818168264    0.17696440032336233    
  0.15210282999696634    0.13664316262334458    0.12944919435541885    0.12944260731798996    0.13664111636692206    
  0.0937518136055565    0.10857621338622063    0.13599370236899608    0.17695514727619835    0.22640652729881822    
  0.26921624032487196    0.28646152916686557    0.26922062968198224    0.2263462974009305    0.17694792082848282    
  0.1360534541163601    0.10857018906269361    0.09374652576940874    0.08923224922135609    0.0937518136055565    
  0.07183471476092813    0.08302697299019651    0.10857618569058748    0.15216306047497005    0.21341376118233127    
  0.27977762315887084    0.32488522052777125    0.32489146097280225    0.27986162415153115    0.21341588396839437    
  0.15210460041184168    0.10858419318769094    0.08303565265912985    0.0718340193519489    0.07183471476092813    
  0.06526005939230656    0.07183467767373844    0.09375179931958809    0.13664110978159086    0.2049219224250922    
  0.29148936885061133    0.36902082321420887    0.4007114481081271    0.3689154506130118    0.2914855231302264    
  0.20500493902676273    0.13662965231922383    0.09374537009726434    0.0718337124656176    0.06526005939230656    
  0.05919129374583555    0.06420471446295373    0.08051061187789828    0.11127206848804969    0.15868548434502253    
  0.217501733158397    0.26987041842470305    0.2914083296051589    0.26984790594571634    0.21750614938640367    
  0.15870460830993782    0.11127043022595395    0.08051090331778543    0.0642042942068993    0.05919129374583555    
  0.06420432031016424    0.06420460126685855    0.07817998671104978    0.10989530336254057    0.1649085647110889    
  0.24251315413465033    0.32460754513621004    0.3783851538485734    0.37841345134038834    0.32460384625386735    
  0.24249622684967861    0.1649191395656731    0.10989641483152673    0.07818393796489026    0.06420432031016424    
  0.08051091076638339    0.07168953006413709    0.08051086588729818    0.10989461462037997    0.16763612045287646    
  0.25815301493081505    0.3638175244654261    0.44330626103771253    0.47029640966072517    0.44334350371487335    
  0.3638491470485953    0.25814622709169444    0.16764007392884742    0.1098964602749375    0.08051091076638339    
  0.11127041248602217    0.08821394584086675    0.0882128836822288    0.11127069536147839    0.16491504963770548    
  0.25814258034838716    0.37714472271476024    0.4669327963376029    0.49543025043412164    0.495417912905852    
  0.46687211664742745    0.37718681258258113    0.258146207844613    0.1649191484657657    0.11127041248602217    
  0.15870465099904296    0.11549645030746668    0.10255261704367966    0.11549482039084666    0.15870043829362215    
  0.24250011202631835    0.36383241584322423    0.4669239713771241    0.48932167565229107    0.4782629009629189    
  0.48935465022550173    0.46687225272708505    0.36384910766800754    0.24249619753482984    0.15870465099904296    
  0.2175061411022446    0.152644619183691    0.12392304928587551    0.12392854323297721    0.1526408108003056    
  0.21751238583312202    0.32460153944920994    0.44334280731150044    0.4954195894780521    0.478255109192512    
  0.4782629535385239    0.49541799107051204    0.44334345335187625    0.3246038082071139    0.2175061411022446    
  0.2698479506576588    0.19178659298428347    0.14949061882588982    0.13636706152614644    0.14949454130469106    
  0.19178191024295646    0.2698599585218767    0.37840783278571477    0.4703176114591082    0.49541959428527704    
  0.48932169577655055    0.49543031024622625    0.4702963800228191    0.37841344365071516    0.2698479506576588    
  0.2914083738453202    0.2180696742528604    0.17155727568371867    0.14970454102245528    0.14971095632653023    
  0.1715493918270598    0.21808198633839343    0.2913954221418035    0.37840778762439903    0.44334278187660886    
  0.46692383847996904    0.4669327446027719    0.443306195172993    0.3783851126912108    0.2914083738453202    
  0.26987044499311064    0.21806770546196244    0.18048543915200882    0.15871336960582072    0.15159503479303388    
  0.15871645800730644    0.18048742149875147    0.21808195719939333    0.26985992568329586    0.32460157422332    
  0.3638323949819361    0.3771447310144709    0.36381750362143234    0.3246075933603728    0.26987044499311064    
  0.2175018323494526    0.1917687071978399    0.1715555537439831    0.15871350122575179    0.15267470088227633    
  0.15267408039345481    0.1587164902087965    0.17154946619539174    0.19178187187963608    0.2175124406923277    
  0.24250019813690543    0.2581425871829832    0.25815297976846596    0.2425131683930042    0.2175018323494526    
  0.1586854502377417    0.15264517847262715    0.14950078159736563    0.1497064140395944    0.1515945498683766    
  0.1526746716735114    0.15159502627326482    0.14971097638426062    0.1494945258155848    0.15264078032178588    
  0.15870042788787186    0.1649150250011337    0.1676360779639266    0.16490854741558345    0.1586854502377417    
  0.11127207165166421    0.11550466155899386    0.1239246324358262    0.13635567534016577    0.14970643867786124    
  0.15871346958926505    0.1587133411788593    0.14970458012276017    0.13636703835690223    0.12392855413033793    
  0.11549479819344198    0.11127066492358485    0.10989458958037839    0.1098953161999039    0.11127207165166421    
  0.08051062235207125    0.08821234863314785    0.10254198481146069    0.12392466296580106    0.14950077820910523    
  0.17155552455202777    0.18048543530952196    0.17155728028151884    0.14949061599627053    0.12392301347989416    
  0.10255264876993538    0.08821287582316671    0.08051083469515083    0.07818001137530864    0.08051062235207125    
  0.06420475614114614    0.0716876136771262    0.08821233626464477    0.11550464550078872    0.1526451947429305    
  0.19176866915017107    0.21806768385195743    0.21806967505012081    0.19178658947930458    0.15264462548661373    
  0.11549649434039534    0.08821396697349351    0.07168951662930946    0.06420459445070832    0.06420475614114614    
  0.05919129374583555    0.06420471446295373    0.08051061187789828    0.11127206848804969    0.15868548434502253    
  0.217501733158397    0.26987041842470305    0.2914083296051589    0.26984790594571634    0.21750614938640367    
  0.15870460830993782    0.11127043022595395    0.08051090331778543    0.0642042942068993    0.05919129374583555    
  0.055059610277509115    0.058997649330715544    0.07170354115179722    0.09521170454452464    0.13069606039221973    
  0.17411132379118055    0.21255341212630122    0.2283473405423969    0.21255477956408447    0.1741173535937369    
  0.1306967517243636    0.09521298222327665    0.07170560699573487    0.058998380398397214    0.055059610277509115    
  0.05899840494845333    0.05899866603215507    0.07053776757900034    0.0967126763133432    0.14161395111723984    
  0.20523250879597732    0.2745810278347313    0.32174916938354453    0.32174560057705875    0.27458432444837266    
  0.20523611326405075    0.14161787675194673    0.09671368296661104    0.07053888130316792    0.05899840494845333    
  0.07170562282348929    0.0642703296882631    0.07170375656899142    0.09671259678693    0.14618430631498297    
  0.22580265063195176    0.32760732397771913    0.4184638962051637    0.4551544109207369    0.4184761717849677    
  0.3276099887609851    0.22580406385231772    0.14619164294146078    0.09671370118547064    0.07170562282348929    
  0.09521299792416511    0.07560885495665956    0.07560929180804508    0.09521231647440112    0.14161651699085387    
  0.22580010051707936    0.34869578205422    0.48005376435564195    0.5644016282939915    0.5644064908804035    
  0.4800586611307201    0.3487069079063764    0.2258040649752084    0.14161788089464447    0.09521299792416511    
  0.13069680490931104    0.09398119138241327    0.08316238632153283    0.09397974508192353    0.1306929923328792    
  0.205237991141984    0.3276017464511407    0.4800699635135632    0.6049566054528674    0.6508178673982878    
  0.6049320824398233    0.4800587797875396    0.32760991471537393    0.2052360609668998    0.13069680490931104    
  0.17411738312301925    0.11844134622115236    0.09477479816387961    0.094775856959472    0.11844105523581788    
  0.17411803985549143    0.27457998259490096    0.41848151535097095    0.5643979167670511    0.6507825192577896    
  0.6508179181620152    0.564406531821869    0.4184761461351204    0.2745843118062108    0.17411738312301925    
  0.212554814561494    0.14376733882588077    0.10877960347775699    0.09830381604919913    0.10878125879368719    
  0.14376683257485198    0.21255773829096486    0.32174525071171406    0.4551724819369825    0.5643979919120375    
  0.6049566174726368    0.5644016366240461    0.45515443024255103    0.32174562159070963    0.212554814561494    
  0.2283473099921932    0.16076278871885993    0.12094625127673336    0.10327929734177665    0.1032780210091133    
  0.12094556428070477    0.16076463598360657    0.22835316767192027    0.32174522979539183    0.4184814857717212    
  0.48006985031630856    0.4800537195763092    0.41846386470958835    0.3217490920189037    0.2283473099921932    
  0.212553457095057    0.16076355414111926    0.1259157851507039    0.10692350230400764    0.10105422034703372    
  0.10692461909749325    0.12591807039216682    0.16076463503756022    0.21255772344750493    0.2745800131036687    