#     DFTpy    
  CRYSTAL 
    
  PRIMVEC    
  1.2108715075796428    -2.0972909725654643    0.0    
  1.2108715075796428    2.0972909725654643    0.0    
  0.0    0.0    2.2792516431724135    
  PRIMCOORD    
  1    1    
  Si    0.0    0.0    0.0    
  BEGIN_BLOCK_DATAGRID_3D    
  3d_datagrid_density    
  BEGIN_DATAGRID_3D#0    
  11    11    11    
  0.0    0.0    0.0    
  1.2108715075796428    -2.0972909725654643    0.0    
  1.2108715075796428    2.0972909725654643    0.0    
  0.0    0.0    2.2792516431724135    
  0.04924915809832225    0.0953145481104823    0.2672747928900737    0.44210053444314146    0.46345076500151694    
  0.44661937158082515    0.46345087686107245    0.44210056341456627    0.2672747244929784    0.09531455483924538    
  0.04924915809832225    0.09531458574967418    0.09524212834803737    0.20991784106076503    0.3952478028000659    
  0.46448593868567906    0.44251037953301553    0.442565824881235    0.4644513588914329    0.39514670595000695    
  0.20996224584961176    0.09531458574967418    0.26727479758119826    0.20991787009744634    0.26747556433057745    
  0.39513909665197533    0.4599056117202997    0.4371694182287011    0.4170979264596955    0.4371428614611931    
  0.46005991629553483    0.39514672131911965    0.26727479758119826    0.4421005533047175    0.39524790060455756    
  0.3951391269798675    0.44197666945638353    0.4644268638362183    0.4373110024592873    0.40682125439371775    
  0.406873920209976    0.4371428640585943    0.4644513160175092    0.4421005533047175    0.46345076902352067    
  0.4644859989537022    0.4599056646020091    0.4644269412965823    0.46362614237387406    0.4425482768018272    
  0.4169667485558867    0.40682120252291554    0.4170978674957517    0.4425657711922649    0.46345076902352067    
  0.44661940845793663    0.44251033269725043    0.43716939879524075    0.4373110325276414    0.44254822330456867    
  0.4464315563521882    0.44254824384696506    0.43731101323552485    0.43716933823757687    0.4425102813213519    
  0.44661940845793663    0.46345078048336336    0.4425657957955235    0.4170978907832489    0.4068211659775116    
  0.41696667738395754    0.44254836313118895    0.46362604732832374    0.46442695290238195    0.459905657770568    
  0.46448595296161976    0.46345078048336336    0.44210058578923866    0.4644513419462807    0.43714276938735513    
  0.406873908728587    0.4068211518728125    0.4373110500421239    0.4644269780461051    0.4419766889931918    
  0.39513911873451274    0.39524782073023945    0.44210058578923866    0.2672747732375401    0.3951467716389817    
  0.46005991477943126    0.4371428057516542    0.4170977920527807    0.43716937932980643    0.459905661513578    
  0.3951391217863627    0.2674755522941888    0.20991784135260294    0.2672747732375401    0.09531457470093217    
  0.20996226578171928    0.3951467629343716    0.46445139976285466    0.4425657883056373    0.4425103895101636    
  0.46448602924508775    0.3952479326336995    0.2099178307669532    0.09524214559637277    0.09531457470093217    
  0.04924915809832225    0.0953145481104823    0.2672747928900737    0.44210053444314146    0.46345076500151694    
  0.44661937158082515    0.46345087686107245    0.44210056341456627    0.2672747244929784    0.09531455483924538    
  0.04924915809832225    0.09230519904196471    0.14714521159217864    0.31101558803219126    0.4397503216516689    
  0.43653297136675034    0.416116432787421    0.4365330340533224    0.4397503416682467    0.31101553084813555    
  0.14714520789742017    0.09230519904196471    0.14714521228367633    0.14703419376940283    0.2609367270009982    
  0.40967773912781114    0.44374984876315837    0.41302480733145086    0.41307847214786136    0.4437093108155288    
  0.40961672770476426    0.2609499390909137    0.14714521228367633    0.3110156115025811    0.26093668842949075    
  0.31122174328981733    0.4095897865664472    0.44278025085222666    0.4092157947026828    0.3878969851166034    
  0.4091990977845945    0.442887089178093    0.4096167735775652    0.3110156115025811    0.43975032651078594    
  0.4096778418440322    0.4095898392858838    0.4396253566396376    0.44370354948078555    0.4093187614556901    
  0.37800945519486995    0.3780466968872259    0.40919906718285104    0.4437093407830843    0.43975032651078594    
  0.436533017196913    0.44374995087167374    0.4427802559413707    0.4437035748623547    0.43669116932071755    
  0.4130565694677982    0.38780399004740096    0.37800937391364636    0.3878969148354536    0.4130784497593826    
  0.436533017196913    0.41611642082692907    0.4130247956018988    0.40921577093815936    0.409318779763236    
  0.41305650399551325    0.41595316059005133    0.4130565273448774    0.4093187836055676    0.4092157606784636    
  0.41302473140764107    0.41611642082692907    0.43653298483817043    0.4130784406771141    0.38789695553833087    
  0.37800930781223085    0.38780391054466    0.41305667315828326    0.4366910952818258    0.44370359085735195    
  0.4427802749927386    0.4437499434282018    0.43653298483817043    0.43975037177852744    0.44370938532732873    
  0.40919904559186343    0.37804666702811146    0.3780093144340833    0.40931882560352156    0.44370358815070493    
  0.4396253177938066    0.4095898349549923    0.40967781050228746    0.43975037177852744    0.31101554697198364    
  0.40961684262744325    0.44288711018284954    0.4091990439088554    0.38789691979487134    0.4092158002138323    
  0.4427803261902956    0.40958982863520194    0.3112216980158034    0.2609366646289792    0.31101554697198364    
  0.14714521867074834    0.26094998802215136    0.4096168021405646    0.4437093652389344    0.4130784456037492    
  0.4130248029270979    0.4437499671663063    0.4096778875849739    0.26093664685163415    0.14703417319804082    
  0.14714521867074834    0.09230519904196471    0.14714521159217864    0.31101558803219126    0.4397503216516689    
  0.43653297136675034    0.416116432787421    0.4365330340533224    0.4397503416682467    0.31101553084813555    
  0.14714520789742017    0.09230519904196471    0.26683067975048097    0.31551204032434615    0.40419073244818504    
  0.4181337622745864    0.3697623128667006    0.34396782928343694    0.36976241949191047    0.41813379585102384    
  0.40419068746150233    0.31551199247567574    0.26683067975048097    0.31551209681143344    0.31540412003566864    
  0.38377062874336226    0.42372040406224964    0.3872764096428405    0.3426963003526698    0.34272319569456133    
  0.3872530740321042    0.42370749169549876    0.38375540836716665    0.31551209681143344    0.4041908468352664    
  0.38377061501917475    0.4043145670451031    0.4236812199651132    0.39252955358089553    0.34139118961897624    
  0.319183361130412    0.3413867932074255    0.39256211960817744    0.4237075250986853    0.4041908468352664    
  0.418133819270061    0.42372048103593396    0.4236812746419635    0.41806811264328453    0.3872607030374659    
  0.3414228508501097    0.3104607390168271    0.3104702185148865    0.34138674486122145    0.3872531129523691    
  0.418133819270061    0.36976239672581723    0.3872765813249578    0.392529597554404    0.38726071995746936    
  0.3698317739989346    0.34271172198694944    0.31915281944981866    0.31046071731420416    0.31918329114883576    
  0.3427231601751631    0.36976239672581723    0.3439678444084077    0.3426962335369079    0.3413911373295738    
  0.3414228425513569    0.3427116334405336    0.34389479274137486    0.3427117169665826    0.34142283913896543    
  0.3413911041496357    0.3426962076736978    0.3439678444084077    0.36976236355232456    0.34272320320636285    
  0.3191833435029296    0.3104606725076882    0.31915272699631775    0.34271174585428843    0.3698318267269026    
  0.3872607265795802    0.3925295765844147    0.3872764973562849    0.36976236355232456    0.4181338344578049    
  0.38725312933763734    0.34138674814904735    0.3104701190281884    0.3104606369603453    0.34142290709413065    
  0.3872607610052423    0.41806811631013596    0.42368128927807897    0.4237204106494696    0.4181338344578049    
  0.404190720948528    0.42370764158136387    0.39256214668299616    0.3413867508168932    0.31918330127269584    
  0.3413911736594729    0.39252964209641494    0.42368123683331943    0.4043145512523007    0.38377055971682666    
  0.404190720948528    0.31551203324689747    0.3837554903530992    0.42370755817791944    0.38725313299200465    
  0.3427231440007078    0.34269629755198255    0.38727649812956455    0.42372046226763366    0.383770547677539    
  0.31540411275621616    0.31551203324689747    0.26683067975048097    0.31551204032434615    0.40419073244818504    
  0.4181337622745864    0.3697623128667006    0.34396782928343694    0.36976241949191047    0.41813379585102384    
  0.40419068746150233    0.31551199247567574    0.26683067975048097    0.5026479394053917    0.49700588383249994    
  0.4547377470015943    0.37040679858799064    0.295810959745207    0.2684703656884514    0.2958110338160478    
  0.37040681133620124    0.4547377289089153    0.49700585092080457    0.5026479394053917    0.4970059647160261    
  0.4969775762419088    0.4712498411041091    0.4014384184779225    0.31838164436906546    0.2683195292202205    
  0.26832290722289537    0.318378810860979    0.40143864038642113    0.47124081577659466    0.4970059647160261    
  0.4547377778962076    0.47124987972045285    0.45476161607037435    0.4014307980498537    0.3269678446872631    
  0.268308237114019    0.24729544408320622    0.26830788153070956    0.32696864407599824    0.40143869181704006    
  0.4547377778962076    0.37040685118955574    0.4014385025907889    0.40143083011505    0.370397462439662    
  0.31838074253292475    0.2683105374268074    0.23976564894839109    0.23976684686702435    0.26830785144394526    
  0.3183788589170544    0.37040685118955574    0.2958110498073618    0.31838178993107813    0.32696790285948557    
  0.31838074411678824    0.2958205211291553    0.26832140363318585    0.2472930265131631    0.23976563562387418    
  0.2472953785141406    0.26832291644520967    0.2958110498073618    0.2684703512142515    0.2683194996334903    
  0.2683081759696316    0.2683105233772462    0.2683213190461838    0.2684597546177513    0.2683214032880583    
  0.26831049991658923    0.26830817504282545    0.2683194633851624    0.2684703512142515    0.295810992438541    
  0.26832291417239224    0.2472954216456615    0.23976557259779027    0.2472929322168309    0.2683214205709228    
  0.2958205439309721    0.31838079467037933    0.3269678719358641    0.31838174855223367    0.295810992438541    
  0.3704068522349027    0.3183788544100213    0.26830784645705436    0.2397667657792905    0.2397655414226218    
  0.2683105350458456    0.31838082113226635    0.3703974698635922    0.40143086552005847    0.40143847734444194    
  0.3704068522349027    0.4547376925128114    0.40143873914549133    0.3269686393872499    0.2683078476272673    
  0.24729536994222454    0.26830821028049096    0.3269679157953182    0.4014308142285518    0.45476162566664335    
  0.47124979746787543    0.4547376925128114    0.4970058902588408    0.4712409213351738    0.40143870426951334    
  0.3183788716902404    0.2683228801532308    0.2683195099887174    0.3183817681880188    0.40143853512547595    
  0.4712497754968574    0.49697756550453503    0.4970058902588408    0.5026479394053917    0.49700588383249994    
  0.4547377470015943    0.37040679858799064    0.295810959745207    0.2684703656884514    0.2958110338160478    
  0.37040681133620124    0.4547377289089153    0.49700585092080457    0.5026479394053917    0.6001952110462209    
  0.5539416779609997    0.442161135452971    0.32299825990726233    0.24321736956695328    0.21687665169166637    
  0.24321742802634708    0.322998259145952    0.4421610591557371    0.5539416400302931    0.6001952110462209    
  0.5539416457048627    0.5539362382194732    0.47530849607207015    0.361855311398513    0.2665524898234011    
  0.21732780107143013    0.21732780528522933    0.2665531678219764    0.36185446104934527    0.4753077999176237    
  0.5539416457048627    0.4421611498813571    0.4753084880523158    0.44216630085139297    0.36185458989478336    
  0.2760151903898973    0.21791315277676349    0.19844561326655522    0.21791245127665393    0.27601542681328106    
  0.36185451353195114    0.4421611498813571    0.3229982931749202    0.3618554144810913    0.3618546597507706    
  0.32299537432302017    0.2665517112147394    0.2179139996242132    0.19160826600711778    0.19160952605831336    
  0.21791244040496266    0.26655318884756607    0.3229982931749202    0.24321739235283413    0.26655258870115073    
  0.27601521154154457    0.2665516972348289    0.24322190490712467    0.21732811582823927    0.19844490057940314    
  0.1916082227794854    0.1984455496615302    0.2173277831811207    0.24321739235283413    0.21687663771280835    
  0.21732772943519008    0.21791315681635443    0.21791401708203773    0.21732806726728426    0.2168720428278836    
  0.2173281083282619    0.2179140056307218    0.2179131403869737    0.21732774234733673    0.21687663771280835    
  0.24321741034077943    0.21732777849566082    0.19844558118018307    0.19160822068027145    0.19844485971764073    
  0.21732816115935258    0.24322188452739646    0.26655173275132943    0.2760151982300938    0.26655259851846064    
  0.24321741034077943    0.32299829825521226    0.26655317074441187    0.21791242421181825    0.19160949549055828    
  0.19160820517229166    0.21791403393190964    0.2665517519980557    0.322995360504336    0.36185463260447037    
  0.36185536679878055    0.32299829825521226    0.44216108339073545    0.3618545704975894    0.27601548532528597    
  0.21791239631608447    0.19844557715571745    0.21791314548289656    0.276015255350746    0.36185465596291    
  0.442166271119312    0.4753084285537616    0.44216108339073545    0.5539416886220775    0.47530786035475386    
  0.36185452528410667    0.26655318100654435    0.21732776758716948    0.21732777876733034    0.26655256419436746    
  0.36185540166115476    0.4753084200594623    0.553936149678236    0.5539416886220775    0.6001952110462209    
  0.5539416779609997    0.442161135452971    0.32299825990726233    0.24321736956695328    0.21687665169166637    
  0.24321742802634708    0.322998259145952    0.4421610591557371    0.5539416400302931    0.6001952110462209    
  0.6066328337375664    0.5516095486846426    0.42727786379640703    0.30394098680793097    0.22477807063442057    
  0.19915711556710936    0.22477814080440314    0.3039409934922033    0.4272777858658838    0.5516094998687311    
  0.6066328337375664    0.5516096231467019    0.5515987595066796    0.46312072635334617    0.3435807305529567    
  0.24796353867721785    0.19985914638062907    0.19985812159494684    0.24796434444505774    0.34358118572909935    
  0.46311744408583544    0.5516096231467019    0.4272778488729634    0.4631207731336709    0.4272848094938391    
  0.34357983622646104    0.2575620154467251    0.2006937151689473    0.18186639773092336    0.2006943038148038    
  0.25756057690007195    0.3435811955592164    0.4272778488729634    0.303940990040654    0.34358083205876655    
  0.343579867218998    0.3039379635260477    0.24796128894452746    0.20069806016027236    0.17525743404301564    
  0.1752607571876304    0.20069427615308755    0.24796434273426152    0.303940990040654    0.22477807700091754    
  0.24796357067977015    0.2575620484029921    0.24796132820241312    0.22478569862383768    0.19985620935607107    
  0.18186676093701853    0.1752573928357463    0.18186635396256734    0.19985809531407203    0.22477807700091754    
  0.19915712651100587    0.19985909456695644    0.2006937112998246    0.20069808761476393    0.19985618458082932    
  0.19915521170563208    0.19985622395388658    0.20069806830806305    0.20069365983212092    0.19985909530158347    
  0.19915712651100587    0.2247780957263105    0.19985809832278278    0.1818663731925024    0.17525737601616215    
  0.18186670903318727    0.1998562677820728    0.22478564011382868    0.24796134109038387    0.25756204992530807    
  0.24796357844367373    0.2247780957263105    0.30394102255272254    0.24796434969430298    0.20069423935314054    
  0.17526074710035902    0.1752573575358471    0.200698083669463    0.2479613901246323    0.3039379821088545    
  0.34357986858826733    0.34358074920382936    0.30394102255272254    0.4272778261922989    0.3435812317266635    
  0.25756060236314754    0.2006942347703508    0.18186632010338927    0.20069369025473038    0.2575620561096505    
  0.3435798650686184    0.42728482613918156    0.46312069723745825    0.4272778261922989    0.5516095754758923    
  0.46311749720332634    0.3435812170139739    0.2479643974403243    0.19985810414540595    0.19985914211869277    
  0.2479636132881791    0.3435808304093544    0.46312069132175565    0.5515987332182052    0.5516095754758923    
  0.6066328337375664    0.5516095486846426    0.42727786379640703    0.30394098680793097    0.22477807063442057    
  0.19915711556710936    0.22477814080440314    0.3039409934922033    0.4272777858658838    0.5516094998687311    
  0.6066328337375664    0.6001952119232219    0.5539416704554333    0.4421611352250674    0.3229982842230956    
  0.2432173640795843    0.21687666358009058    0.24321741105439637    0.3229982840716202    0.44216106708409436    
  0.5539416463442949    0.6001952119232219    0.5539416602005218    0.5539362566465756    0.4753085391183502    
  0.36185529422274937    0.26655249890096083    0.21732778656289084    0.2173278035823423    0.26655313157435945    
  0.36185446869440613    0.47530780483210494    0.5539416602005218    0.4421611712696039    0.4753084862423117    
  0.4421662751972292    0.361854595187344    0.27601521475459234    0.21791316644049963    0.19844559080760493    
  0.21791243599542298    0.27601543031089576    0.36185451846080263    0.4421611712696039    0.32299828440188705    
  0.36185538210577484    0.36185463879244173    0.32299540857685977    0.2665516988906248    0.2179139910681776    
  0.1916082899228945    0.19160952940012568    0.217912406425163    0.26655315195823165    0.32299828440188705    
  0.24321738930192727    0.2665525767492606    0.2760152030011421    0.26655171156632473    0.2432219134963772    
  0.217328108219162    0.19844491268519712    0.19160822971534994    0.19844552608884866    0.21732779963259416    
  0.24321738930192727    0.21687665758313127    0.21732774885932488    0.217913141625656    0.21791400244438636    
  0.21732805994529514    0.21687206881118928    0.2173280921321969    0.21791401650782205    0.21791313931763018    
  0.21732773332484123    0.21687665758313127    0.24321739700961229    0.21732778696407773    0.19844557006436025    
  0.191608194968639    0.19844484572161167    0.2173281621598343    0.2432218867946428    0.26655173312351005    
  0.276015213732363    0.26655258343910443    0.24321739700961229    0.3229983266630328    0.26655318448353527    
  0.2179124273073575    0.19160951624119651    0.19160819786578379    0.21791403742527082    0.2665517553650116    
  0.3229953741509575    0.36185464575146875    0.3618553586002097    0.3229983266630328    0.4421610706980085    
  0.36185456270629957    0.2760154787281452    0.21791240583215699    0.19844555079788645    0.2179131716920014    
  0.27601528821756344    0.36185463045769917    0.4421662559742232    0.4753084238287888    0.4421610706980085    
  0.5539416926207905    0.475307873689746    0.36185453695890496    0.26655316337320906    0.21732778173626982    
  0.2173277733099619    0.26655257626955914    0.36185542511295965    0.47530842395159845    0.5539361621730385    
  0.5539416926207905    0.6001952119232219    0.5539416704554333    0.4421611352250674    0.3229982842230956    
  0.2432173640795843    0.21687666358009058    0.24321741105439637    0.3229982840716202    0.44216106708409436    
  0.5539416463442949    0.6001952119232219    0.502647924644518    0.49700588424265507    0.4547377360772991    
  0.3704068010419389    0.2958109630713313    0.2684703583728394    0.29581105619504056    0.370406831393498    
  0.45473768519669244    0.4970058620754078    0.502647924644518    0.4970059610736173    0.49697759031547495    
  0.47124989324837485    0.40143843329508583    0.31838165215483394    0.2683195513320241    0.26832293098265503    
  0.3183788125229772    0.4014386396182367    0.47124085234781216    0.4970059610736173    0.4547378444474867    
  0.4712498729442733    0.45476164382139606    0.4014308007159838    0.32696783130839663    0.268308250862724    
  0.24729543950421828    0.2683078894668565    0.3269685965896495    0.40143867186512344    0.4547378444474867    
  0.3704068417006903    0.40143851311385986    0.40143084448965305    0.37039746356615816    0.31838073551082197    
  0.2683105122175121    0.2397656372084241    0.23976685646629398    0.26830783388090823    0.31837885822197576    
  0.3704068417006903    0.2958110129492878    0.31838180653105236    0.32696787983675407    0.3183807623308654    
  0.2958204892164363    0.2683213992073651    0.24729301420006256    0.23976561254377957    0.24729536513621744    
  0.26832288950566674    0.2958110129492878    0.2684703652102575    0.2683194819354276    0.26830818856480737    
  0.26831049592114464    0.2683213169349912    0.26845976980774694    0.2683214008852653    0.2683105093212335    
  0.2683081529915281    0.26831947283602114    0.2684703652102575    0.2958110146214077    0.26832292834108395    
  0.24729542622764683    0.23976558056430042    0.2472929429339985    0.26832142338385756    0.2958205538814381    
  0.31838076626047673    0.326967883099483    0.318381728440301    0.2958110146214077    0.3704068745269654    
  0.31837885657829407    0.2683078588601347    0.2397667762730389    0.23976555308839972    0.2683105472256356    
  0.31838080062226515    0.37039748776851733    0.4014308761019405    0.40143846393841165    0.3704068745269654    
  0.4547377156891793    0.40143877718663235    0.3269686551133047    0.26830785541471963    0.2472953907344647    
  0.26830822719685565    0.32696792786717194    0.40143082801061675    0.4547616508970413    0.47124979807581335    
  0.4547377156891793    0.497005905250802    0.47124093867765526    0.401438705123586    0.3183788659295777    
  0.26832287981880715    0.2683195425333564    0.3183817453114752    0.4014384935693216    0.4712497821248926    
  0.4969775705350147    0.497005905250802    0.502647924644518    0.49700588424265507    0.4547377360772991    
  0.3704068010419389    0.2958109630713313    0.2684703583728394    0.29581105619504056    0.370406831393498    
  0.45473768519669244    0.4970058620754078    0.502647924644518    0.26683066536173405    0.31551202216914853    
  0.40419076217312633    0.4181337741833297    0.36976231421282363    0.343967845466269    0.3697623942311384    
  0.41813377986171396    0.4041907354745595    0.3155120151923796    0.26683066536173405    0.3155120835480779    
  0.3154040972839815    0.3837705775742951    0.4237203961473028    0.3872763845462468    0.3426962885671575    
  0.3427231684037706    0.38725306921635305    0.42370748870526875    0.3837554022724917    0.3155120835480779    
  0.4041907848837537    0.3837706332378536    0.40431453914364396    0.42368121474902215    0.3925295623759111    
  0.34139118624711423    0.31918336091436744    0.3413867717292773    0.3925621484226125    0.42370751630970843    
  0.4041907848837537    0.41813381812662637    0.4237204807478844    0.4236812468568328    0.4180681135892502    
  0.38726068435032784    0.3414228816595431    0.3104607360325748    0.31047018927408165    0.34138674270328295    
  0.3872531027589777    0.41813381812662637    0.36976239453495013    0.3872765520150727    0.39252961832503036    
  0.3872607038923174    0.3698317901102143    0.34271172679947937    0.3191528178547289    0.3104607160229444    
  0.3191832781859436    0.3427231863523751    0.36976239453495013    0.3439678316276123    0.3426962644658821    
  0.34139110440233167    0.3414228681511841    0.3427116373671665    0.3438947827787022    0.34271170254844635    
  0.34142284944563867    0.34139111476315753    0.3426962019088014    0.3439678316276123    0.36976237059668604    
  0.34272319292739345    0.3191833342011168    0.3104606804029805    0.31915272434148206    0.3427117541378808    
  0.3698318345842808    0.3872607584993458    0.39252958819432787    0.3872765036491303    0.36976237059668604    
  0.41813383513436675    0.38725312284421726    0.341386757204932    0.31047010345356263    0.31046064842948795    
  0.341422891629802    0.3872607869905588    0.4180681290818188    0.4236812935011595    0.42372046768607347    
  0.41813383513436675    0.40419069435662053    0.42370759258875856    0.3925621633489888    0.34138675795710854    
  0.31918327999770013    0.3413911627810253    0.3925296479669226    0.4236812488002911    0.4043145607309438    
  0.38377057354373645    0.40419069435662053    0.3155120334158403    0.383755464052676    0.4237075612371226    
  0.38725313575858067    0.3427231510380773    0.3426962690084697    0.3872765277175772    0.4237205372348946    
  0.3837705543764058    0.3154041004662668    0.3155120334158403    0.26683066536173405    0.31551202216914853    
  0.40419076217312633    0.4181337741833297    0.36976231421282363    0.343967845466269    0.3697623942311384    
  0.41813377986171396    0.4041907354745595    0.3155120151923796    0.26683066536173405    0.0923052120044906    
  0.1471452094418419    0.31101558811917834    0.43975030484177147    0.4365329671811966    0.4161164248784034    
  0.4365330682265011    0.439750328618431    0.3110155337861957    0.14714521922666174    0.0923052120044906    
  0.14714520949016408    0.1470341975592808    0.2609366861658853    0.4096777647779413    0.443749837926847    
  0.4130248521965536    0.4130784777226329    0.44370937225073737    0.40961670902397856    0.2609499568137434    
  0.14714520949016408    0.31101559804633977    0.2609366867327158    0.3112217475436578    0.4095897944804806    
  0.44278022146990476    0.4092157796278077    0.3878970123785713    0.40919909508180075    0.44288706439375997    
  0.40961677214589215    0.31101559804633977    0.43975032502640393    0.4096778540788653    0.40958984003735216    
  0.43962531509962377    0.4437035507021542    0.4093187734151024    0.37800940421828827    0.3780466783040005    
  0.4091990980738069    0.44370936388441434    0.43975032502640393    0.43653299286617525    0.4437499728509907    
  0.44278027828173183    0.4437035420037333    0.43669114257261366    0.41305658682978635    0.38780396420412394    
  0.3780093451957868    0.3878969351314648    0.41307845013066274    0.43653299286617525    0.41611641064694843    
  0.41302475292033963    0.4092157747465186    0.40931879537914884    0.41305650884535267    0.4159531232604804    
  0.41305655515396944    0.4093187746475987    0.4092157564660874    0.4130247371959611    0.41611641064694843    
  0.4365330125797332    0.413078445575749    0.3878969761994903    0.3780093381089091    0.38780392878393505    
  0.41305666096521104    0.43669109829962677    0.44370360174928086    0.4427802684389795    0.4437499644156582    
  0.4365330125797332    0.43975036116977484    0.44370937675227734    0.4091990643063736    0.3780466505961781    
  0.3780093437502037    0.40931883142205083    0.4437036106368866    0.4396253106709108    0.4095898324973401    
  0.40967782625530685    0.43975036116977484    0.3110155629345089    0.4096168430703736    0.4428871435341279    
  0.4091990470958107    0.38789696065101453    0.409215772256766    0.4427803260041297    0.40958985252210317    
  0.3112217170905806    0.2609366664749818    0.3110155629345089    0.14714522368470392    0.26094997317613383    
  0.4096167988702023    0.4437093780051785    0.41307843227367563    0.41302480638833844    0.4437499497677755    
  0.4096778755715518    0.2609366586437046    0.14703418305051644    0.14714522368470392    0.0923052120044906    
  0.1471452094418419    0.31101558811917834    0.43975030484177147    0.4365329671811966    0.4161164248784034    
  0.4365330682265011    0.439750328618431    0.3110155337861957    0.14714521922666174    0.0923052120044906    
  0.04924915809832225    0.0953145481104823    0.2672747928900737    0.44210053444314146    0.46345076500151694    
  0.44661937158082515    0.46345087686107245    0.44210056341456627    0.2672747244929784    0.09531455483924538    
  0.04924915809832225    0.09531458574967418    0.09524212834803737    0.20991784106076503    0.3952478028000659    
  0.46448593868567906    0.44251037953301553    0.442565824881235    0.4644513588914329    0.39514670595000695    
  0.20996224584961176    0.09531458574967418    0.26727479758119826    0.20991787009744634    0.26747556433057745    
  0.39513909665197533    0.4599056117202997    0.4371694182287011    0.4170979264596955    0.4371428614611931    
  0.46005991629553483    0.39514672131911965    0.26727479758119826    0.4421005533047175    0.39524790060455756    
  0.3951391269798675    0.44197666945638353    0.4644268638362183    0.4373110024592873    0.40682125439371775    
  0.406873920209976    0.4371428640585943    0.4644513160175092    0.4421005533047175    0.46345076902352067    
  0.4644859989537022    0.4599056646020091    0.4644269412965823    0.46362614237387406    0.4425482768018272    
  0.4169667485558867    0.40682120252291554    0.4170978674957517    0.4425657711922649    0.46345076902352067    
  0.44661940845793663    0.44251033269725043    0.43716939879524075    0.4373110325276414    0.44254822330456867    
  0.4464315563521882    0.44254824384696506    0.43731101323552485    0.43716933823757687    0.4425102813213519    