#     DFTpy    
  CRYSTAL 
    
  PRIMVEC    
  4.644137931034483    0.0    0.0    
  0.0    4.644137931034483    0.0    
  0.0    0.0    2.558620689655172    
  PRIMCOORD    
  4    1    
  Si    0.0    0.0    0.0    
  Si    2.3220689655172415    2.3220689655172415    1.279310344827586    
  Si    0.0    2.3220689655172415    0.639655172413793    
  Si    2.3220689655172415    0.0    1.9189655172413789    
  BEGIN_BLOCK_DATAGRID_3D    
  3d_datagrid_density    
  BEGIN_DATAGRID_3D#0    
  21    21    11    
  0.0    0.0    0.0    
  4.644137931034483    0.0    0.0    
  0.0    4.644137931034483    0.0    
  0.0    0.0    2.558620689655172    
  0.05157846928716899    0.09538828732530036    0.26013990322970804    0.4423377148373807    0.4708218720665098    
  0.43256960636254704    0.42103677710102555    0.434467629050813    0.4303427256259276    0.39410512806781633    
  0.3713481616877309    0.39410506128839023    0.4303428927557471    0.4344676483280022    0.4210368348232432    
  0.4325695622142261    0.47082191444589067    0.4423377486778602    0.26013993689534454    0.09538827038194021    
  0.05157846928716899    0.09538827067328352    0.1470000348845676    0.3043698160912553    0.44089679348285493    
  0.4421036624946756    0.400352463752765    0.38963986426121255    0.40633520860726496    0.41430297079348843    
  0.39519598431944486    0.3801166811386233    0.3951960332247807    0.4143030479098258    0.4063353070612376    
  0.38963986982227206    0.4003524260936824    0.44210368283620594    0.44089679554478983    0.3043698756604322    
  0.14699999642463082    0.09538827067328352    0.2601398816685835    0.3043699045330564    0.39096599634793594    
  0.41509892554170785    0.36829123440820244    0.3234088348508116    0.3146010338287614    0.33556296481622544    
  0.36340518688241424    0.37641755034860663    0.3772267051457826    0.3764175805029212    0.36340510218727035    
  0.33556298294494624    0.3146009792681096    0.3234088183673711    0.36829132570505285    0.41509891527257153    
  0.39096598257417664    0.3043698011683619    0.2601398816685835    0.44233767977782107    0.4408967849590703    
  0.41509886148092784    0.3510033823649079    0.28196062893810186    0.24063803786350485    0.23371595062307896    
  0.2543952056602528    0.28946079423354915    0.3194457285479108    0.3302686084357773    0.31944565871456554    
  0.28946080346261477    0.25439524909462863    0.23371590295576436    0.24063802289611852    0.2819606596607608    
  0.3510033304821935    0.41509899544085865    0.4408968141068582    0.44233767977782107    0.4708219511709277    
  0.44210370327204    0.36829132169495893    0.2819606842457447    0.21506759048189944    0.17976232051994145    
  0.17398586388079684    0.19185033326715076    0.22395302327229405    0.25466322755806425    0.2672722739613576    
  0.25466320683673926    0.22395298246839243    0.19185035177248222    0.17398589191584005    0.1797622865917523    
  0.2150675378354562    0.2819606598440996    0.3682913848544267    0.44210366693749864    0.4708219511709277    
  0.4325695945880958    0.4003524453674391    0.3234088155611664    0.24063812810988386    0.1797622683345624    
  0.14815344524821156    0.14283265241600931    0.15873027306811321    0.1874913373273723    0.21572731063780498    
  0.22780850691359264    0.21572735473433893    0.18749136112577086    0.15873026971009477    0.1428326619724639    
  0.14815344296034158    0.179762244744763    0.2406380825774636    0.3234088895954238    0.40035233409848175    
  0.4325695945880958    0.4210367780548014    0.3896399626140059    0.3146009194118441    0.23371598000282978    
  0.17398591190213453    0.14283267938422892    0.1375578417058562    0.15332553338784508    0.18203324753202413    
  0.21041935986940333    0.22263699422765207    0.21041932500408358    0.18203314758953307    0.15332555185977062    
  0.13755784058721943    0.14283263895452347    0.17398585711454267    0.2337159243845848    0.31460101519579553    
  0.3896397765861424    0.4210367780548014    0.43446748999095336    0.40633519412238345    0.33556290434796093    
  0.25439522640378465    0.19185024877872156    0.1587302484707139    0.15332553602320226    0.17066125044540256    
  0.20252827564206186    0.23413382676044564    0.24758422477157113    0.2341338749197435    0.2025282087253674    
  0.17066132809857626    0.15332555452839333    0.15873022906268866    0.19185031364475527    0.2543951709330278    
  0.3355629049822861    0.4063352005057179    0.43446748999095336    0.43034283653440225    0.4143029984374727    
  0.3634051730564746    0.28946086151333134    0.22395293725779433    0.18749131581532735    0.18203319687488542    
  0.20252820238353728    0.23990406437183934    0.276807780520924    0.2922828467210068    0.27680780267909544    
  0.23990399179402352    0.20252828950439705    0.1820331999396616    0.1874913184469726    0.22395297383516838    
  0.28946084685430684    0.3634052995294422    0.41430295478385293    0.43034283653440225    0.39410515440663024    
  0.3951960782301616    0.37641765667633964    0.3194457534177203    0.25466317665868293    0.21572732856151933    
  0.21041933232651436    0.23413394347056096    0.27680790113673753    0.3187417138309957    0.3362244386756394    
  0.3187416117542188    0.2768078236939054    0.23413398840286948    0.21041932979590391    0.21572732616007628    
  0.2546631471727085    0.31944578271893476    0.37641775845741615    0.39519595138381064    0.39410515440663024    
  0.3713480753574762    0.38011660617310666    0.37722673639297516    0.3302687794726438    0.26727216142096494    
  0.2278084806763697    0.22263704717106922    0.2475843401033368    0.2922829185688127    0.3362243692347109    
  0.35455215517250116    0.3362243512910767    0.29228297856599506    0.24758425975565904    0.2226370202264061    
  0.22780841473111685    0.26727219812233277    0.3302687818234343    0.37722683507617905    0.3801165739080206    
  0.3713480753574762    0.39410506960750236    0.39519603642116086    0.3764176303460461    0.3194457415592092    
  0.2546631898282907    0.21572732647014606    0.21041930773560466    0.23413392003759834    0.27680790460171495    
  0.3187416073079454    0.3362244775470799    0.3187416447828028    0.27680784466101105    0.23413399771104867    
  0.2104193232857349    0.21572725772051266    0.2546632040688089    0.31944569421497465    0.37641768104358186    
  0.39519603451266727    0.39410506960750236    0.43034278189244485    0.4143029835881361    0.36340522113830775    
  0.2894609420307864    0.2239529749507015    0.18749130552772691    0.18203317853067238    0.2025282576552409    
  0.2399040405581672    0.27680777327706496    0.2922828742704844    0.2768077618848197    0.23990391965307048    
  0.20252830395854837    0.18203315670125064    0.18749132831142    0.22395303166528377    0.2894608193430812    
  0.3634052379887005    0.414302939894327    0.43034278189244485    0.43446766211216475    0.406335203663615    
  0.3355629538493164    0.25439524231454663    0.19185029211801619    0.15873023628349012    0.15332552835838814    
  0.17066129085985798    0.20252823122251995    0.234133847829172    0.2475842140349546    0.2341338803137455    
  0.20252825994503987    0.17066129562635377    0.15332548807187557    0.1587302330994391    0.19185033042439656    
  0.2543952343201861    0.33556296162545196    0.40633514497968326    0.43446766211216475    0.42103682779902263    
  0.38963986081250357    0.3146009727233748    0.23371594466259168    0.17398588104006285    0.1428326522874873    
  0.13755782832305516    0.15332555466276884    0.18203318155642223    0.21041937068140093    0.2226370575403302    
  0.21041933532771093    0.18203316028246735    0.1533255123896707    0.13755782923876422    0.14283265645482918    
  0.1739859044670965    0.23371596285389948    0.3146010485514294    0.3896398415162047    0.42103682779902263    
  0.4325695943331003    0.40035244932190667    0.3234088399075789    0.24063810224514137    0.179762263097962    
  0.14815345353748335    0.14283266752722443    0.15873026589200465    0.18749132164306367    0.21572735637510324    
  0.22780849938115466    0.21572734282324843    0.1874913759927277    0.15873024861184123    0.14283266093823888    
  0.14815344472230785    0.17976229241525699    0.24063807882092658    0.32340892229247226    0.40035243583746355    
  0.4325695943331003    0.47082202040750853    0.44210372621547916    0.3682913061886628    0.2819606734999871    
  0.21506765235556138    0.17976232218503027    0.17398590134089642    0.19185029623228653    0.22395300277383828    
  0.25466318391245885    0.26727220998102924    0.2546631665054407    0.22395297679429402    0.1918503449693954    
  0.17398587548955616    0.1797622872079355    0.21506760348716822    0.28196067953037107    0.3682913996629745    
  0.44210366771632886    0.47082202040750853    0.4423375972013605    0.4408968494554991    0.4150988124298657    
  0.3510033883392954    0.28196063019338485    0.2406380362116759    0.233715950269184    0.2543952062089399    
  0.28946084722262566    0.3194456618358367    0.33026864441282705    0.3194456779649433    0.2894607985496615    
  0.2543952771238787    0.23371595584798066    0.24063802737284584    0.28196066990796237    0.3510032814256651    
  0.41509878278817885    0.44089674828654324    0.4423375972013605    0.2601399345193048    0.304369824686002    
  0.3909659459217348    0.4150989109610731    0.36829122652328555    0.32340884206386933    0.3146009584941997    
  0.3355628992339956    0.3634051612839431    0.3764176965264474    0.3772267307258185    0.37641756144170035    
  0.3634052037279865    0.335562935844835    0.314600995974593    0.3234088379480373    0.3682913059390511    
  0.415098900424594    0.39096605742434654    0.304369813453426    0.2601399345193048    0.09538832970932395    
  0.1470000090035085    0.3043698381440161    0.4408968619699103    0.4421036746060059    0.4003524670458563    
  0.38963987195227173    0.4063351856434293    0.4143031085034421    0.3951960184990771    0.3801166061616786    
  0.395195988886363    0.41430300885031895    0.4063351669455514    0.3896398099654681    0.40035249569487047    
  0.4421036590291559    0.4408968473177583    0.30436988653293356    0.14700000163238605    0.09538832970932395    
  0.05157846928716899    0.09538828732530036    0.26013990322970804    0.4423377148373807    0.4708218720665098    
  0.43256960636254704    0.42103677710102555    0.434467629050813    0.4303427256259276    0.39410512806781633    
  0.3713481616877309    0.39410506128839023    0.4303428927557471    0.4344676483280022    0.4210368348232432    
  0.4325695622142261    0.47082191444589067    0.4423377486778602    0.26013993689534454    0.09538827038194021    
  0.05157846928716899    0.10332559835893013    0.15340658476155608    0.2973769074525674    0.40776765674960475    
  0.39144191637008025    0.34054510157470974    0.32150009885499886    0.3378084753230164    0.37106034312720304    
  0.39886830422941955    0.40861959872602976    0.3988681998921209    0.37106038461409124    0.337808445807021    
  0.3215001393199806    0.3405449874080953    0.39144195792155095    0.4077676813215787    0.29737690503235326    
  0.15340659945940832    0.10332559835893013    0.1578879170943311    0.20906084685718024    0.33403298435705964    
  0.4049546637393225    0.3702091430147841    0.317881560281703    0.2994185856325034    0.31511483246326893    
  0.3483545295784505    0.37768043633034215    0.388438688189683    0.3776804750699092    0.3483545349945094    
  0.31511492393725726    0.2994185893729711    0.3178815061680613    0.3702091222656541    0.40495463190633724    
  0.3340330488917194    0.20906085157215104    0.1578879170943311    0.3251919607253763    0.3558903173405977    
  0.400778991985041    0.3818953374678279    0.31591794691906977    0.26377518686893514    0.24707258080292419    
  0.26085549344733333    0.2922998898720858    0.3225630241401123    0.3344806349099337    0.32256303250473173    
  0.2922997918988164    0.26085554791209375    0.2470725577951505    0.2637751611021631    0.3159180217909919    
  0.38189521676539423    0.40077905186209906    0.35589017478538165    0.3251919607253763    0.48074911793446923    
  0.46733620243677326    0.41623263923188664    0.33225193379500806    0.253326145576715    0.205745395107093    
  0.19130275370750663    0.20278764831567347    0.23007097632194054    0.2575731516080926    0.2689227135007329    
  0.25757311475923916    0.23007095918451828    0.20278771843159032    0.19130274317882373    0.20574539564537017    
  0.25332620929649363    0.33225192976650514    0.41623275497531503    0.46733617553118845    0.48074911793446923    
  0.5055462434881486    0.47011139501051097    0.38210971318865367    0.2829105627403507    0.2069563654621841    
  0.1646645379734678    0.15199385077032604    0.16187646875103937    0.18515794625037962    0.20881426308327378    
  0.21885642992219623    0.20881430111979943    0.18515788916942252    0.16187645757351898    0.15199387164850353    
  0.1646644997156627    0.2069563345701714    0.28291055957910827    0.38210974602394443    0.47011130423933567    
  0.5055462434881486    0.4874225345066398    0.4489304545487686    0.3576176385483646    0.2601307874407488    
  0.18796153898386525    0.14818217279037654    0.13624416935686343    0.14549893656191012    0.1670406643859139    
  0.18893737470506258    0.19836881307969914    0.18893733318217695    0.16704065195579895    0.14549893871288694    
  0.1362441756092961    0.14818213400077543    0.18796155222359268    0.26013074435752687    0.35761771931601977    
  0.44893037945691816    0.4874225345066398    0.49491182906637354    0.45851048333057265    0.3697537785925008    
  0.27179627682840185    0.19768075932443935    0.156515438944369    0.14415578496475678    0.15377004282046017    
  0.1764348370546848    0.19963256314750638    0.2095988854403178    0.1996325414426017    0.1764347603813342    
  0.1537701022359916    0.14415578696638706    0.15651542391601167    0.19768070501532545    0.2717962134135132    
  0.3697538527277087    0.4585102460280402    0.49491182906637354    0.48574456342720207    0.46447766349100833    
  0.3999691050703668    0.31056844384434995    0.23304076045149374    0.1876570758714213    0.17401226113608298    
  0.18508013099252285    0.21142713222440487    0.23851752494276363    0.24998123542249856    0.23851758958424915    
  0.2114271099933874    0.1850802248196553    0.17401226738959225    0.18765707709401303    0.233040771854524    
  0.31056839574369055    0.399969106103256    0.46447764455990237    0.48574456342720207    0.37950923086396154    
  0.3945653162542282    0.4020278834191407    0.35547162845693286    0.2837427698912851    0.23380582563317068    
  0.2185339191317573    0.23220162521219692    0.2637786840775539    0.2957644208849696    0.3090507331207724    
  0.2957645020592666    0.26377859765477785    0.2322017150728487    0.21853390758965918    0.23380586186371666    
  0.2837428004365038    0.3554716912735055    0.40202806410319325    0.39456527393448265    0.37950923086396154    
  0.236574158141285    0.2793924401438037    0.3630768368809432    0.3822046341690759    0.3289351197723481    
  0.27733092007159293    0.2607805525259559    0.2770386293524552    0.31292481836390107    0.3483765796894694    
  0.36290173583726804    0.3483765411655638    0.3129247291894862    0.27703866742167094    0.26078053689510866    
  0.2773309161172802    0.32893502504322025    0.3822046770271692    0.36307696232914133    0.27939235169926263    
  0.236574158141285    0.18007542417022815    0.22839630603978434    0.3378465366319352    0.38844012019660706    
  0.3468765365116142    0.2956721150087148    0.2787040672110445    0.2959315577275448    0.33327973305771325    
  0.3697525897993891    0.3846359859266312    0.36975249895306506    0.33327981328961165    0.29593145544051164    
  0.27870411583227217    0.295672101455594    0.34687646176526615    0.38844009489728343    0.337846640722395    
  0.22839632325039674    0.18007542417022815    0.2365741280776352    0.2793924332474726    0.3630767801901062    
  0.3822046346772527    0.3289351237272497    0.2773309089466654    0.2607805210278843    0.27703860418502096    
  0.3129248389973237    0.34837648984344566    0.36290177661617207    0.348376508177211    0.3129247141137956    
  0.27703870439123796    0.2607805023361968    0.2773308525505515    0.3289351063795644    0.3822045656676011    
  0.3630769108258076    0.27939241767684914    0.2365741280776352    0.37950921484164124    0.3945653242169423    
  0.4020279931347627    0.3554716910205283    0.28374278050857094    0.23380582433191185    0.21853388453461692    
  0.2322016888675333    0.26377867323730053    0.2957644402599182    0.3090507572897967    0.29576443529554425    
  0.2637785474340976    0.232201756451074    0.2185338799613741    0.23380583580836614    0.28374281419641445    
  0.3554716229133882    0.4020279894634195    0.39456530992003314    0.37950921484164124    0.48574463990277716    
  0.4644776639492611    0.3999691339328805    0.31056843775425763    0.2330407527821255    0.1876570781599388    
  0.17401230781560423    0.1850801442917832    0.21142706539957923    0.23851754194525224    0.24998123193562208    
  0.2385175539178205    0.21142710865025477    0.18508015022202648    0.17401227877905964    0.18765709154432889    
  0.23304078668701061    0.31056842987762834    0.3999692215256065    0.4644776135669212    0.48574463990277716    
  0.4949118486982697    0.4585103860384324    0.36975374240837766    0.2717962326761525    0.19768073813231277    
  0.15651541598484583    0.14415580739367095    0.1537700667770632    0.1764348175223847    0.19963255007361996    
  0.20959896287785845    0.19963253265646005    0.17643479453059915    0.15377011323922432    0.1441557911541703    
  0.15651540958659213    0.19768074446263775    0.271796247492817    0.3697538808128518    0.4585103226405622    
  0.4949118486982697    0.48742259346559447    0.4489304429202126    0.3576176705703385    0.2601307583124749    
  0.1879615645989673    0.1481821997409403    0.1362441872820926    0.14549891342822216    0.1670406237361299    
  0.18893737164847962    0.1983687727830652    0.18893735076300502    0.16704065081024413    0.14549893599001454    
  0.13624415354179348    0.14818214226268991    0.18796153211854558    0.2601307336960819    0.35761769442176317    
  0.44893042670918165    0.48742259346559447    0.5055463352084881    0.4701113755442512    0.3821096684302326    
  0.28291055146158306    0.20695637670336867    0.16466453144858623    0.1519938834160184    0.16187644469256224    
  0.18515796097754317    0.20881429101358331    0.21885637745703743    0.20881428021127324    0.18515789371694774    
  0.1618764709942617    0.15199383899523605    0.16466448906054318    0.2069564062384703    0.28291055068711307    
  0.3821097842051757    0.4701113429306278    0.5055463352084881    0.48074902202830544    0.46733630229183354    
  0.4162326052030844    0.33225193188378155    0.25332614076858856    0.20574534753398996    0.19130274170754674    
  0.202787656355968    0.23007103791296754    0.2575731299462212    0.26892274580793646    0.2575731659109777    
  0.23007096246611816    0.20278774238032304    0.19130275347376852    0.20574537252768255    0.25332620674323375    
  0.33225185095372506    0.4162326183014368    0.46733616848920373    0.48074902202830544    0.3251920467173541    
  0.3558902578052769    0.40077902736138027    0.3818952961015232    0.31591795797808336    0.26377515687100966    
  0.24707257793823748    0.26085546892552347    0.292299838379377    0.3225630705869719    0.3344806218693615    
  0.32256304093546767    0.2922998732789314    0.2608554791068492    0.24707258374013347    0.26377521582376934    
  0.3159179879467334    0.3818952439480105    0.40077913894340433    0.3558902186472814    0.3251920467173541    
  0.15788799552127442    0.20906084903924607    0.33403295657493953    0.40495471591309645    0.37020917741543385    
  0.31788154214433956    0.29941857592203014    0.31511482009743047    0.34835455243256075    0.37768045353106955    
  0.38843864964937214    0.37768043878443475    0.34835448235678423    0.31511479634688727    0.29941856388493726    
  0.3178815550698725    0.3702091441489852    0.40495476173694595    0.33403309149115396    0.20906081404330745    
  0.15788799552127442    0.10332559835893013    0.15340658476155608    0.2973769074525674    0.40776765674960475    
  0.39144191637008025    0.34054510157470974    0.32150009885499886    0.3378084753230164    0.37106034312720304    
  0.39886830422941955    0.40861959872602976    0.3988681998921209    0.37106038461409124    0.337808445807021    
  0.3215001393199806    0.3405449874080953    0.39144195792155095    0.4077676813215787    0.29737690503235326    
  0.15340659945940832    0.10332559835893013    0.2827351715401188    0.3155922711827029    0.3694423511387622    
  0.362380437020248    0.30433504880815415    0.25730771844049105    0.24534343031568    0.265398852908167    
  0.3056927754672072    0.34597072840400495    0.3628356516451871    0.34597061425085074    0.305692842998301    
  0.26539888499740427    0.24534345314234715    0.25730765536845557    0.3043350393713395    0.3623804536268555    
  0.3694423259180247    0.315592249128683    0.2827351715401188    0.32756781213460595    0.35125790064511625    
  0.3807069658708056    0.3531934090129788    0.2893254251404177    0.24253781692235296    0.23072803579235038    
  0.24968299141305084    0.28809755501327894    0.32655928532430056    0.34264981153344237    0.3265592689910391    
  0.2880975093063924    0.24968302027293543    0.23072801142644642    0.24253777560395687    0.2893253779740999    
  0.3531934099706781    0.3807070249370716    0.3512578795634837    0.32756781213460595    0.4206973517661132    
  0.4181251249268402    0.3901182125564412    0.323701523566166    0.2521474562498359    0.20776595483514243    
  0.19653372482699613    0.21257192210892722    0.24592617559613844    0.2796089256087401    0.2937689933869469    
  0.2796089076181495    0.24592610106328786    0.21257195918954247    0.19653376619788057    0.20776592980993844    
  0.25214750272165015    0.32370138526868475    0.3901182352301757    0.41812498981728685    0.4206973517661132    
  0.4702577555864071    0.4435904233458444    0.37194028471555457    0.2835534025092419    0.21183255923769292    
  0.17155657130415147    0.1611328574381897    0.17427840964261584    0.20215622200081884    0.2304910842084531    
  0.24257427631534323    0.2304910443557318    0.20215627357337487    0.17427847254560017    0.161132840234363    
  0.17155658362926243    0.21183261131070202    0.2835533648959943    0.3719404117717535    0.4435904489470717    
  0.4702577555864071    0.4650231130236172    0.43009585177479726    0.34601554705384735    0.2546029039905294    
  0.18624769108755312    0.1490116023026401    0.1392345171114233    0.15086465133417587    0.17534065847926458    
  0.2001000493911183    0.2107856369664266    0.20010001746725956    0.17534066571248738    0.15086464075635647    
  0.13923452286303223    0.14901162265770795    0.18624767577363413    0.2546029139315313    0.3460156274082484    
  0.4300957611880942    0.4650231130236172    0.46780463205470785    0.431614338584158    0.34550809176929154    
  0.253269050899903    0.18508861367341334    0.14816448739435517    0.1384796109981098    0.14993572869319666    
  0.17384528409290806    0.19782214548392843    0.20813005211846938    0.19782212587907802    0.17384528856757647    
  0.14993569762103573    0.13847960812380347    0.14816446100778016    0.18508863287563745    0.2532689898365813    
  0.34550814227201865    0.43161423233256907    0.46780463205470785    0.49635176840395867    0.4638190919757747    
  0.3813989863165678    0.2864171827860704    0.21298377058278606    0.1726862413855396    0.16220468906107796    
  0.17480476661182665    0.20120593517809032    0.22736175179466872    0.23828517980046338    0.22736175931229538    
  0.20120586203966193    0.17480482518197993    0.16220469065929544    0.17268620796715506    0.21298377856876832    
  0.286417184757685    0.38139908115043    0.463818929937639    0.49635176840395867    0.4630238309807814    
  0.457042576578638    0.42059539634815807    0.34620382566658486    0.2703676433102009    0.2240897775484718    
  0.21181440796431514    0.2265131020472554    0.2569382027272457    0.2857928769609172    0.2971255554084727    
  0.28579296335391263    0.2569382137415457    0.2265131315921097    0.21181439137628774    0.22408977909083738    
  0.2703676964667537    0.3462038055325836    0.4205954471471878    0.4570424412016383    0.4630238309807814    
  0.28067571936996066    0.32112509498627706    0.39428344990208486    0.40187366205945374    0.3453157701575536    
  0.29485275346886264    0.2801765138085103    0.29662547946815426    0.32784152966321334    0.35318867669235726    
  0.3615666317584788    0.35318871409420327    0.3278414807785087    0.2966255659076384    0.28017650521159154    
  0.2948527714603165    0.3453158397639026    0.40187362863135756    0.394283566655695    0.32112507283197983    
  0.28067571936996066    0.11076752106711207    0.1626048121193875    0.31019233912807814    0.4235396543011878    
  0.4093524668717563    0.36054166592870085    0.3439402239620153    0.3604645206005697    0.3865358381569067    
  0.39990102097061975    0.4014570594345229    0.3999009781870628    0.38653578885714474    0.3604645400442995    
  0.3439402605318137    0.36054162779462595    0.4093524322678737    0.4235395826694495    0.3101923804448631    
  0.1626048051106453    0.11076752106711207    0.063202039000738    0.10892392360661055    0.2671931881197878    
  0.4241792333125079    0.4341884717516935    0.38799843726222655    0.37072988930085216    0.3867304142454429    
  0.408821146872365    0.4146963132501312    0.4123304536213452    0.4146961860979562    0.4088212472046965    
  0.38673034513648896    0.37072992572786106    0.3879984192178032    0.4341884568593949    0.42417917819766815    
  0.26719326266211063    0.10892391316062433    0.063202039000738    0.11076749524163171    0.1626048206030037    
  0.31019224363638565    0.4235396121116847    0.40935255039862717    0.36054164561455027    0.34394024724201233    
  0.3604644549863546    0.3865358567367369    0.3999010086022945    0.4014571115154128    0.399901006301618    
  0.3865357700740054    0.3604646037908226    0.3439402547091217    0.3605415432562388    0.40935252008486717    
  0.42353949460781215    0.3101923776614239    0.1626047964302915    0.11076749524163171    0.2806756485858709    
  0.32112518304276316    0.3942834229799705    0.40187374865601755    0.3453158551396425    0.29485279809550696    
  0.28017644186496476    0.29662553738100617    0.3278415361958563    0.3531886668358959    0.36156661987057515    
  0.353188674348548    0.3278413659675863    0.29662559327564286    0.2801764878785117    0.29485274049940957    
  0.34531586447075524    0.40187357160417286    0.39428343667135185    0.3211251270113858    0.2806756485858709    
  0.46302396306352533    0.45704257089811023    0.4205954525562987    0.34620383298950863    0.27036762012292564    
  0.22408977826440443    0.2118143978736242    0.22651308732992895    0.2569381942070838    0.2857929670084134    
  0.2971255551638426    0.28579294573420444    0.2569382182144486    0.22651311910959537    0.21181440485184905    
  0.22408978055348938    0.270367645264296    0.3462037977361712    0.4205955528697249    0.45704247761502986    
  0.46302396306352533    0.49635171423046376    0.4638190608150998    0.3813989881545273    0.28641720645567054    
  0.21298377782708558    0.17268621727912092    0.1622047097565446    0.17480479335247098    0.2012059254581257    
  0.22736178809605206    0.2382852481039745    0.2273617005697324    0.2012058986211403    0.1748048237859315    
  0.16220467297979815    0.1726862052263347    0.2129837350640857    0.2864171407217855    0.38139910650588243    
  0.4638189512560472    0.49635171423046376    0.4678046849457035    0.4316142901186253    0.34550809304547    
  0.2532690021144963    0.18508862553189545    0.14816448631557771    0.1384796317722665    0.14993571229104077    
  0.17384525104761814    0.19782212494566292    0.20813003238037223    0.19782217253984516    0.17384526909466724    
  0.14993573584164283    0.13847957823832138    0.14816444188908023    0.1850886201239872    0.2532689286216381    
  0.3455080747222903    0.4316143313062182    0.4678046849457035    0.46502312885466524    0.43009584643481097    
  0.34601547622530227    0.2546028946033716    0.18624770405719165    0.14901161173093144    0.1392345403499039    
  0.15086460080698466    0.17534067065627887    0.20010008004887547    0.21078558738847056    0.20010005930179411    
  0.17534064147892364    0.15086463896809876    0.1392345027806514    0.1490115736103991    0.18624767540551498    
  0.254602862072182    0.34601557662703397    0.43009573826709374    0.46502312885466524    0.4702576744136769    
  0.44359046532605767    0.3719402517340813    0.28355341281995877    0.2118325297272824    0.1715565438821803    
  0.16113285328119478    0.17427843027379306    0.20215627903599542    0.23049104932152195    0.24257430171290378    
  0.23049109836403367    0.2021562018466609    0.1742785020394535    0.16113285500478333    0.1715565714851082    
  0.2118325990747763    0.2835533564616958    0.371940270692124    0.44359038233039927    0.4702576744136769    
  0.4206974935548306    0.4181250307067635    0.3901182097547909    0.32370143482238134    0.2521474681621296    
  0.20776591160582583    0.19653373832551974    0.2125719376341932    0.24592617824608268    0.2796089574672477    