#     DFTpy    
  CRYSTAL 
    
  PRIMVEC    
  1.7530527796302289    -3.036376482669403    0.0    
  1.7530527796302289    3.036376482669403    0.0    
  0.0    0.0    3.2998120804137927    
  PRIMCOORD    
  1    1    
  Si    0.0    0.0    0.0    
  BEGIN_BLOCK_DATAGRID_3D    
  3d_datagrid_density    
  BEGIN_DATAGRID_3D#0    
  15    15    15    
  0.0    0.0    0.0    
  1.7530527796302289    -3.036376482669403    0.0    
  1.7530527796302289    3.036376482669403    0.0    
  0.0    0.0    3.2998120804137927    
  0.07118524156002863    0.1329070627436626    0.3207201402683118    0.39870409153100256    0.27459029134157653    
  0.15429515623774034    0.09411749052651364    0.07754793020768154    0.09411748795649606    0.15429513023215347    
  0.27459031912555065    0.39870409224785325    0.3207201575114143    0.13290706702686905    0.07118524156002863    
  0.1329070580897583    0.13270845749204327    0.2659102816184444    0.401632472676252    0.3327239562932362    
  0.19628977681747375    0.1125119134272843    0.07864549533189406    0.07867693233692805    0.11247269681867864    
  0.19634749852459812    0.33266338921318744    0.40158216443257555    0.26587663379747656    0.1329070580897583    
  0.3207201782224323    0.2659103017936841    0.32107794696750774    0.4014988555002346    0.35211554719536975    
  0.22315254768042025    0.12793944101004184    0.0813227195149784    0.06820856822963133    0.08132552821936581    
  0.1279322107294675    0.22314313960512344    0.3522189606726216    0.40158215246167284    0.3207201782224323    
  0.3987040344355359    0.40163234820068516    0.4014988024842856    0.39849694170275624    0.3326682812861747    
  0.22326005940798024    0.13398631294746494    0.08359212929394721    0.06259908841390553    0.06261336648762955    
  0.08357457565387577    0.13402590526917205    0.2231431743341526    0.3326634072536051    0.3987040344355359    
  0.2745902756333297    0.3327238916024896    0.3521155513196462    0.33266833070040447    0.2748039313457563    
  0.19630889380362382    0.12787416161882692    0.08358543474425682    0.06095592008288006    0.0541856374017664    
  0.06095689120497091    0.08357457925179568    0.1279322156654609    0.1963475009026211    0.2745902756333297    
  0.15429512698557796    0.19628976769607856    0.22315260042873541    0.22326007027822492    0.19630886689439267    
  0.1541455887767006    0.11249439695549251    0.08137278322650311    0.06260392300896257    0.05418881807805469    
  0.05418563661509029    0.06261336087916598    0.08132552487867836    0.11247269971649693    0.15429512698557796    
  0.09411749264126255    0.11251186731666377    0.1279394644405849    0.13398633135716959    0.12787414943764466    
  0.11249438663332338    0.09423447923559305    0.07865913686940862    0.06816705184028012    0.06260392381303889    
  0.06095593275607459    0.06259909884215517    0.06820858214352082    0.07867694077656386    0.09411749264126255    
  0.07754794169205563    0.07864549041048605    0.0813227247330709    0.08359212570264321    0.08358544191812807    
  0.08137279089950165    0.07865914015525977    0.07744433445991389    0.07865913349569656    0.0813727824284819    
  0.08358544266980042    0.08359212318436801    0.08132272714066549    0.07864549484301074    0.07754794169205563    
  0.0941175047755518    0.07867692562791206    0.06820858682434809    0.06259911185745633    0.06095591575470862    
  0.06260394006837686    0.06816706262500297    0.07865914821836072    0.09423447088286153    0.11249437564812567    
  0.12787414568271058    0.1339863122486236    0.12793946907736095    0.1125118957503305    0.0941175047755518    
  0.15429515027087395    0.11247267723181646    0.08132552078385685    0.06261337582752093    0.05418563127302523    
  0.054188835042250985    0.06260391927295227    0.08137277117906634    0.11249437663107584    0.1541455728741803    
  0.19630887302611946    0.22326008358608274    0.22315255165450426    0.1962897616486232    0.15429515027087395    
  0.27459031841999193    0.1963474999853723    0.12793219863137054    0.08357457424454955    0.06095687535373717    
  0.05418564650249445    0.06095591760577473    0.08358544307515178    0.12787415644876904    0.1963088737746956    
  0.274803926772965    0.3326683484218832    0.35211563545528696    0.332723977059361    0.27459031841999193    
  0.39870406284424836    0.3326634199603496    0.22314314206939914    0.13402589718259006    0.08357456983339394    
  0.06261338249290868    0.0625990887692169    0.08359210644054979    0.13398630937670106    0.2232600488018075    
  0.3326682724526063    0.3984968784354857    0.40149887166304954    0.4016323818350578    0.39870406284424836    
  0.32072018803670516    0.4015821318695211    0.3522189582585313    0.2231431300951826    0.12793220645162354    
  0.08132552708560312    0.06820858221310021    0.0813227149085412    0.12793946209241946    0.2231525881849702    
  0.3521155651018995    0.401498794564257    0.321077909528099    0.26591035492505766    0.32072018803670516    
  0.1329070830431176    0.26587657520479835    0.4015821581739561    0.332663450446692    0.19634749623392309    
  0.1124727095295918    0.07867694406376338    0.07864549769558495    0.11251188780190584    0.19628977447458143    
  0.3327239602297927    0.4016324208064956    0.26591027781089743    0.13270846130974084    0.1329070830431176    
  0.07118524156002863    0.1329070627436626    0.3207201402683118    0.39870409153100256    0.27459029134157653    
  0.15429515623774034    0.09411749052651364    0.07754793020768154    0.09411748795649606    0.15429513023215347    
  0.27459031912555065    0.39870409224785325    0.3207201575114143    0.13290706702686905    0.07118524156002863    
  0.12429032843550294    0.19262523760893668    0.35710124350333766    0.3878714042864842    0.2582305063536197    
  0.14562475983212772    0.0898081837602465    0.07431471403098985    0.08980818245174345    0.14562472108236585    
  0.2582304935913246    0.3878714357649273    0.357101242909864    0.1926252396246503    0.12429032843550294    
  0.19262523851103824    0.19240994828891644    0.3144254078584755    0.40364400792949257    0.3146147735903652    
  0.18462953902501447    0.1068802366541283    0.07535859792526937    0.07538364666893639    0.10684963936964151    
  0.18467301704336925    0.31456587315985435    0.4036202935973923    0.31437417957136754    0.19262523851103824    
  0.3571012666150198    0.3144253961404718    0.35741538909972564    0.4035343146759291    0.33419521773740607    
  0.2096355487988984    0.12119235364967493    0.0778775375802398    0.06559490243211323    0.07787971596085728    
  0.12118624910083095    0.20963475696913592    0.33425519398409254    0.40362027601200756    0.3571012666150198    
  0.3878713805535371    0.40364390576393494    0.40353422941648104    0.3877033192082709    0.31458212016297854    
  0.2097113246293097    0.1268290920833648    0.08000259797089745    0.06037323041840942    0.06038245894723799    
  0.0799917117354877    0.1268531405872551    0.20963475131947745    0.31456586433225736    0.3878713805535371    
  0.2582304956844765    0.31461474506104753    0.33419519823250404    0.31458214062646517    0.2583937598646975    
  0.18463817861591308    0.12114726400472263    0.07999848137748115    0.05884184560598015    0.05248777462020084    
  0.05884253847982859    0.07999169954961759    0.12118625059652602    0.18467301105471    0.2582304956844765    
  0.14562471401433846    0.18462950216828916    0.20963557374159703    0.20971133746870163    0.1846381651932034    
  0.14551297819286635    0.10686900532498289    0.07791195612104296    0.06037543171112831    0.052491373662615026    
  0.052487777049386126    0.06038244828308418    0.07787971617933563    0.10684965814964967    0.14562471401433846    
  0.08980818460062429    0.10688019815618491    0.12119236148822761    0.1268291100781944    0.12114724167938759    
  0.10686900358707521    0.08989559422257104    0.0753678529167205    0.06556810932207008    0.060375434150443504    
  0.05884186051042651    0.0603732432120521    0.065594917474133    0.07538364379685632    0.08980818460062429    
  0.07431473137249743    0.07535859413849716    0.0778775396200462    0.08000260793475795    0.07999848353601206    
  0.07791196795676218    0.07536784699053281    0.0742392356481558    0.07536785145174434    0.07791195537480912    
  0.07999848417407991    0.08000260430485218    0.0778775520132829    0.07535859755375751    0.07431473137249743    
  0.08980819503084297    0.07538362946308838    0.06559492278498075    0.060373246075538865    0.05884184399080794    
  0.060375446622909675    0.0655681085680518    0.07536785723871885    0.08989558615317658    0.10686898716345875    
  0.1211472512414821    0.1268290899333667    0.12119235449555368    0.10688022912655765    0.08980819503084297    
  0.1456247312068199    0.10684964198666572    0.07787971344654485    0.06038245475545894    0.052487774102832244    
  0.052491381927781716    0.06037543095437034    0.07791195568475726    0.10686898772606883    0.14551297000672153    
  0.1846381750547083    0.2097113264705653    0.20963554322741298    0.18462953198151116    0.1456247312068199    
  0.25823049085837657    0.18467300484298166    0.12118624039540916    0.07999170421582821    0.05884251837239264    
  0.05248777976562249    0.05884183953968865    0.079998481677181    0.12114725853292664    0.18463815337303655    
  0.25839376685803106    0.31458215620521984    0.3341952604151087    0.3146147852205377    0.25823049085837657    
  0.38787140948511245    0.31456589272836605    0.20963475905365295    0.1268531318099723    0.0799916995135076    
  0.06038245723008009    0.06037323112575869    0.08000260022851742    0.12682908045520927    0.20971130793261653    
  0.3145821000848683    0.38770323791650885    0.4035342932500211    0.40364395986352664    0.38787140948511245    
  0.3571012694352654    0.4036202141080325    0.33425517612672295    0.20963475262714912    0.12118624065905981    
  0.07787972036503621    0.06559490926189575    0.07787754267166741    0.12119235768941318    0.2096355745930327    
  0.33419521395191387    0.40353422206465867    0.35741536464496526    0.3144254568527527    0.3571012694352654    
  0.1926252338953304    0.31437414274418984    0.4036202342696749    0.3145658930028793    0.1846730168483773    
  0.10684965667491453    0.07538365102491101    0.07535859773094984    0.10688022173959064    0.18462952684640838    
  0.3146147878701699    0.4036440043645944    0.31442538775567136    0.19240996916447245    0.1926252338953304    
  0.12429032843550294    0.19262523760893668    0.35710124350333766    0.3878714042864842    0.2582305063536197    
  0.14562475983212772    0.0898081837602465    0.07431471403098985    0.08980818245174345    0.14562472108236585    
  0.2582304935913246    0.3878714357649273    0.357101242909864    0.1926252396246503    0.12429032843550294    
  0.29331364577650837    0.3414113064662791    0.40136976680655234    0.3397679323505903    0.2138732812449768    
  0.12304777765292542    0.07857902370163541    0.06595897832716086    0.07857901408310182    0.12304776883745946    
  0.2138732958269125    0.3397679591023735    0.40136974518928575    0.341411329008232    0.29331364577650837    
  0.3414113252861059    0.3412773824044372    0.39393135366450116    0.3756694961110376    0.26238418232090555    
  0.1541243143339511    0.09222781397746112    0.06684533611089079    0.06685352797734269    0.0922173665685682    
  0.15414007332709187    0.2623633870922311    0.3756742475466961    0.3938893996738591    0.3414113252861059    
  0.4013697758448875    0.39393138929575694    0.4015048677401144    0.375632809165437    0.2805157016653519    
  0.1741705913935041    0.10363057147917491    0.06888714140039653    0.05885037101265308    0.06888911124385719    
  0.10362569434596608    0.17417572607067805    0.2805235920873742    0.37567427886345317    0.4013697758448875    
  0.33976794380543557    0.37566937466016853    0.375632712237439    0.3397026196530055    0.2623762342752131    
  0.17419352405654814    0.10814687631325771    0.07055985210110222    0.054564247273367894    0.05456505134800164    
  0.07055873674768354    0.10815159531759784    0.174175761352125    0.2623634040482405    0.33976794380543557    
  0.21387325961157613    0.2623841201659156    0.28051569896139966    0.26237625656989716    0.21393176144816622    
  0.15412309573083635    0.1036180719888644    0.07055937990581093    0.05328074132732308    0.04805834332377286    
  0.053280358927274986    0.07055872434244792    0.1036256955963151    0.15414006135311237    0.21387325961157613    
  0.12304774217704317    0.15412429311335235    0.17417062394399765    0.17419355338998863    0.15412306719712604    
  0.12301011525883557    0.09222616950402376    0.06889554896481623    0.05456525613776353    0.0480569580181552    
  0.04805834274863858    0.05456504151624599    0.06888910413477368    0.09221736461104765    0.12304774217704317    
  0.07857902718279286    0.09222777390447479    0.10363058688908525    0.1081469018511703    0.10361805507503201    
  0.09222616418563241    0.07860746268869646    0.06684896963985057    0.05884264042514942    0.05456525009942332    
  0.05328075124714531    0.05456425549333028    0.058850380908658795    0.06685352447847703    0.07857902718279286    
  0.06595898812646855    0.066845341548279    0.06888714621920423    0.07055984616982817    0.07055937807294055    
  0.06889555371479267    0.06684896463236284    0.0659323711491104    0.06684896345830506    0.06889554952699965    
  0.07055937586943019    0.07055984796536625    0.06888714705393231    0.06684534246415445    0.06595898812646855    
  0.07857903758469237    0.06685351269951005    0.0588503823393178    0.05456426172991194    0.0532807436237497    
  0.05456526344064687    0.05884264033456296    0.066848972008697    0.07860745946901834    0.0922261630969176    
  0.10361806294860076    0.10814688563809438    0.10363057920200028    0.09222779954572315    0.07857903758469237    
  0.1230477553728174    0.09221735521133352    0.06888910883089205    0.05456505896875267    0.04805833559763029    
  0.04805697326905542    0.054565258081073695    0.06889554130478284    0.09222615940628777    0.12301010366326841    
  0.15412306348649243    0.1741935147367058    0.1741705961593367    0.1541243274648972    0.1230477553728174    
  0.2138732643767147    0.15414005578236634    0.10362568588440192    0.07055872591796705    0.05328034495550259    
  0.04805834872303605    0.053280739556527644    0.07055938589864026    0.1036180604402145    0.15412307897659522    
  0.2139317768693258    0.2623762630164644    0.2805157473871464    0.26238419728281104    0.2138732643767147    
  0.33976794022291623    0.2623633661713945    0.17417574347498077    0.10815160102706936    0.07055871265086042    
  0.05456505418810797    0.054564250947493294    0.07055984359147102    0.10814689140575819    0.17419351517372555    
  0.26237624881162813    0.33970256518245634    0.37563284795840735    0.3756694204943199    0.33976794022291623    
  0.40136973411965965    0.37567423562088265    0.2805235348247289    0.17417575688002124    0.10362568383388572    
  0.06888910721549586    0.05885038295036536    0.06888714496166234    0.10363057981206421    0.17417059185454759    
  0.280515712591852    0.37563275850236905    0.4015048370671558    0.3939313998825698    0.40136973411965965    
  0.3414113116109358    0.3938893549756799    0.3756742629279408    0.2623634052341161    0.1541400613246475    
  0.09221737416489592    0.0668535362865564    0.06684533999639056    0.09222779600637258    0.1541243128136271    
  0.262384158564572    0.3756694879588371    0.3939313613231621    0.34127740622669916    0.3414113116109358    
  0.29331364577650837    0.3414113064662791    0.40136976680655234    0.3397679323505903    0.2138732812449768    
  0.12304777765292542    0.07857902370163541    0.06595897832716086    0.07857901408310182    0.12304776883745946    
  0.2138732958269125    0.3397679591023735    0.40136974518928575    0.341411329008232    0.29331364577650837    
  0.3967600721000523    0.39192985401605546    0.34771718244741256    0.25289587277648856    0.15751085056777195    
  0.09523915005632573    0.06436092056086917    0.05534796731811131    0.06436091701781467    0.09523913614666332    
  0.1575108758926935    0.2528958745680384    0.3477171675913342    0.39192985783452483    0.3967600721000523    
  0.3919298175101249    0.39191183099299354    0.36554165893283525    0.2895417714715231    0.19188700389879854    
  0.11652479518391587    0.07392172035443563    0.05599064718020271    0.05599125209629279    0.0739209606577856    
  0.11652648918380122    0.19188444648164354    0.28954447396158856    0.3655321510246049    0.3919298175101249    
  0.34771718742406854    0.3655416173454078    0.34773111022318004    0.2895399624173442    0.2053708971708443    
  0.1302755169838601    0.08184376737340322    0.05743098413707787    0.05021838759375821    0.05743104301494797    
  0.08184297636246951    0.13027613629704457    0.20536983738257927    0.2895444981393665    0.34771718742406854    
  0.2528958562835053    0.28954172481672125    0.28953989505876543    0.2528888186483011    0.1918872709863918    
  0.13027539122600218    0.08498473499701834    0.05857226335677184    0.04707054436978583    0.04707078446195175    
  0.05857279075856645    0.08498442407790568    0.13027614125587275    0.19188445410579344    0.2528958562835053    
  0.15751084444574728    0.19188699346674346    0.20537085649708703    0.1918873115882089    0.15751518699108047    
  0.11652584640530439    0.08184287736341146    0.05857270058533258    0.04609401168691999    0.04228215280946136    
  0.04609340387496158    0.05857277467502592    0.08184296698731398    0.11652647051842621    0.15751084444574728    
  0.09523912463683662    0.11652478284013613    0.1302755666760981    0.13027539956354092    0.11652582200690324    
  0.09523418174313482    0.07392191553893179    0.05743123342664405    0.04707007991359899    0.04228237779254603    
  0.04228215375959451    0.04707076593143646    0.057431046629833685    0.07392096460969069    0.09523912463683662    
  0.06436091316325433    0.0739216936895577    0.08184379123337958    0.08498476831655845    0.08184285515756545    
  0.0739219090471188    0.06436458071884756    0.05598978032425873    0.05021956519453502    0.04707008126440182    
  0.04609401918111549    0.04707055233115534    0.050218394580178134    0.05599126257231951    0.06436091316325433    
  0.05534796945855826    0.05599063725797842    0.05743098978705558    0.058572270517070375    0.05857270269986352    
  0.05743123852176643    0.05598976449332697    0.05534642907042385    0.05598976867658375    0.05743123976158787    
  0.05857270588021253    0.05857227220112555    0.05743098965308669    0.05599063940227598    0.05534796945855826    
  0.06436092037091554    0.05599125027801094    0.05021839682530178    0.04707056064185361    0.04609400695042654    
  0.04707008095241565    0.050219550704890696    0.05598978268073442    0.06436458295838175    0.07392190317289081    
  0.08184285759110718    0.0849847505565871    0.08184378410815381    0.07392171892486554    0.06436092037091554    
  0.09523912129481533    0.07392095170364488    0.05743105292714145    0.04707078331385587    0.04228214790417373    
  0.04228239175062178    0.047070072141468265    0.05743122820289305    0.07392191089992653    0.09523418009053815    
  0.11652581854280457    0.13027540262131557    0.1302755091629772    0.11652479466835496    0.09523912129481533    
  0.15751085932388792    0.11652646946615676    0.08184295272220964    0.05857277769925824    0.046093384656275965    
  0.04228216329843694    0.046094006851359094    0.058572704607152734    0.08184287376187471    0.11652582894738502    
  0.15751520654433376    0.19188729887168612    0.20537089475295287    0.19188704039230403    0.15751085932388792    
  0.2528958486327412    0.19188443754544604    0.13027614991848144    0.08498442443295734    0.05857276905169798    
  0.0470707835180537    0.04707054348834588    0.05857226606498991    0.08498475796203699    0.13027540434739343    
  0.19188732293746183    0.25288878098595396    0.2895399833698719    0.2895417224791742    0.2528958486327412    
  0.3477171882482886    0.28954448411871964    0.20536978494875882    0.13027615595230874    0.0818429580966827    
  0.05743104557681954    0.05021839624155171    0.057430988374571855    0.08184378251685961    0.13027551617593283    
  0.2053708869873757    0.2895399080906641    0.34773107693257427    0.3655416461027994    0.3477171882482886    
  0.3919298725788774    0.36553215507365844    0.2895445001930918    0.1918844478323774    0.11652646734176536    
  0.07392097029404025    0.05599126138799974    0.055990645052915025    0.07392171330857988    0.11652478618521622    
  0.19188702678300557    0.28954176294094275    0.36554165474675915    0.3919118668365058    0.3919298725788774    
  0.3967600721000523    0.39192985401605546    0.34771718244741256    0.25289587277648856    0.15751085056777195    
  0.09523915005632573    0.06436092056086917    0.05534796731811131    0.06436091701781467    0.09523913614666332    
  0.1575108758926935    0.2528958745680384    0.3477171675913342    0.39192985783452483    0.3967600721000523    
  0.30471492827106206    0.2855103217660452    0.23253757907710543    0.16521483961836309    0.1077561531568593    
  0.07038485015586386    0.05107670214126022    0.045281871183775434    0.05107670210282517    0.0703848386758454    
  0.10775616250284614    0.16521484729198455    0.23253756400355519    0.28551032305335206    0.30471492827106206    
  0.2855103090524845    0.2855151299369192    0.24924899645969897    0.18903757497718074    0.12814541653675382    
  0.08330836480066124    0.057121307123367375    0.04567939288442967    0.045677984844662706    0.05712241313450092    
  0.08330809753992226    0.12814606650881852    0.18903735596729748    0.24924952537507702    0.2855103090524845    
  0.23253760400545362    0.2492489689156043    0.23253462448588097    0.18903926967327492    0.1362302465733422    
  0.09156179102028635    0.06209496794774571    0.04659544524150717    0.04190565779048755    0.04659584051331911    
  0.062094090018449795    0.09156119803023671    0.1362301570206221    0.18903738511497534    0.23253760400545362    
  0.16521482730257073    0.18903753010137134    0.189039227009644    0.16521517396073618    0.12814540580199021    
  0.09156063026636864    0.06407352955048656    0.047344820489901504    0.03981286478509835    0.0398132178305935    
  0.04734475596077588    0.06407443849895819    0.09156120706728953    0.12814608182617523    0.16521482730257073    
  0.10775615200637347    0.1281454018988    0.13623022781082383    0.12814541751909386    0.10775597887243532    
  0.08330907832963162    0.06209513956980472    0.047344715669926575    0.039140898897251516    0.03658056302855239    
  0.03914030618975767    0.04734474181414282    0.06209408138479306    0.08330808274989593    0.10775615200637347    
  0.07038482892108587    0.08330835428507824    0.09156181877070325    0.09156063628047602    0.08330905049814409    
  0.07038360055292024    0.05712193009227557    0.04659501340955786    0.0398133570226161    0.03657945558726478    
  0.036580565135089    0.039813206111976356    0.046595844464401424    0.057122415907306136    0.07038482892108587    
  0.051076698936306    0.057121286014300235    0.06209498966058915    0.0640735555005489    0.06209512006690303    
  0.05712192740125962    0.05107746184676181    0.04567847219966813    0.04190617350867311    0.03981335534397427    
  0.03914090958979731    0.039812868784333266    0.041905662824309416    0.04567799274643338    0.051076698936306    
  0.04528187894366389    0.045679377423658046    0.04659544876019033    0.04734482457856499    0.04734471207954563    
  0.04659501937556353    0.04567846582892619    0.04528164242819321    0.04567846785599628    0.04659501738054418    
  0.047344720542147695    0.047344825063416425    0.046595450856756995    0.04567938375548571    0.04528187894366389    
  0.05107670594491218    0.04567797836156943    0.04190566160661928    0.03981287773547162    0.03914090283692295    
  0.039813355035639826    0.04190616531566275    0.04567847730311027    0.05107746505749219    0.057121924526223875    
  0.06209512571429668    0.06407354492011667    0.06209497492214713    0.057121305119233516    0.05107670594491218    
  0.07038482397911856    0.05712240710028891    0.04659585022948052    0.03981322325287341    0.03658056471939194    
  0.036579464103091264    0.03981334787624399    0.04659501149456852    0.05712192922853644    0.0703835942665854    
  0.08330905347988403    0.09156062486380338    0.0915617877607257    0.08330836797549825    0.07038482397911856    
  0.10775615405311345    0.08330808212118498    0.062094072458876964    0.047344752190246225    0.03914029408785688    
  0.03658057538024201    0.039140899307839136    0.047344710083612095    0.06209513188878033    0.08330906315434929    
  0.10775600046469391    0.12814540499792476    0.13623024900785816    0.128145428060058    0.10775615405311345    
  0.1652148277096923    0.1281460575161791    0.09156121936672205    0.06407445053943876    0.047344737751577826    
  0.03981321722094596    0.03981286752329167    0.04734482190425851    0.06407355342405481    0.09156062967117949    
  0.12814543213445348    0.1652151178667094    0.18903929630451138    0.18903753166113677    0.1652148277096923    
  0.23253758083182274    0.18903737655821948    0.1362301093886368    0.09156123021081217    0.06209407945835384    
  0.04659584145522639    0.04190566034439193    0.04659545207361785    0.062094982691150366    0.09156177710103454    
  0.13623025610999573    0.18903922616012356    0.232534600091219    0.2492490005795064    0.23253758083182274    
  0.2855103359886579    0.24924949284574852    0.18903738083308685    0.12814607195093286    0.0833080833128529    
  0.057122413826414344    0.04567799064729766    0.045679388886481105    0.05712130183621461    0.08330835074338788    
  0.12814542882286106    0.18903757212865888    0.24924897006634755    0.28551516044061725    0.2855103359886579    
  0.30471492827106206    0.2855103217660452    0.23253757907710543    0.16521483961836309    0.1077561531568593    
  0.07038485015586386    0.05107670214126022    0.045281871183775434    0.05107670210282517    0.0703848386758454    
  0.10775616250284614    0.16521484729198455    0.23253756400355519    0.28551032305335206    0.30471492827106206    
  0.18445668256727482    0.17235711270494206    0.1415830204296291    0.10492302351100516    0.07371638553370725    
  0.052541302926177445    0.04107670793286539    0.03755621536878618    0.04107670668851176    0.05254129739356141    
  0.07371638472362856    0.10492302298757847    0.14158299648645084    0.17235711366047166    0.18445668256727482    
  0.17235712894242602    0.17235723164630212    0.1509987181808897    0.1177639656329661    0.08489528508974496    
  0.060003855967380414    0.0447174454849378    0.03778607789565268    0.03778557783225149    0.044718280787589666    
  0.060003714437411225    0.08489522692096647    0.11776365446919401    0.1509987528526616    0.17235712894242602    
  0.14158303667969446    0.15099873396554225    0.14158348492213768    0.11776300480841656    0.08928129942094043    
  0.06469098330413843    0.04770504473906856    0.03834069524554078    0.035431690130628135    0.038340470654885696    
  0.047704246395810376    0.06469125227124807    0.08928105889593618    0.11776366930775412    0.14158303667969446    
  0.10492302061856482    0.1177639109673071    0.11776296524402267    0.10492344033020955    0.08489604135861636    
  0.06469088723498986    0.04889047745160215    0.03881359199993159    0.03409527627475493    0.03409534980868894    
  0.03881425893990168    0.04889069108254718    0.06469125975075637    0.08489523747046526    0.10492302061856482    
  0.07371635982011795    0.08489526231563355    0.08928130125106724    0.08489605876065964    0.073715342838495    
  0.06000386129828598    0.04770481151239948    0.038814480884553006    0.033659163828332575    0.031995928631164676    
  0.033658736458679284    0.038814251715891854    0.04770425162880179    0.060003705831870854    0.07371635982011795    
  0.052541290378330927    0.06000384751169716    0.06469099833450871    0.06469088739191814    0.06000384378875363    
  0.052541918332932286    0.04471733980345835    0.03834044972087338    0.03409476184381069    0.03199635513783259    
  0.03199592838438053    0.034095345142814835    0.038340469911487846    0.04471828106651826    0.052541290378330927    
  0.04107670664243258    0.04471742631448603    0.04770505032222527    0.048890497084213204    0.047704804221725426    
  0.044717340491026894    0.0410771180035671    0.03778582601407263    0.03543236621078413    0.03409475652441376    
  0.03365917221785968    0.03409528398814167    0.03543169664466567    0.03778557895387025    0.04107670664243258    
  0.03755622100075659    0.037786076594560146    0.03834070217769684    0.03881360056337106    0.0388144806925886    
  0.03834044864583819    0.037785817900436953    0.03755586570578202    0.037785819310982405    0.038340444747649825    
  0.03881448178815695    0.03881360105602702    0.03834070173210035    0.037786076464615716    0.03755622100075659    
  0.04107671396826222    0.037785568079376754    0.035431696077484795    0.03409528970510772    0.033659165180626886    
  0.03409476127055654    0.035432363791548446    0.03778582509146267    0.04107710924050684    0.04471733317212032    