#     DFTpy    
  CRYSTAL 
    
  PRIMVEC    
  1.2921986983872304    -2.2381537990810547    0.0    
  1.2921986983872304    2.2381537990810547    0.0    
  0.0    0.0    2.4323357087586204    
  PRIMCOORD    
  1    1    
  Si    0.0    0.0    0.0    
  BEGIN_BLOCK_DATAGRID_3D    
  3d_datagrid_density    
  BEGIN_DATAGRID_3D#0    
  11    11    11    
  0.0    0.0    0.0    
  1.2921986983872304    -2.2381537990810547    0.0    
  1.2921986983872304    2.2381537990810547    0.0    
  0.0    0.0    2.4323357087586204    
  0.051322629981436614    0.10495419657395004    0.2875238550602485    0.41328553742830054    0.378196448759673    
  0.3471913182107934    0.3781964314391442    0.41328548944690063    0.2875238133217126    0.10495421364857616    
  0.051322629981436614    0.10495421448471007    0.10468012783541457    0.23086427002671933    0.39095754199853394    
  0.39663875833029666    0.3456127492477438    0.34574258195141067    0.3965223921759494    0.39086451072136164    
  0.23082576320957807    0.10495421448471007    0.28752385305799383    0.2308642731851374    0.2880759158188838    
  0.3907585461865763    0.40003526630043806    0.34322053716607964    0.31627743183810647    0.3431979576334157    
  0.40024154691045016    0.3908645211861287    0.28752385305799383    0.4132854878401466    0.39095766768436774    
  0.3907585865218965    0.41293044725647976    0.3965173326615897    0.34345284424505096    0.3047132774822894    
  0.30479638916968443    0.34319793553866657    0.39652238058328293    0.4132854878401466    0.37819639330241955    
  0.3966387702567032    0.4000351767781946    0.39651721578858856    0.378621134849033    0.345674590545298    
  0.3160917387731929    0.3047132728703374    0.31627747001277484    0.3457426519733327    0.37819639330241955    
  0.3471912920673349    0.34561280160896496    0.3432204696077678    0.34345282376356273    0.34567463168665613    
  0.3467925345854211    0.345674578761114    0.34345283312096575    0.34322049657350434    0.3456127348538667    
  0.3471912920673349    0.37819634299929106    0.3457426240898339    0.3162774576374449    0.30471329632729555    
  0.3160918297174472    0.3456746037519695    0.3786210541515164    0.3965173005325167    0.4000352343727091    
  0.3966387821119451    0.37819634299929106    0.4132854998974945    0.39652230838785996    0.34319790606361855    
  0.30479636027815143    0.30471333906190495    0.3434528432658215    0.39651726750197497    0.41293038724295583    
  0.3907586074383689    0.3909576742671488    0.4132854998974945    0.2875238429715487    0.39086449886949026    
  0.4002414403586393    0.34319799700884057    0.3162774940872726    0.34322055271989327    0.4000352276240194    
  0.3907585845914164    0.2880760164940923    0.23086428553283234    0.2875238429715487    0.10495424477777243    
  0.23082576888141876    0.3908644209631158    0.3965222811664932    0.3457426540620101    0.3456127647484165    
  0.39663871105582893    0.3909575996131976    0.2308642797346699    0.10468014674691735    0.10495424477777243    
  0.051322629981436614    0.10495419657395004    0.2875238550602485    0.41328553742830054    0.378196448759673    
  0.3471913182107934    0.3781964314391442    0.41328548944690063    0.2875238133217126    0.10495421364857616    
  0.051322629981436614    0.10079893051993283    0.16335317217538667    0.3276173497054978    0.4033635179777442    
  0.35307022029151014    0.3217564706235104    0.3530702163277891    0.40336346115914834    0.3276173211979976    
  0.16335316780094128    0.10079893051993283    0.1633531992912506    0.16305381597947682    0.2820589196671418    
  0.3963242590210352    0.37394882111583544    0.32066852138866786    0.3207670840602985    0.37385581764695647    
  0.39627561016396823    0.2820001715489269    0.1633531992912506    0.3276173242150302    0.2820589182643306    
  0.3280868008547589    0.3961792620104186    0.37922261515646344    0.31881453953433997    0.2928039869835445    
  0.31880246741848384    0.37935442766335603    0.39627567125746166    0.3276173242150302    0.4033634434216559    
  0.3963243709267924    0.39617923235876823    0.403080567849265    0.3738659436540555    0.3189692334473015    
  0.2819938046915861    0.28204711679737654    0.3188024505859699    0.37385579359341276    0.4033634434216559    
  0.35307020457251775    0.373948798767383    0.37922247087856925    0.37386585286305324    0.35338838774661413    
  0.3207111639034201    0.2926833807690387    0.281993803518773    0.2928040401137177    0.3207671243474037    
  0.35307020457251775    0.32175644935205    0.3206685240043668    0.3188144847457881    0.318969217755676    
  0.3207111960367758    0.32146388319960484    0.3207111533979186    0.31896920163402426    0.31881453676079874    
  0.32066851200052876    0.32175644935205    0.3530701961827124    0.3207670545035426    0.29280404970908336    
  0.2819937931775777    0.29268342953701426    0.3207111929776231    0.3533882987693339    0.3738658828742394    
  0.37922252280985724    0.373948879191843    0.3530701961827124    0.40336351183299873    0.37385580158916515    
  0.3188024294846172    0.28204710444607956    0.2819938495819066    0.31896922808605693    0.37386585277807965    
  0.4030806122388581    0.39617932095841046    0.39632444482834245    0.40336351183299873    0.3276173165019761    
  0.3962755789662176    0.3793543174876714    0.31880247339217643    0.29280405616420446    0.3188145701018041    
  0.37922251235573934    0.396179363553187    0.32808685760905737    0.28205895964974675    0.3276173165019761    
  0.1633531986091879    0.28200014358974934    0.39627549864104    0.37385571195036826    0.32076710718634066    
  0.3206685294800285    0.37394876803960614    0.39632433073419143    0.2820589440692935    0.1630538425716384    
  0.1633531986091879    0.10079893051993283    0.16335317217538667    0.3276173497054978    0.4033635179777442    
  0.35307022029151014    0.3217564706235104    0.3530702163277891    0.40336346115914834    0.3276173211979976    
  0.16335316780094128    0.10079893051993283    0.2882869197488442    0.33384080780020164    0.3958838816077717    
  0.3641849689928715    0.2920045838128492    0.26215286338107346    0.29200453982488855    0.36418498910064545    
  0.3958839082490438    0.3338407990117812    0.2882869197488442    0.3338408073412361    0.3336571349718407    
  0.3861011912280308    0.38515108471776743    0.31539625329321475    0.26174600918260854    0.2617756264603303    
  0.3153640405274416    0.38514142375439786    0.38606097254619337    0.3338408073412361    0.39588387668837577    
  0.386101209024896    0.39608488614139187    0.3850998852724434    0.3234153644108956    0.2606648127171273    
  0.23755957686059542    0.2606656011371509    0.32344848286952665    0.38514148186522185    0.39588387668837577    
  0.3641849242356423    0.38515117061283954    0.385099912896194    0.3640834303579991    0.31537406115490035    
  0.2607107468827635    0.22840117569016335    0.22841230097630674    0.26066560958240986    0.31536401763019917    
  0.3641849242356423    0.29200453147444183    0.3153962044417768    0.3234152665805525    0.31537398620843016    
  0.2921067584355674    0.2617561443614546    0.23752515331384022    0.22840116681110154    0.23755960938996948    
  0.2617756840773737    0.29200453147444183    0.2621527792514212    0.26174596623831864    0.2606647977758959    
  0.26071073157602476    0.26175619473783307    0.26206198447019435    0.26175617120744293    0.26071071333036266    
  0.2606648118009225    0.26174599625490896    0.2621527792514212    0.29200453312348956    0.26177564873617337    
  0.23755960885171729    0.2284011490039811    0.23752519266748126    0.2617561543730481    0.2921067031852745    
  0.3153740206040511    0.32341536734117365    0.3153962772054622    0.29200453312348956    0.3641850127056169    
  0.31536402961464294    0.2606655596847697    0.22841231886171268    0.228401198347331    0.2607107197238013    
  0.3153739613021506    0.364083491387095    0.38509996928764584    0.3851512057267055    0.3641850127056169    
  0.39588393025293683    0.3851413988940391    0.3234484482959212    0.26066559971866754    0.23755962278560153    
  0.26066482887016884    0.3234153182758809    0.38509998491884917    0.39608488670545616    0.3861012334969662    
  0.39588393025293683    0.33384081509447544    0.38606097196118183    0.385141314204743    0.3153639192194376    
  0.2617757131071121    0.2617459830930568    0.3153962169064891    0.3851510867532667    0.38610127404322797    
  0.3336571755960456    0.33384081509447544    0.2882869197488442    0.33384080780020164    0.3958838816077717    
  0.3641849689928715    0.2920045838128492    0.26215286338107346    0.29200453982488855    0.36418498910064545    
  0.3958839082490438    0.3338407990117812    0.2882869197488442    0.4798638251627052    0.46382086430503855    
  0.3992826518461139    0.3010182382742107    0.22569361372659766    0.19996687896877524    0.22569356582874772    
  0.3010182274671589    0.3992826316718671    0.4638208039364208    0.4798638251627052    0.46382087056094784    
  0.4637964977556296    0.4218842585908712    0.33547999570960485    0.24786820098200293    0.19999422272761816    
  0.19999568867146442    0.24786543632688254    0.3354682028784167    0.4218898735522887    0.46382087056094784    
  0.39928263271640035    0.4218842673985969    0.3993193764822764    0.33546633937762116    0.25657995832764274    
  0.19977920237344984    0.1805602494910674    0.19977904664852922    0.25659123941496553    0.33546825699999117    
  0.39928263271640035    0.3010181771971668    0.3354800911552374    0.3354663941838171    0.3010054762489613    
  0.2478677069553321    0.19978914579448617    0.17337724903080445    0.17337832770949602    0.19977902327007627    
  0.24786543039568204    0.3010181771971668    0.225693578042259    0.24786820070731494    0.2565799021943964    
  0.24786767716276045    0.2257037313984447    0.1999937771376466    0.18055180645619742    0.17337725274524024    
  0.18056027635503488    0.19999573138616367    0.225693578042259    0.19996681639853023    0.1999941529366285    
  0.19977919249939033    0.19978908788975075    0.19999380024664865    0.1999582132676445    0.19999379304039433    
  0.19978911613895528    0.19977917928614913    0.1999941993599706    0.19996681639853023    0.22569357361142378    
  0.19999572026418774    0.18056030282322091    0.17337722995992028    0.18055184183551695    0.19999379688411267    
  0.22570365304911055    0.24786771467529362    0.2565799428431023    0.2478682033124302    0.22569357361142378    
  0.3010182696744615    0.24786544765374055    0.19977900104349772    0.17337833215612375    0.17337726160764508    
  0.1997890950143252    0.2478676513590996    0.301005491727969    0.3354664221323338    0.33548013036275603    
  0.3010182696744615    0.3992826600633537    0.335468182010866    0.2565912313559495    0.19977901544962562    
  0.18056029580338612    0.1997792381875462    0.25657991448531575    0.33546641094806673    0.3993193927463424    
  0.4218843102933374    0.3992826600633537    0.4638208619249428    0.4218898901727278    0.33546809143589684    
  0.24786535836902884    0.19999576593959956    0.19999420750990776    0.24786816397294184    0.33548004013803917    
  0.42188434722437446    0.46379655812806575    0.4638208619249428    0.4798638251627052    0.46382086430503855    
  0.3992826518461139    0.3010182382742107    0.22569361372659766    0.19996687896877524    0.22569356582874772    
  0.3010182274671589    0.3992826316718671    0.4638208039364208    0.4798638251627052    0.5048126800107378    
  0.4605352830821689    0.35501295350864165    0.24805669722798893    0.17993079489099248    0.15777503487459424    
  0.1799307819642677    0.2480566547956386    0.35501298558283356    0.46053524629270337    0.5048126800107378    
  0.46053530648680135    0.46053957619969266    0.3859158021554983    0.28218537383012365    0.19959491312238725    
  0.1581047066873998    0.15810309509475262    0.19959547731928684    0.28217803737539954    0.3859258132759477    
  0.46053530648680135    0.3550129730912519    0.3859158308356375    0.3550209332342689    0.282178565559008    
  0.20762291979436737    0.15863411836558972    0.1422946781200612    0.15863477593281794    0.20762631445188812    
  0.2821780662921658    0.3550129730912519    0.24805664878059164    0.2821854680301814    0.28217854299109185    
  0.24805817527780302    0.1995963002561155    0.15863668980295517    0.13665508779237037    0.13665355975847995    
  0.15863474509302586    0.1995954828130831    0.24805664878059164    0.17993077994806966    0.19959486279690758    
  0.2076228722027187    0.19959626131049832    0.17992845747378244    0.15810415226571659    0.14229184448559748    
  0.13665507642394523    0.14229472357663434    0.15810311226340734    0.17993077994806966    0.1577750245552807    
  0.15810466593475545    0.15863408327205444    0.15863667000496548    0.15810418973065765    0.15777647715578386    
  0.15810415916000325    0.15863668209400644    0.15863410838325817    0.15810465693949732    0.1577750245552807    
  0.17993073092169082    0.15810306995296278    0.14229472825106151    0.13665507503625607    0.14229185230343078    
  0.15810417694143325    0.1799283967812479    0.1995963133378984    0.2076228849904129    0.1995949345958323    
  0.17993073092169082    0.24805667134518214    0.19959546456832294    0.15863476554202946    0.13665357226603417    
  0.13665511192365415    0.15863670786101092    0.19959628479326044    0.24805817505776187    0.2821786107346692    
  0.2821854984194436    0.24805667134518214    0.35501296108707064    0.2821780134921888    0.20762627702803277    
  0.15863477262668327    0.14229473841586027    0.15863412691865733    0.20762286971764457    0.2821785955729747    
  0.3550209541539604    0.385915849642304    0.35501296108707064    0.46053527406370764    0.3859258012125167    
  0.2821779688308259    0.19959543042614009    0.15810312225179227    0.15810468821693896    0.19959485914783812    
  0.28218543112233113    0.3859158765189939    0.4605396090666801    0.46053527406370764    0.5048126800107378    
  0.4605352830821689    0.35501295350864165    0.24805669722798893    0.17993079489099248    0.15777503487459424    
  0.1799307819642677    0.2480566547956386    0.35501298558283356    0.46053524629270337    0.5048126800107378    
  0.48634268493011884    0.43954009628490287    0.3323397008600364    0.22879389997859503    0.16440927309900244    
  0.14349425569661445    0.16440926304788203    0.22879386248875164    0.332339663745441    0.43954008325600147    
  0.48634268493011884    0.43954009103548813    0.43954886057470627    0.3630791864516161    0.2612599488452639    
  0.18296203920457135    0.14391170137376708    0.1439113588031928    0.18296199866228777    0.26125704534666316    
  0.3630851648665828    0.43954009103548813    0.33233971225138037    0.3630791864766105    0.332338303396297    
  0.26125728549199034    0.19052503616526412    0.14466371118779306    0.12929731645514914    0.14466406009219915    
  0.19052488515471197    0.2612570319447602    0.33233971225138037    0.22879387869537804    0.26126006497174176    
  0.2612573068210482    0.22879909236258117    0.1829639861002267    0.14466147758887546    0.12417653864927593    
  0.12417458207840475    0.14466405258681855    0.18296198445033604    0.22879387869537804    0.1644092630695059    
  0.1829620391000312    0.1905249950966383    0.18296392122577115    0.16440254447272323    0.14391188257712212    
  0.12929869401530336    0.1241765422022399    0.12929734853259933    0.14391139522837207    0.1644092630695059    
  0.14349424191208723    0.14391168802980644    0.1446636806617611    0.14466145545083456    0.14391189410866595    
  0.14349969151216582    0.14391187397170763    0.1446614615549298    0.14466368349945866    0.1439116688075114    
  0.14349424191208723    0.1644092234048973    0.14391138084589242    0.12929734687311456    0.12417653070413331    
  0.12929875643180588    0.14391189559110193    0.16440248736072302    0.1829639764416229    0.19052501965734528    
  0.1829620390644522    0.1644092234048973    0.22879387745124896    0.1829619393355596    0.1446640433069399    
  0.12417457690408058    0.12417656208759947    0.1446614659967545    0.1829639560562323    0.22879905084190966    
  0.2612573314473987    0.2612600814492312    0.22879387745124896    0.3323397060169769    0.26125703142725853    
  0.1905248346313546    0.14466409833469251    0.12929734109552    0.14466371249390367    0.19052502927178105    
  0.26125730946704634    0.33233838796372667    0.363079188986835    0.3323397060169769    0.4395401249176514    
  0.36308516627304954    0.26125696336532966    0.18296193486151863    0.14391139770646558    0.14391169183248573    
  0.1829620124357114    0.26126003441910706    0.3630792159042    0.43954892525966704    0.4395401249176514    
  0.48634268493011884    0.43954009628490287    0.3323397008600364    0.22879389997859503    0.16440927309900244    
  0.14349425569661445    0.16440926304788203    0.22879386248875164    0.332339663745441    0.43954008325600147    
  0.48634268493011884    0.5048126689745401    0.46053529127213466    0.35501298020669675    0.2480566992388498    
  0.17993076940227445    0.15777503325446904    0.1799307553041647    0.24805663976838727    0.35501296245208874    
  0.4605352499352234    0.5048126689745401    0.4605353410105408    0.4605395922815234    0.3859158221734955    
  0.28218537038119823    0.1995949051501985    0.15810469305982486    0.15810310508146339    0.19959550691091454    
  0.28217802875882847    0.3859258072184181    0.4605353410105408    0.3550129594558851    0.3859158221476243    
  0.35502094670017953    0.28217855412428094    0.20762295061097394    0.15863411494304777    0.142294681172134    
  0.15863478498081693    0.2076263358226224    0.2821780580965608    0.3550129594558851    0.24805662983888468    
  0.282185454536758    0.2821785431364588    0.24805816024994615    0.19959632412970102    0.1586366992440965    
  0.13665508195078863    0.13665355646602964    0.15863476737729565    0.1995954678731792    0.24805662983888468    
  0.1799307651442986    0.19959488947010728    0.20762286595488808    0.19959627415880526    0.17992844960569843    
  0.15810416029218965    0.1422918288612827    0.1366550856924823    0.1422947237116097    0.15810312308231667    
  0.1799307651442986    0.1577750337472654    0.15810466565097323    0.1586340806059354    0.15863668822290752    
  0.15810418013260247    0.15777648049420878    0.15810414770708867    0.15863667177337762    0.15863410450166904    
  0.15810466915927518    0.1577750337472654    0.1799307618713794    0.15810308114751437    0.14229473803092466    
  0.13665507281585218    0.14229186616254635    0.15810418529394132    0.1799283824300867    0.19959629490077763    
  0.207622878103549    0.19959492856495847    0.1799307618713794    0.2480566895366882    0.199595477347726    
  0.1586347719644045    0.1366535463474753    0.1366551124867134    0.15863669439843428    0.1995962719514971    
  0.24805816702380956    0.28217861015372464    0.28218551815280396    0.2480566895366882    0.355012958930224    
  0.28217799932208615    0.2076262627481525    0.15863479076106451    0.1422947276160465    0.1586341276378793    
  0.20762287571840482    0.2821786339137876    0.35502096760786495    0.38591584878930674    0.355012958930224    
  0.460535298588058    0.38592577691864793    0.2821779374261653    0.19959542885665835    0.15810312608871474    
  0.1581046922653005    0.19959484528833107    0.2821854307263912    0.3859158412871333    0.46053961287734685    
  0.460535298588058    0.5048126689745401    0.46053529127213466    0.35501298020669675    0.2480566992388498    
  0.17993076940227445    0.15777503325446904    0.1799307553041647    0.24805663976838727    0.35501296245208874    
  0.4605352499352234    0.5048126689745401    0.47986382457949106    0.46382087477940953    0.3992826158340979    
  0.30101822754297897    0.22569361704511143    0.1999668771820268    0.2256935708812409    0.3010182278253937    
  0.3992826394331003    0.46382084589576883    0.47986382457949106    0.4638208610785335    0.46379654105859386    
  0.42188427367872544    0.3354800246473074    0.24786821707269402    0.19999420705250642    0.19999569605577042    
  0.24786545734133794    0.3354682127199391    0.42188988731386057    0.4638208610785335    0.3992826208364933    
  0.421884281911944    0.3993193842532342    0.3354663328454508    0.2565799493126719    0.1997792079223926    
  0.1805602477862936    0.19977903984471412    0.2565912729414904    0.3354682591454402    0.3992826208364933    
  0.30101817169758305    0.3354800875257833    0.3354663747401051    0.30100546356163993    0.24786774651017549    
  0.19978913745497573    0.17337723799270127    0.17337832247376658    0.19977903823304724    0.24786541851222788    
  0.30101817169758305    0.22569356642759816    0.24786817872867445    0.2565798747805726    0.24786768508699372    
  0.22570368874304406    0.1999937819057889    0.18055180141624735    0.17337723923637935    0.18056028832069673    
  0.19999573443970703    0.22569356642759816    0.19996682159122792    0.19999415198572965    0.19977918798992308    
  0.19978912982339664    0.19999383760128872    0.19995819584326982    0.19999380303270942    0.1997890913444416    
  0.19977919894862    0.19999418099709296    0.19996682159122792    0.2256935787558611    0.19999571214009332    
  0.1805602811647866    0.1733772224609902    0.18055185838427634    0.1999937907547819    0.22570363722658224    
  0.24786769604597086    0.25657994483312346    0.2478682273481097    0.2256935787558611    0.30101824622902457    
  0.24786543673569342    0.19977899663883336    0.17337832856398033    0.17337727098919506    0.19978910689479978    
  0.24786765031846023    0.301005507349278    0.3354664126082663    0.3354801089396842    0.30101824622902457    
  0.3992826609376413    0.3354681777624696    0.2565912384098112    0.19977903213796477    0.18056029495887785    
  0.19977922164803688    0.2565799102215679    0.3354664179896281    0.39931937460058736    0.4218843010656779    
  0.3992826609376413    0.46382087085808016    0.42188988062576205    0.33546811848378816    0.24786535476400864    
  0.19999576436713662    0.1999941809330439    0.24786816005369666    0.3354800082930681    0.42188434177968087    
  0.4637965503390874    0.46382087085808016    0.47986382457949106    0.46382087477940953    0.3992826158340979    
  0.30101822754297897    0.22569361704511143    0.1999668771820268    0.2256935708812409    0.3010182278253937    
  0.3992826394331003    0.46382084589576883    0.47986382457949106    0.2882869338865787    0.3338407920140428    
  0.3958839208483871    0.3641850144808936    0.2920045741309789    0.26215286588005215    0.2920045213073678    
  0.36418498780799813    0.3958838881705344    0.33384077602556117    0.2882869338865787    0.3338408118712869    
  0.3336571328632819    0.3861012002607776    0.3851510851775612    0.3153962319444263    0.2617460297719399    
  0.26177561580705944    0.3153640199607512    0.38514140447839196    0.38606095557353115    0.3338408118712869    
  0.3958839014358937    0.3861012153245323    0.3960849048456743    0.38509989020130037    0.323415381689507    
  0.2606648051136213    0.23755957329345803    0.26066562104460056    0.3234484637950855    0.38514146686999984    
  0.3958839014358937    0.36418493588025963    0.38515118591772657    0.3850999418455889    0.36408344366589007    
  0.3153740246546637    0.26071075676885597    0.2284011754438975    0.2284123144141766    0.2606655878732363    
  0.3153639986202539    0.36418493588025963    0.2920045311429095    0.3153962393928312    0.32341531291760967    
  0.31537398384913545    0.2921068075057582    0.2617561371100059    0.2375251508697321    0.22840117048280034    
  0.23755960491780054    0.26177566293609755    0.2920045311429095    0.2621527705970506    0.2617459767013317    
  0.2606648030988066    0.2607106976227387    0.261756172631897    0.26206199399699664    0.2617561586623471    
  0.26071072679329454    0.2606647896328205    0.2617460204772216    0.2621527705970506    0.2920045271250944    
  0.26177564898408956    0.23755963111305547    0.22840116098822943    0.2375251953685108    0.2617561491913498    
  0.2921067157605922    0.3153740248224703    0.3234153591792786    0.3153962458665062    0.2920045271250944    
  0.364185016459028    0.31536403559564546    0.260665555453243    0.22841231842128393    0.22840120472142925    
  0.26071070398214335    0.3153739541219052    0.3640834619141556    0.38509996967169846    0.38515121322171014    
  0.364185016459028    0.395883925919699    0.38514138615165033    0.3234484439450589    0.26066557106529437    
  0.2375596430093851    0.26066484589384714    0.32341532158178704    0.3850999607373643    0.396084896852054    
  0.3861012300785458    0.395883925919699    0.33384082159505096    0.3860609698357655    0.38514128881116244    
  0.315363925950919    0.2617757123672106    0.26174601504150097    0.31539618807515774    0.3851510969004812    
  0.386101256646591    0.33365716754597047    0.33384082159505096    0.2882869338865787    0.3338407920140428    
  0.3958839208483871    0.3641850144808936    0.2920045741309789    0.26215286588005215    0.2920045213073678    
  0.36418498780799813    0.3958838881705344    0.33384077602556117    0.2882869338865787    0.10079893894438713    
  0.16335316146809592    0.32761731978667846    0.403363536003405    0.35307025641615264    0.3217564653362582    
  0.3530702433099615    0.40336346907907483    0.32761732981072145    0.16335317456836515    0.10079893894438713    
  0.1633531839954334    0.1630538175573749    0.28205892145909783    0.3963242740359309    0.3739488448575013    
  0.3206685463085547    0.32076706559530105    0.37385576628601225    0.39627561596788563    0.2820001524457289    
  0.1633531839954334    0.32761732865686244    0.28205894807322796    0.32808680172061916    0.39617927635948047    
  0.37922258389442154    0.3188145430081262    0.29280397853083706    0.31880246990481603    0.37935438760228474    
  0.39627565208177995    0.32761732865686244    0.40336343681573233    0.39632439439673306    0.39617925939980936    
  0.403080610677517    0.37386592698079374    0.3189692265992841    0.28199379294221005    0.2820471192785509    
  0.3188024231889438    0.37385578877210607    0.40336343681573233    0.35307021024690527    0.3739487785244785    
  0.3792224966691298    0.37386585689807394    0.3533884071547336    0.3207111611103442    0.2926833986405189    
  0.2819937860727834    0.29280404202422927    0.3207670821781606    0.35307021024690527    0.32175642162220597    
  0.32066852562450693    0.31881448470185675    0.3189691994239984    0.32071121994010054    0.3214638905297395    
  0.32071116586521864    0.3189692053109975    0.31881453212858923    0.32066849486686566    0.32175642162220597    
  0.35307016210966874    0.3207670441666474    0.29280402296941316    0.2819937912474132    0.2926834192466701    
  0.32071117578551683    0.35338830753346157    0.3738659033884511    0.3792225263270455    0.3739488903673043    
  0.35307016210966874    0.4033634736044749    0.3738557672459386    0.3188024206312415    0.28204713194062575    
  0.2819938535297849    0.3189692498965707    0.3738658569924966    0.40308062206136    0.39617932200266964    
  0.3963244214357715    0.4033634736044749    0.3276173177339577    0.39627560474164253    0.3793543200386258    
  0.31880243721358753    0.2928040889907484    0.3188145618233841    0.3792224888013437    0.3961793147404183    
  0.32808682368020564    0.28205896378814965    0.3276173177339577    0.16335318758324943    0.2820001554056626    
  0.3962755342157453    0.37385571884952995    0.3207671198557062    0.3206685259533285    0.373948771836678    
  0.3963243177773596    0.2820589614168763    0.16305384171298395    0.16335318758324943    0.10079893894438713    
  0.16335316146809592    0.32761731978667846    0.403363536003405    0.35307025641615264    0.3217564653362582    
  0.3530702433099615    0.40336346907907483    0.32761732981072145    0.16335317456836515    0.10079893894438713    
  0.051322629981436614    0.10495419657395004    0.2875238550602485    0.41328553742830054    0.378196448759673    
  0.3471913182107934    0.3781964314391442    0.41328548944690063    0.2875238133217126    0.10495421364857616    
  0.051322629981436614    0.10495421448471007    0.10468012783541457    0.23086427002671933    0.39095754199853394    
  0.39663875833029666    0.3456127492477438    0.34574258195141067    0.3965223921759494    0.39086451072136164    
  0.23082576320957807    0.10495421448471007    0.28752385305799383    0.2308642731851374    0.2880759158188838    
  0.3907585461865763    0.40003526630043806    0.34322053716607964    0.31627743183810647    0.3431979576334157    
  0.40024154691045016    0.3908645211861287    0.28752385305799383    0.4132854878401466    0.39095766768436774    
  0.3907585865218965    0.41293044725647976    0.3965173326615897    0.34345284424505096    0.3047132774822894    
  0.30479638916968443    0.34319793553866657    0.39652238058328293    0.4132854878401466    0.37819639330241955    
  0.3966387702567032    0.4000351767781946    0.39651721578858856    0.378621134849033    0.345674590545298    
  0.3160917387731929    0.3047132728703374    0.31627747001277484    0.3457426519733327    0.37819639330241955    
  0.3471912920673349    0.34561280160896496    0.3432204696077678    0.34345282376356273    0.34567463168665613    
  0.3467925345854211    0.345674578761114    0.34345283312096575    0.34322049657350434    0.3456127348538667    