#     DFTpy    
  CRYSTAL 
    
  PRIMVEC    
  3.045438507463003    1.2740986170480001e-05    -3.1944e-13    
  -1.5227082197131674    2.6374335598869956    -6.25e-12    
  -5.252800000000001e-13    -1.216968e-11    5.007174100921899    
  PRIMCOORD    
  4    1    
  Si    7.581267276653038e-06    1.7582931623509097    2.815903677431145    
  Si    1.5227227064789906    0.8791531385006829    0.3123165899960539    
  Si    7.5812684208049515e-06    1.758293162350184    4.694857473949251    
  Si    1.5227227064839328    0.8791531385202159    2.1912704604542093    
  BEGIN_BLOCK_DATAGRID_3D    
  3d_datagrid_density    
  BEGIN_DATAGRID_3D#0    
  13    13    23    
  0.0    0.0    0.0    
  3.045438507463003    1.2740986170480001e-05    -3.1944e-13    
  -1.5227082197131674    2.6374335598869956    -6.25e-12    
  -5.252800000000001e-13    -1.216968e-11    5.007174100921899    
  0.166256473542155    0.19299036831571054    0.28022016837540686    0.4432391815572532    0.6666458304250037    
  0.8660501538853292    0.9449546937449516    0.8660501506561704    0.6666459746342354    0.4432391400168736    
  0.2802202137875648    0.19299034179210164    0.166256473542155    0.19299038483937975    0.19300429773581987    
  0.2498519281128855    0.3738602654400059    0.5566073100682718    0.7238524312373055    0.8027940843034526    
  0.8031079274821938    0.7241679322152075    0.5562994839051807    0.37379196241256907    0.2499414904048808    
  0.19299038483937975    0.28022018316779784    0.24985186317824173    0.2803045519981935    0.3738392627854433    
  0.5106906667646034    0.5909199823109913    0.5453099192579258    0.497944817796417    0.544756431645128    
  0.590955518656035    0.5110390431481666    0.3737920590051424    0.28022018316779784    0.44323920632824393    
  0.37386030310443225    0.37383923089806986    0.4431161033307031    0.5566680503810759    0.5909593738979046    
  0.43295991001124384    0.2699871131029769    0.27024801083959643    0.43299858709605854    0.5909555642000571    
  0.5562994018408373    0.44323920632824393    0.6666459927389023    0.5566071149295961    0.5106906863444631    
  0.5566681771943224    0.6663692249858978    0.7242264899756763    0.5448922221050634    0.2702383950791665    
  0.1714993052107269    0.27024810280598754    0.544756479789658    0.7241678554369145    0.6666459927389023    
  0.86605021827572    0.7238522664097159    0.5909199002993925    0.5909595788440618    0.7242266162250098    
  0.8659501718545105    0.8028839893384289    0.49794685403273714    0.2702384820870343    0.2699871984217391    
  0.49794498370791485    0.8031079103040546    0.86605021827572    0.9449546808192193    0.8027937635191066    
  0.5453098785148348    0.4329599473619868    0.5448923334258775    0.8028840786261142    0.945271374027411    
  0.8028841230150966    0.5448923603347875    0.4329599348325754    0.545309946999204    0.8027937957194263    
  0.9449546808192193    0.8660502238092973    0.8031080344630848    0.4979449807078013    0.2699871487914281    
  0.27023848404800355    0.49794700310032114    0.8028840330899095    0.8659500319728178    0.7242264790398115    
  0.5909596304407834    0.590919746540107    0.723852186067883    0.8660502238092973    0.6666459944926735    
  0.7241677594260705    0.5447565008315148    0.27024812066419973    0.1714992759190088    0.2702384660761297    
  0.5448922719151875    0.7242263581133678    0.6663693110449936    0.5566681824669795    0.51069070990531    
  0.5566072321013809    0.6666459944926735    0.44323920951150264    0.556299286369809    0.5909554860386786    
  0.4329985960872045    0.27024804809815217    0.2699871628916961    0.43295994560759404    0.5909595709892671    
  0.5566680681913121    0.4431161026550221    0.3738392689913144    0.37386026569296615    0.44323920951150264    
  0.28022020276223886    0.37379200226356235    0.5110389550704548    0.5909554288990919    0.5447565110076225    
  0.4979447775767312    0.545309706720496    0.5909196825216873    0.5106906878183627    0.3738392603989314    
  0.2803044652246301    0.2498518875809505    0.28022020276223886    0.19299035776819892    0.2499415085391762    
  0.37379203937138095    0.556299319107148    0.7241678075831087    0.8031078184463183    0.8027938910354334    
  0.7238523526474793    0.5566071847927483    0.37386030228572364    0.24985194720756457    0.19300431572480983    
  0.19299035776819892    0.166256473542155    0.19299036831571054    0.28022016837540686    0.4432391815572532    
  0.6666458304250037    0.8660501538853292    0.9449546937449516    0.8660501506561704    0.6666459746342354    
  0.4432391400168736    0.2802202137875648    0.19299034179210164    0.166256473542155    0.15847828710700598    
  0.18339745843973312    0.2645569830688845    0.41560003921505273    0.6212652853235112    0.802529977393374    
  0.8735927336770302    0.8026405071497943    0.6209711906198475    0.41562484384696924    0.2646543101421516    
  0.18338443409942617    0.15847828710700598    0.18338448101167956    0.18341516479246864    0.23929195885624924    
  0.36102117951642554    0.5326220034741813    0.6669334803687922    0.7072748087907325    0.7075270816899373    
  0.6672727184302079    0.5325306112581951    0.3608481512533683    0.23936811241917552    0.18338448101167956    
  0.26465431937230466    0.23336824019058489    0.2646825075275003    0.3608900032941655    0.4939938630811544    
  0.5341821100722817    0.43021648779074206    0.36207717906697046    0.42968930653084914    0.5342268910603909    
  0.494257508120441    0.3608481967153144    0.26465431937230466    0.4156248588350553    0.3418262978911639    
  0.3418879533542676    0.41551153569967203    0.5327271548164966    0.5343183410424962    0.31627769605634376    
  0.1487044175717238    0.14891650661115868    0.31629867975011333    0.5342268972555634    0.5325306395467184    
  0.4156248588350553    0.6209712360017666    0.5080116746021315    0.46221751702908886    0.5080260011432944    
  0.6208858774285217    0.6672981936859155    0.4297435145341632    0.14891362538556635    0.07245267591720303    
  0.14891654726734865    0.4296892561378432    0.6672725571113237    0.6209712360017666    0.8026404935064229    
  0.6826009702274661    0.575819764044282    0.5757685102103812    0.6828310068246941    0.8025364094032762    
  0.7073425612972232    0.3620940887093961    0.14891369375723387    0.14870444619421302    0.36207719732579136    
  0.7075270980878943    0.8026404935064229    0.873592720633701    0.7901269836741227    0.6196866597505168    
  0.5410596431417304    0.6195128235637269    0.790133847411024    0.8739264699682406    0.7073425690433045    
  0.42974359575296595    0.31627773774070456    0.430216466422883    0.7072747071091318    0.873592720633701    
  0.8025300271159947    0.7904588613604838    0.6192751201397544    0.45885923472686235    0.4589456655049762    
  0.6193723057193663    0.7901338424364909    0.8025363038586038    0.6672981727366397    0.5343185885098993    
  0.5341820242380728    0.6669333270173474    0.8025300271159947    0.6212653601163655    0.6827707289143179    
  0.6192884392783022    0.45897054121661635    0.3789085776886667    0.458945680195237    0.6195126667502112    
  0.6828307422518822    0.620885807483675    0.5327272538551059    0.4939939550625272    0.5326219344672533    
  0.6212653601163655    0.4156000754563428    0.5076225454148939    0.5757882831841462    0.5412199014064957    
  0.45897050719629917    0.4588591786559456    0.5410596239115889    0.5757685295663191    0.5080259268722811    
  0.41551146430864233    0.36089000114914505    0.36102115838879856    0.4156000754563428    0.2645569987663714    
  0.34183131128995975    0.4625919487750878    0.5757882438636934    0.619288421187598    0.6192748953301872    
  0.6196865826880134    0.5758195520467996    0.4622176207027287    0.34188793622786745    0.26468244370604443    
  0.239291911648029    0.2645569987663714    0.18339748372994832    0.23348651982168722    0.3418312843021104    
  0.507622480042126    0.6827709384520533    0.7904587561278942    0.7901272561605401    0.6826010792644872    
  0.5080116891977143    0.34182632205325436    0.23336832633080204    0.18341516702062097    0.18339748372994832    
  0.15847828710700598    0.18339745843973312    0.2645569830688845    0.41560003921505273    0.6212652853235112    
  0.802529977393374    0.8735927336770302    0.8026405071497943    0.6209711906198475    0.41562484384696924    
  0.2646543101421516    0.18338443409942617    0.15847828710700598    0.13914991037234162    0.15965798578656087    
  0.22619077066109408    0.34861356675553457    0.5134088535229586    0.6578204779777134    0.7143209390049169    
  0.6579210157721993    0.5130779442713943    0.3486556441658796    0.226285276840623    0.15964854499671688    
  0.13914991037234162    0.15964859108913368    0.15966853163784214    0.20849512966584352    0.31504067117187423    
  0.4655926415713548    0.5845368854289881    0.6202407519217165    0.6204273224604194    0.5848468521019324    
  0.465568666621243    0.3148915129636034    0.20854087658284767    0.15964859108913368    0.22628527000154935    
  0.19780367788399314    0.22629673367118533    0.3149108048551647    0.44230116800763175    0.4942177349037115    
  0.41227730362760207    0.35277906755849164    0.4117960489439135    0.4942885611942545    0.44245843212386926    
  0.31489153978573503    0.22628527000154935    0.3486557004854731    0.27964896406896095    0.2797236726358575    
  0.34855801726498525    0.46567976841108255    0.49436230140422255    0.317336831504726    0.16250205230903594    
  0.162739039136459    0.31731531506584165    0.4942885816841759    0.4655684950737394    0.3486557004854731    
  0.5130780149869257    0.40566332669474897    0.36531348581189116    0.4056649848558488    0.513078193685911    
  0.5848498166383129    0.41181973126741517    0.16273629508091472    0.08683827059728044    0.162739095659323    
  0.41179603891318284    0.5848468642402819    0.5130780149869257    0.6579210474929251    0.545157303524024    
  0.4628842718972426    0.4628103316474584    0.5452816327366147    0.6578287703034585    0.6203191166442172    
  0.35276306484034586    0.16273634656992836    0.16250205240713114    0.35277911366079967    0.6204272808130158    
  0.6579210474929251    0.7143210104472194    0.6401426882057657    0.5345621542741114    0.48997902401669374    
  0.5345273206897627    0.6401302008124589    0.7145559968337131    0.6203190763271763    0.4118196988049922    
  0.3173368360999053    0.41227725777171753    0.6202405908729549    0.7143210104472194    0.6578205488664486    
  0.6403804851414482    0.5588372495865305    0.48602428768727524    0.48599939395076125    0.5589366771560635    
  0.6401300759662661    0.6578286801395825    0.5848498883359964    0.49436245564200715    0.49421767201371314    
  0.5845367138747046    0.6578205488664486    0.5134089630267433    0.5452233005086147    0.5343456311726936    
  0.48601908776434855    0.4570133556034037    0.4859994364445917    0.5345272083602128    0.5452814080144064    
  0.5130781880732651    0.4656799079893746    0.4423012047701155    0.46559262146405117    0.5134089630267433    
  0.34861361286816117    0.40534671974832104    0.4628328532795661    0.49014097445236565    0.4860189940355019    
  0.4860242205887327    0.48997896056885765    0.46281029740250385    0.40566499491327906    0.3485579713445287    
  0.31491084277119913    0.31504069656834305    0.34861361286816117    0.22619080643385306    0.27967471489461976    
  0.3656106199529099    0.4628329528667872    0.5343456195146054    0.5588369779544299    0.5345622176323969    
  0.46288413896656294    0.36531355641714613    0.2797236787235632    0.226296652247406    0.2084950711184526    
  0.22619080643385306    0.15965800020807203    0.19789819089199742    0.27967473453300185    0.4053468102049611    
  0.5452233494953622    0.6403804203695413    0.6401428060030759    0.5451573660931166    0.4056634759848645    
  0.2796489468437565    0.19780373648076402    0.15966856631689902    0.15965800020807203    0.13914991037234162    
  0.15965798578656087    0.22619077066109408    0.34861356675553457    0.5134088535229586    0.6578204779777134    
  0.7143209390049169    0.6579210157721993    0.5130779442713943    0.3486556441658796    0.226285276840623    
  0.15964854499671688    0.13914991037234162    0.11660013379623531    0.13222081384321208    0.18285344815668514    
  0.2752287426926477    0.3995956421612079    0.5115719047531281    0.5568063821211146    0.5116095516513448    
  0.3994217946263146    0.2752637562449016    0.18288981489101547    0.132219607266002    0.11660013379623531    
  0.13221961942266244    0.13222535814073477    0.17223100611303255    0.2608390475959695    0.3934074887460604    
  0.5189226628291861    0.5798320777665203    0.5799346649360585    0.5191049547996265    0.39338535087172033    
  0.2607799971951732    0.1722484172903077    0.13221961942266244    0.18288979365593935    0.15867496322374647    
  0.1828984168974511    0.2607776318627924    0.38771489294828176    0.49385672137328357    0.5001621493612933    
  0.47639509711006833    0.49983119480798716    0.4939293303697052    0.3877675975474598    0.2607800080234178    
  0.18288979365593935    0.2752638240873112    0.21477638553362938    0.21481090642182193    0.2752157734273542    
  0.39344051354260406    0.4939476270665938    0.44574351682274405    0.3358305668356139    0.33608434600987513    
  0.4456865871908222    0.4939293258759927    0.39338530304066927    0.2752638240873112    0.39942180815890804    
  0.29963297381638865    0.266091836573071    0.29963318982534076    0.3994281591486031    0.5191023860073335    
  0.49984076730630306    0.33608146339518913    0.2544444357339558    0.3360844026594557    0.4998311752212906    
  0.5191049589649438    0.39942180815890804    0.5116095412991891    0.3937765013172286    0.3269376055877525    
  0.3269068456442114    0.39382604720765924    0.5115601170335665    0.5799080625382347    0.47634262463337695    
  0.3360815689781034    0.3358306473926063    0.47639508170578204    0.5799346461802931    0.5116095412991891    
  0.5568064053514193    0.45939774370585673    0.3775437208282867    0.34817542281925096    0.3775307772008079    
  0.4594058751605673    0.5568842504836734    0.5799080979478205    0.49984065315151105    0.44574349636545046    
  0.5001621420597495    0.5798320950803635    0.5568064053514193    0.5115719794160264    0.4594964268406257    
  0.3975490961350083    0.3580121211754009    0.3579985425973945    0.39758937435176317    0.45940579616951327    
  0.5115600940794778    0.5191024791551639    0.4939477686955611    0.49385667549257456    0.5189225640770867    
  0.5115719794160264    0.39959568654559935    0.39378443551115283    0.3774674457587619    0.35800188363119007    
  0.34878510311993005    0.3579985670685307    0.37753068115283833    0.39382599725181866    0.39942810335743584    
  0.39344056398768096    0.3877149393110877    0.39340744288801055    0.39959568654559935    0.2752287548229418    
  0.2994874827595963    0.32691367691666934    0.34823753392635215    0.35800181969716716    0.3580121057161074    
  0.34817537731569304    0.3269068700280421    0.29963309437668284    0.2752157393258729    0.2607776812940333    
  0.26083906271417595    0.2752287548229418    0.18285344951527044    0.21478768638189438    0.26622836598427224    
  0.32691372411713715    0.37746738533472196    0.397548901165183    0.3775437148333818    0.32693751365122986    
  0.26609190038168573    0.2148108621961844    0.18289835774449534    0.17223097158092424    0.18285344951527044    
  0.13222086219101936    0.15871376986741728    0.21478769242990883    0.2994875078269618    0.3937845524774678    
  0.45949646128334315    0.45939774544999706    0.39377661629709415    0.2996330704123551    0.2147764260695621    
  0.15867500619540698    0.13222536962006465    0.13222086219101936    0.11660013379623531    0.13222081384321208    
  0.18285344815668514    0.2752287426926477    0.3995956421612079    0.5115719047531281    0.5568063821211146    
  0.5116095516513448    0.3994217946263146    0.2752637562449016    0.18288981489101547    0.132219607266002    
  0.11660013379623531    0.09823612338779063    0.11019772604486949    0.14910302667531827    0.21999571067162682    
  0.3162494168150559    0.4057650936801426    0.4430321708180877    0.4057711958612883    0.31621864084986007    
  0.22000800498560932    0.14910632537584226    0.11019869629677576    0.09823612338779063    0.11019870589300879    
  0.11019964859682913    0.14327728896174868    0.21791708429865606    0.33658328953810834    0.46845764263258105    
  0.5538099267980243    0.5538357859693523    0.46850969415276095    0.3365703413022188    0.21791036814805778    
  0.14328522688910922    0.11019870589300879    0.1491063035725254    0.12836985680024568    0.14911048127422719    
  0.21790966941195047    0.3434752080303226    0.49812173992982733    0.6075947781908813    0.6397961994189273    
  0.6074940919850966    0.4981455407515682    0.34349250858747254    0.21791033138501817    0.1491063035725254    
  0.2200079860301603    0.1667283607069703    0.16673416824490545    0.21999323012521485    0.3365883797023919    
  0.4981434605514106    0.6151434919375293    0.639704206118743    0.6398082756189768    0.6151199794259947    
  0.4981455639861009    0.3365703003438647    0.2200079860301603    0.3162186279982692    0.22402456147248975    
  0.19522628439635248    0.22402458277231416    0.31621640474676627    0.4685074260100128    0.6074976460175904    
  0.63980578978303    0.6249300370737174    0.6398083922617215    0.6074941435050007    0.4685096896414501    
  0.3162186279982692    0.4057712552820171    0.28717757387124504    0.22957067570748457    0.22956728115444938    
  0.28719379824633345    0.4057573525600946    0.5538316463734194    0.6397708997533254    0.6398059251320121    
  0.6397042720421297    0.6397963160252393    0.5538356883641444    0.4057712552820171    0.4430321754552368    
  0.3306524510094023    0.25894574080342475    0.23540284899643965    0.258936087139801    0.33065464977377573    
  0.44305084150164487    0.5538318123925949    0.6074975927356994    0.6151434834347522    0.6075947542731236    
  0.5538098725896234    0.4430321754552368    0.4057652098631047    0.3306665996492911    0.2707562267973928    
  0.23919169898464337    0.23919253319964082    0.27077039179548285    0.3306545216469397    0.40575730401431437    
  0.46850753725234034    0.49814352511122545    0.4981216159884709    0.468457578044748    0.4057652098631047    
  0.3162494682189696    0.2871806570215662    0.2589295059175578    0.23919140787411014    0.2321118912537202    
  0.23919261580081932    0.2589361306177553    0.28719378112117133    0.3162163785615827    0.3365883941438424    
  0.343475211020693    0.3365833272351727    0.3162494682189696    0.2199956953525686    0.22399148715998257    
  0.2295616699578072    0.23541182622139298    0.2391913697170226    0.23919170257010394    0.23540281870968302    
  0.229567311606014    0.22402454812644818    0.2199931669090248    0.2179096488047299    0.21791706171447386    
  0.2199956953525686    0.14910306148200328    0.16672501759819097    0.19525912407885848    0.2295616783913536    
  0.25892950456834335    0.27075610490648794    0.2589457523016097    0.2295706117937328    0.19522633135967832    
  0.1667341722892398    0.14911045165622216    0.14327722009078278    0.14910306148200328    0.11019774605263193    
  0.12837623762382852    0.16672505096533308    0.22399152188586374    0.287180762653371    0.3306665602340789    
  0.33065244212050027    0.2871775820007449    0.22402464436427022    0.16672836705890065    0.12836989896254586    
  0.11019966922122808    0.11019774605263193    0.09823612338779063    0.11019772604486949    0.14910302667531827    
  0.21999571067162682    0.3162494168150559    0.4057650936801426    0.4430321708180877    0.4057711958612883    
  0.31621864084986007    0.22000800498560932    0.14910632537584226    0.11019869629677576    0.09823612338779063    
  0.08842940426427033    0.09854818245193833    0.13159211184379319    0.19178017262458907    0.27379766947640344    
  0.3508689827188606    0.3831507299520471    0.3508719171448734    0.27379952017375525    0.19178611359222208    
  0.13158925276727088    0.09854852319375174    0.08842940426427033    0.09854853699801226    0.09854969010741976    
  0.12810731795005773    0.19540988484461816    0.30538806425383536    0.4362655851679167    0.5300595093082129    
  0.5300974358289382    0.43627285463160737    0.30538487611457354    0.19540781599877985    0.12811827165837308    
  0.09854853699801226    0.13158925028525284    0.11259785391704412    0.1315959376076293    0.19540503792988223    
  0.31827051502823106    0.4923640826775753    0.6557160992334429    0.7230828850918148    0.6556592705850023    
  0.4923851876071975    0.3182802194672908    0.19540779064377173    0.13158925028525284    0.1917861223098006    
  0.1423796871818128    0.14237435121233635    0.19178128103871847    0.305391206907953    0.49238374299552917    
  0.7045888504807731    0.8435005133832828    0.8435532394579072    0.7045980050203455    0.49238513196539824    
  0.30538487420751464    0.1917861223098006    0.2737994910534195    0.1869311537481013    0.16040713117602823    
  0.1869321196226095    0.2737924014550717    0.43627014310504963    0.6556768022686962    0.8435495211436634    
  0.9146870307202826    0.843553451795782    0.6556593245711464    0.43627283581565446    0.2737994910534195    
  0.35087201884769864    0.2359156377002588    0.18320846439544086    0.1832115521389722    0.23592415812351697    
  0.35087120554857476    0.5300756653581323    0.7230704623049927    0.8435496714326892    0.8435005775607766    
  0.7230829667094573    0.5300974685838893    0.35087201884769864    0.3831507639772224    0.2687690052960217    
  0.20314682628549507    0.182052221933807    0.20313574570697568    0.2687673236334726    0.3831666865417395    
  0.5300756963491002    0.6556767882240558    0.7045888427452569    0.6557160564661252    0.5300594954433331    
  0.3831507639772224    0.35086905699054133    0.2687813064527692    0.21100635749929256    0.18224347405690935    
  0.18224212827467315    0.21102373199319643    0.26876725524754624    0.35087113570702777    0.436270213625602    
  0.49238378635052715    0.4923640221234357    0.43626554525364236    0.35086905699054133    0.27379772493593063    
  0.23591839452577085    0.2031327470924734    0.18224231066234917    0.17511567962998614    0.18224209283753706    
  0.20313572216693    0.23592405559839033    0.2737923855751015    0.3053912059557203    0.31827052863304844    
  0.3053880107149092    0.27379772493593063    0.19178017108384648    0.1869231917605323    0.18320219735294935    
  0.1820614266828825    0.18224226342962682    0.18224338260332743    0.18205218087319347    0.1832115020579317    
  0.18693207148020644    0.1917811937960614    0.19540503271717066    0.19540988128280035    0.19178017108384648    
  0.13159208341847362    0.14237105681300355    0.16041904452564787    0.18320220471414578    0.2031327078268881    
  0.21100626158126856    0.20314681654919362    0.1832083665241868    0.16040716737376576    0.1423743513233569    
  0.13159590251902428    0.12810725020650585    0.13159208341847362    0.09854819483692467    0.11259922580672029    
  0.14237109552455735    0.18692327773323825    0.23591846263821    0.26878134010581156    0.26876899078401567    
  0.23591561809810196    0.1869312013995962    0.1423797180238348    0.11259788074512987    0.09854970279527499    
  0.09854819483692467    0.08842940426427033    0.09854818245193833    0.13159211184379319    0.19178017262458907    
  0.27379766947640344    0.3508689827188606    0.3831507299520471    0.3508719171448734    0.27379952017375525    
  0.19178611359222208    0.13158925276727088    0.09854852319375174    0.08842940426427033    0.08842857644406757    
  0.09854905888269568    0.1315910886459409    0.191781370249609    0.2737962297947637    0.3508705971533427    
  0.38314902791472993    0.3508735191584056    0.2737980811320593    0.1917873215727673    0.13158824897328192    
  0.09854939797976098    0.08842857644406757    0.0985494099550309    0.09854880846311058    0.12810832495442767    
  0.19540867315844473    0.30538959094775947    0.43626377915871173    0.5300615072326581    0.5300954643315876    
  0.4362746609831081    0.30538335206810013    0.1954090519745004    0.1281172780586794    0.0985494099550309    
  0.13158823670719907    0.11259878725990984    0.131594945989766    0.19540624869767043    0.3182689885679344    
  0.4923660245748724    0.6557139458432526    0.7230852625774921    0.6556570271081975    0.4923870709820864    
  0.3182786535366422    0.1954090112821021    0.13158823670719907    0.19178733570984877    0.14237864878488646    
  0.14237539921693837    0.19178007298148828    0.3053927408264008    0.4923818368893635    0.7045910577226322    
  0.843498076562184    0.8435557122104659    0.7045957728797699    0.4923870297391755    0.3053833284515424    
  0.19178733570984877    0.273798045082762    0.1869323484079532    0.1604060232103946    0.18693333177973945    
  0.27379098228638804    0.43627195780972533    0.6556745935095492    0.8435520060688307    0.9146844279051674    
  0.8435559469851228    0.6556571192718161    0.4362746329508285    0.273798045082762    0.3508736659248261    
  0.23591428697758748    0.18320965361253708    0.18321036207968244    0.23592550644098081    0.3508695799745909    
  0.5300776502769687    0.7230681912398    0.8435521470774152    0.843498106420583    0.7230852796264627    
  0.5300954669692064    0.3508736659248261    0.38314907979484375    0.2687704522419273    0.20314560279859145    
  0.18205337041823672    0.20313447771577392    0.268768775352072    0.3831649599925741    0.5300777015848832    
  0.6556746162189347    0.7045910522167487    0.6557138993283984    0.5300614547715657    0.38314907979484375    
  0.3508706749360407    0.2687798802075621    0.21100762395222625    0.18224225060827115    0.18224329736436953    
  0.2110224124484402    0.26876868872480725    0.3508695182508057    0.4362720459073765    0.4923818849410936    
  0.49236591642185085    0.4362637609173589    0.3508706749360407    0.2737962612316629    0.23591972535307973    
  0.20313148505073766    0.1822435203689797    0.17511453194135002    0.18224327089065148    0.2031344631314005    
  0.23592540628723133    0.27379095079579296    0.3053927241367814    0.3182689814659604    0.3053895440438419    
  0.2737962612316629    0.191781392992512    0.1869219742436529    0.18320338952481507    0.1820602461244449    
  0.18224345672384187    0.18224221825546036    0.18205337003551533    0.1832103163231062    0.18693328288233474    
  0.19177999685784702    0.1954062614089272    0.19540865874172295    0.191781392992512    0.13159108966179184    
  0.1423721206074458    0.16041792683803607    0.18320341009333085    0.20313144612698478    0.2110075361002455    
  0.2031455433565356    0.18320952215346145    0.16040605783393208    0.14237540249949185    0.13159491044750735    
  0.12810823830293386    0.13159108966179184    0.09854907095988856    0.11259828268831454    0.1423721440055713    
  0.18692206274567985    0.23591982126231745    0.2687799024420159    0.2687704058171805    0.23591428912378948    
  0.18693238947336802    0.14237865590132978    0.11259881031472327    0.09854882748347184    0.09854907095988856    
  0.08842857644406757    0.09854905888269568    0.1315910886459409    0.191781370249609    0.2737962297947637    
  0.3508705971533427    0.38314902791472993    0.3508735191584056    0.2737980811320593    0.1917873215727673    
  0.13158824897328192    0.09854939797976098    0.08842857644406757    0.09823698769461943    0.11019680763653894    
  0.1491040856193317    0.21999441501029682    0.31625096228397226    0.405763342936622    0.4430339489685261    
  0.4057694251413691    0.3162201893863426    0.2200067215156941    0.1491073833293035    0.11019776650796445    
  0.09823698769461943    0.11019778758300805    0.11020056723103129    0.14327623656768437    0.2179183479348648    
  0.33658172704289313    0.4684594931287899    0.5538079250560768    0.553837733202925    0.4685078562297159    
  0.33657195653774996    0.2179090645361032    0.14328627535604524    0.11019778758300805    0.1491073742191484    
  0.12836887034630678    0.14911154291564108    0.21790839093188485    0.34347680959837656    0.4981198453150679    
  0.6075968750116326    0.6397941197202253    0.6074962327594801    0.49814365609303    0.3434941179002728    
  0.21790906930642817    0.1491073742191484    0.22000669881701354    0.16672947867187748    0.16673306502678248    
  0.21999451036094841    0.3365868056534964    0.4981453625039748    0.6151413692234436    0.6397063325231109    
  0.6398061251431656    0.6151221102396908    0.4981436677537726    0.3365718903832928    0.22000669881701354    
  0.31622015977731244    0.2240232776515739    0.19522751638253993    0.22402329530586884    0.3162179288626869    
  0.4685055870304756    0.6074997120333947    0.639803623033184    0.624932178740604    0.6398062444923741    
  0.6074962662930017    0.46850781412655335    0.31622015977731244    0.40576952149647644    0.2871790328428619    
  0.22956937247527526    0.22956861817581084    0.28719234172213653    0.40575908083255907    0.5538296501416852    
  0.6397730470892369    0.6398037445535067    0.6397063834109082    0.6397941802515712    0.5538377180694549    
  0.40576952149647644    0.4430340229892754    0.33065087861032155    0.2589471633353691    0.23540151914725374    