#     DFTpy    
  CRYSTAL 
    
  PRIMVEC    
  1.6175074616175822    -2.8016051051434183    0.0    
  1.6175074616175822    2.8016051051434183    0.0    
  0.0    0.0    3.044671971103448    
  PRIMCOORD    
  1    1    
  Si    0.0    0.0    0.0    
  BEGIN_BLOCK_DATAGRID_3D    
  3d_datagrid_density    
  BEGIN_DATAGRID_3D#0    
  15    15    13    
  0.0    0.0    0.0    
  1.6175074616175822    -2.8016051051434183    0.0    
  1.6175074616175822    2.8016051051434183    0.0    
  0.0    0.0    3.044671971103448    
  0.06794963116730784    0.11742004873616005    0.2794838914554445    0.39677824563156583    0.3243396424279454    
  0.20838234962415828    0.13977987071237497    0.11943822780291824    0.13977986096788703    0.20838237029330575    
  0.32433961587966814    0.39677826527129384    0.279483903309698    0.11742004846657496    0.06794963116730784    
  0.11742004114365091    0.11740186053510637    0.2287314974471794    0.37745669460957854    0.3677029222483427    
  0.251728255108331    0.16104165325257705    0.12036126833986424    0.12036992210917728    0.16103310251596065    
  0.25174452860258645    0.36769608164617823    0.37739685513770466    0.2287713231431923    0.11742004114365091    
  0.2794838986817839    0.2287314780269091    0.2795563709517602    0.37741435121731637    0.3793404801120161    
  0.276693837064709    0.1777623751019085    0.12257598892358754    0.10608967107823142    0.12257306432154134    
  0.1777622842088431    0.27667407189024706    0.3794219626749562    0.37739692092799704    0.2794838986817839    
  0.3967782520867931    0.377456680605973    0.377414339228527    0.39674161322015083    0.36767203821855315    
  0.27674684466421995    0.18396806389713924    0.12440330643633608    0.09774825994206465    0.09776219482355517    
  0.12439191728311369    0.1839971437395403    0.27667405464238143    0.3676961454753834    0.3967782520867931    
  0.3243396722095498    0.36770294490428085    0.37934048531508746    0.3676720680348624    0.3243964444749744    
  0.25174714213537625    0.17772208569556258    0.12440224218337431    0.09507887935170084    0.08597324630897947    
  0.09507723214499565    0.12439192161602323    0.17776228644990782    0.2517445596059311    0.3243396722095498    
  0.20838236417332728    0.2517282200576475    0.2766938651568229    0.2767468719918313    0.25174712503701574    
  0.20833018535570028    0.16103230513449865    0.12260553602099089    0.09775258894962897    0.08597512148439565    
  0.08597323865659084    0.09776218994366016    0.1225730541445251    0.1610330907732915    0.20838236417332728    
  0.13977987423824387    0.16104164208503713    0.17776234484571365    0.18396803925637567    0.17772206991183273    
  0.1610322825983367    0.1398252327742085    0.1203669813367881    0.10606244302739887    0.09775260278657438    
  0.0950788702134109    0.09774824683797037    0.1060896601342795    0.12036993385165701    0.13977987423824387    
  0.11943824312653308    0.1203612628361677    0.12257599706124105    0.1244032984639932    0.1244022411946565    
  0.12260552071933539    0.120366979369304    0.11939494416507684    0.12036697646917925    0.12260555712310449    
  0.12440223423420399    0.12440329712406276    0.12257600138304665    0.12036126926974945    0.11943824312653308    
  0.1397798639521382    0.12036993146751125    0.10608966552411261    0.09774824793514479    0.0950788792948693    
  0.09775260504080781    0.10606244510241074    0.12036698335783243    0.13982522019716576    0.1610323079035989    
  0.17772204642260603    0.18396803396226413    0.17776234055910808    0.1610416488925133    0.1397798639521382    
  0.2083823572876065    0.1610330825092899    0.12257305256477707    0.09776218489386022    0.08597323690130887    
  0.08597509311855062    0.09775261499748107    0.1226055450460807    0.16103228870243522    0.20833022546125274    
  0.25174713261863013    0.27674686792421954    0.2766938603504668    0.25172826457440733    0.2083823572876065    
  0.32433964789005726    0.25174452244025664    0.17776226064751835    0.12439193024175801    0.09507724460116507    
  0.08597322807239365    0.09507888949791658    0.1244022374753307    0.17772208190787273    0.2517471501634977    
  0.3243964513589402    0.3676720275501522    0.3793404598238283    0.36770298376235705    0.32433964789005726    
  0.39677829571388423    0.36769614119815186    0.27667409138926014    0.18399714626527117    0.12439191750451056    
  0.09776218593815851    0.09774826269319485    0.12440330155824737    0.18396805541402603    0.2767468816869851    
  0.36767199159192676    0.39674160165282135    0.37741434440690197    0.37745672107197903    0.39677829571388423    
  0.27948390735385237    0.37739687589848125    0.3794219869216196    0.27667410312171875    0.17776226073745482    
  0.1225730358181675    0.10608967483409619    0.12257599751166291    0.1777623347615969    0.2766938806742727    
  0.3793404622337617    0.37741432207518805    0.2795564200128267    0.22873150822068647    0.27948390735385237    
  0.11742004038865049    0.2287713191273423    0.377396871946779    0.3676960992971968    0.2517445218736492    
  0.16103308493522397    0.12036994254221689    0.12036125518259846    0.16104165361492004    0.25172825015201583    
  0.3677029559333972    0.37745668972302177    0.22873147445125513    0.11740186176830036    0.11742004038865049    
  0.06794963116730784    0.11742004873616005    0.2794838914554445    0.39677824563156583    0.3243396424279454    
  0.20838234962415828    0.13977987071237497    0.11943822780291824    0.13977986096788703    0.20838237029330575    
  0.32433961587966814    0.39677826527129384    0.279483903309698    0.11742004846657496    0.06794963116730784    
  0.12820835875056816    0.18425161321331832    0.3285764699335639    0.393525047289278    0.30374308643459275    
  0.19440693777740134    0.13170440244748205    0.1131036265428937    0.13170438652253036    0.19440697246974945    
  0.3037430833818396    0.3935250599654579    0.3285764985649218    0.1842515966670272    0.12820835875056816    
  0.18425161039193766    0.18419838295302704    0.2881786802959722    0.39146195051922583    0.3489396884888905    
  0.2344674360868779    0.1510772709796768    0.11390694944915547    0.11391911452046558    0.1510643544208059    
  0.23448770659537446    0.3489229408724367    0.3914313142119304    0.2881886329731951    0.18425161039193766    
  0.3285764915200516    0.2881786852017197    0.32866622886704483    0.39142300415588255    0.3627058634004642    
  0.25798892663760065    0.16631507736174939    0.11587761406086958    0.10075207538542016    0.11587645706595262    
  0.1663126554226039    0.25797976137688367    0.3627563316953779    0.39143136843397736    0.3285764915200516    
  0.3935250502923891    0.39146200082872296    0.3914229989453185    0.393478783548887    0.34891839893101145    
  0.25802769074356163    0.17200812205539062    0.11752380027539981    0.09308375899657738    0.0930911042991223    
  0.11751841489606629    0.17202581345945514    0.25797974459177797    0.3489229772429298    0.3935250502923891    
  0.30374313181352197    0.34893968066938996    0.3627058997340703    0.34891840112222006    0.30379842884446684    
  0.23448082706010867    0.16628572665400687    0.1175256565496098    0.09063626809447049    0.08225348968928346    
  0.09063534165766901    0.1175184141123156    0.16631265129547967    0.23448775839837804    0.30374313181352197    
  0.1944069550591979    0.2344674376965493    0.25798895068374633    0.25802771628588655    0.23448077734066577    
  0.19435958306686044    0.15107067572517263    0.11589594474861795    0.09308694225628589    0.08225274635361686    
  0.08225347795705841    0.09309109824882274    0.11587643548485874    0.15106434122869908    0.1944069550591979    
  0.13170439541355689    0.15107727276266936    0.16631503167420938    0.17200808587578292    0.16628571241722898    
  0.1510706682080818    0.1317422050963336    0.11391536129385009    0.100732477229498    0.09308695650188273    
  0.09063626085952985    0.09308374858807088    0.10075207442071007    0.11391912048753501    0.13170439541355689    
  0.11310363935774159    0.11390694529298963    0.11587761464562699    0.11752379582811162    0.11752566170255555    
  0.11589594502542491    0.11391536442895889    0.1130640186194472    0.11391536458031508    0.11589598056408779    
  0.11752565414028368    0.11752380134338268    0.11587762012207466    0.11390695565110744    0.11310363935774159    
  0.1317043855117684    0.11391911401916958    0.10075207675668768    0.09308375535274284    0.0906362694423497    
  0.09308695364816685    0.10073248434597824    0.11391536107121727    0.13174217758813744    0.15107068812665472    
  0.16628571251162275    0.17200810278871198    0.16631503219433685    0.1510772688051132    0.1317043855117684    
  0.19440696002882504    0.15106433849081424    0.11587644385173786    0.09309109193989627    0.08225347997316314    
  0.08225271192092547    0.09308697160109933    0.11589595853813711    0.1510706663145936    0.1943596166744374    
  0.2344808152083665    0.25802768871660303    0.2579889232967673    0.23446746016576536    0.19440696002882504    
  0.30374310816864164    0.23448772297207277    0.16631265033492695    0.1175184286215276    0.09063534656804333    
  0.08225347372430393    0.09063628791200361    0.11752564948108929    0.16628570725741448    0.2344808194967907    
  0.3037984436590548    0.3489183925862573    0.3627058791669947    0.3489397228118721    0.30374310816864164    
  0.3935250929687723    0.3489229536027019    0.2579797517808339    0.1720258165698246    0.11751840136346979    
  0.09309110207614398    0.09308376491956442    0.11752380468152054    0.17200809336987402    0.2580277417551401    
  0.34891833864330324    0.39347876816514793    0.3914230294179719    0.3914619922015836    0.3935250929687723    
  0.3285764656627175    0.3914313391786322    0.3627563641240996    0.2579797854508469    0.16631265068521378    
  0.11587643118658061    0.10075208363434303    0.11587762920391757    0.16631505202085722    0.2579889707297602    
  0.3627058728249834    0.39142296061294757    0.3286662690587194    0.2881786969123217    0.3285764656627175    
  0.18425160192849172    0.2881886039504329    0.3914313168952277    0.3489229374332004    0.23448770600872704    
  0.151064329459345    0.11391913124393474    0.11390694095484734    0.15107727556528636    0.234467476163652    
  0.34893966178085783    0.3914619631535776    0.2881786678468022    0.18419840409350985    0.18425160192849172    
  0.12820835875056816    0.18425161321331832    0.3285764699335639    0.393525047289278    0.30374308643459275    
  0.19440693777740134    0.13170440244748205    0.1131036265428937    0.13170438652253036    0.19440697246974945    
  0.3037430833818396    0.3935250599654579    0.3285764985649218    0.1842515966670272    0.12820835875056816    
  0.3136357352504793    0.3477204632490453    0.3929897429038495    0.35193794175809584    0.24768039681019818    
  0.1594757238962554    0.11121404252174075    0.09674478868723285    0.11121403485712823    0.15947574464780012    
  0.24768039702933645    0.3519379787210497    0.3929897678419912    0.3477204667739118    0.3136357352504793    
  0.347720467628045    0.3476790363054219    0.38644869605500687    0.3779587715467619    0.28994099581635513    
  0.19079436974763533    0.12614839006209283    0.09738872520486216    0.09739427669759329    0.1261435290296528    
  0.1908023141687131    0.2899330215696432    0.3779551128023908    0.38644124953710496    0.347720467628045    
  0.39298975783327367    0.38644870905464723    0.3930319288263232    0.37794330263209247    0.3049076752715014    
  0.20967339744841834    0.1378927215577239    0.09894219942629565    0.08707611051342454    0.0989410930443306    
  0.13789073756338513    0.2096724911144789    0.3049172925505603    0.377955158043336    0.39298975783327367    
  0.35193793430916165    0.37795877839956543    0.37794327606249395    0.3519215669976497    0.2899350915038978    
  0.20968443623448638    0.14229692425000234    0.10022853166322736    0.08109701088842967    0.08110005815623987    
  0.10022752513206966    0.14230279696717926    0.20967250387401645    0.2899330833917897    0.35193793430916165    
  0.24768040894514778    0.28994097974315947    0.30490767956326126    0.2899351184564002    0.24769863674311368    
  0.19079740298708572    0.13788542403976506    0.10023030910658906    0.07921115954601135    0.07258649553302741    
  0.0792104427009835    0.10022753205539316    0.13789073811582864    0.19080235281333588    0.24768040894514778    
  0.1594757518249871    0.1907943607348263    0.20967339537248358    0.20968447099466644    0.19079737080816994    
  0.15946182793698038    0.12614521713740273    0.09894587151263004    0.08109724495787794    0.07258778984205429    
  0.07258648893733645    0.08110005019759792    0.09894107229164298    0.12614350864692286    0.1594757518249871    
  0.11121403778738337    0.1261483852013088    0.13789269878931745    0.1422969055926369    0.13788540993658185    
  0.12614519946597283    0.11122747034777936    0.09739237931266148    0.08707232541090475    0.08109726532367768    
  0.07921115010140961    0.08109700238894016    0.08707611421590584    0.09739427822392407    0.11121403778738337    
  0.09674479313838208    0.09738871976184887    0.09894220254909156    0.10022853278206198    0.10023031338908754    
  0.0989458660748477    0.09739238225577844    0.09673012097176036    0.09739237249112416    0.09894589590001873    
  0.1002303011013476    0.10022853318965125    0.09894219847073954    0.09738871804199135    0.09674479313838208    
  0.11121402644276872    0.09739427815061616    0.08707611559041857    0.08109699705711182    0.07921116068225673    
  0.08109726318461988    0.08707233243987034    0.09739237453719653    0.11122744589730395    0.12614521632936773    
  0.1378853897331918    0.14229689552200014    0.137892694554017    0.12614839521025917    0.11121402644276872    
  0.1594757533234365    0.12614351990037986    0.0989410811415535    0.08110004688264233    0.07258649427906526    
  0.07258777052406483    0.0810972744431073    0.09894587537238585    0.12614521162319037    0.15946184714524017    
  0.1907973712476316    0.20968444503136674    0.209673390039929    0.19079437052824302    0.1594757533234365    
  0.2476804277251859    0.1908023318657857    0.13789072514261333    0.10022753830739926    0.07921044346093752    
  0.07258647944753359    0.07921117719910538    0.10023029822520141    0.13788540032021343    0.19079739298840775    
  0.2476986230511487    0.2899350895993858    0.3049076907771974    0.28994104145203303    0.2476804277251859    
  0.3519379941976119    0.2899330351688458    0.20967250338201426    0.14230279089382517    0.10022752690368403    
  0.08110005128783156    0.08109701461879304    0.10022854063686445    0.142296903126601    0.20968447656645697    
  0.28993508592617573    0.35192157183894196    0.37794327994333743    0.37795878321231086    0.3519379941976119    
  0.39298975212245024    0.37795513421470045    0.3049173396447764    0.20967249938795365    0.137890724552299    
  0.09894106514165037    0.08707612531288274    0.09894220849434102    0.13789270844247983    0.20967341698986938    
  0.3049077033404648    0.37794324844934435    0.3930319260190468    0.386448702514124    0.39298975212245024    
  0.3477204529655037    0.38644118756077733    0.37795512711083085    0.2899330283752899    0.19080233455514414    
  0.1261435101013007    0.09739428614764294    0.09738871302418432    0.12614839182240825    0.19079437315518222    
  0.2899409812119241    0.37795874491405    0.3864486982511632    0.34767907597800635    0.3477204529655037    
  0.3136357352504793    0.3477204632490453    0.3929897429038495    0.35193794175809584    0.24768039681019818    
  0.1594757238962554    0.11121404252174075    0.09674478868723285    0.11121403485712823    0.15947574464780012    
  0.24768039702933645    0.3519379787210497    0.3929897678419912    0.3477204667739118    0.3136357352504793    
  0.3912042789338953    0.38111021585125765    0.33801587683701056    0.25968146355912747    0.17780476799455208    
  0.11894806106019123    0.08702823457244424    0.0772430907504174    0.08702823055865379    0.11894807131815498    
  0.1778047570377073    0.2596814984636051    0.3380158734560721    0.3811101896516001    0.3912042789338953    
  0.3811102160128331    0.3811062663777501    0.3536468818613112    0.28970087508818115    0.20794903661051897    
  0.13961072371757685    0.09702257888786456    0.07773328255319564    0.07773216422031674    0.09702425969890087    
  0.1396099889325552    0.20794915725649382    0.2897004214434594    0.3536464294090697    0.3811102160128331    
  0.3380158815475332    0.3536468934822344    0.3380194489753292    0.2897001188719161    0.21929841142105166    
  0.1521639786760361    0.10483974570802612    0.07884376817952797    0.07073427497067543    0.07884370982192755    
  0.10483807392160263    0.15216520896170732    0.21929808417474309    0.28970046634213903    0.3380158815475332    
  0.259681480660029    0.2897008721005774    0.2897001059732675    0.25967996799801035    0.20794787784775234    
  0.1521666427945333    0.1077408907193152    0.07970712214481884    0.06665295889785834    0.06665365187881929    
  0.07970737926675452    0.10774211981076576    0.1521651984937775    0.20794918874082377    0.259681480660029    
  0.17780479745529154    0.20794903158059655    0.2192984001780834    0.2079478952866531    0.1778075528365641    
  0.13960947508921068    0.10483883525517734    0.07970763010096751    0.06536473711964864    0.06079938744727529    
  0.06536411686437917    0.07970738231299114    0.10483807473821005    0.13961002481291945    0.17780479745529154    
  0.11894805664112314    0.13961070284700758    0.15216401417669106    0.15216665201244656    0.13960947320383868    
  0.11894734594776613    0.0970228846362225    0.0788437001920302    0.0666530343200641    0.060799534372118734    
  0.06079938106486273    0.06665364507091107    0.07884370517092729    0.097024245724198    0.11894805664112314    
  0.08702823934905903    0.09702257446063617    0.1048397131719961    0.10774086673735189    0.10483883243050501    
  0.09702287358404468    0.0870298491101563    0.07773320483727636    0.07073422217301224    0.06665304145818603    
  0.06536472843887896    0.0666529552663903    0.0707342695629852    0.07773217795282986    0.08702823934905903    
  0.07724309990561593    0.077733278328735    0.07884377452999994    0.07970711631125149    0.07970762817971738    
  0.07884369199483354    0.077733208551688    0.07724064518757412    0.07773320031450569    0.07884371740767772    
  0.07970762606325217    0.07970711760586986    0.07884376933926823    0.07773327024683839    0.07724309990561593    
  0.08702823163974112    0.07773217045484729    0.07073427388551373    0.06665295381997313    0.06536473391437254    
  0.06665304246221478    0.07073422416770755    0.07773320699507784    0.08702983352550869    0.09702289027434634    
  0.1048388209371551    0.10774086112444467    0.1048397168089911    0.09702257892282219    0.08702823163974112    
  0.1189480769183913    0.09702424703751313    0.07884370078827917    0.06665364535185393    0.060799384838883044    
  0.060799508478707895    0.0666530529050152    0.07884370225247452    0.09702287644745211    0.11894736651259724    
  0.13960947972037083    0.15216665045166813    0.15216400093249405    0.13961072689491774    0.1189480769183913    
  0.1778047718523144    0.13961000542995733    0.10483805692417346    0.07970739028463598    0.06536412718511651    
  0.06079937058748166    0.06536474016957641    0.07970762683886905    0.10483883997907813    0.13960948182263616    
  0.17780755004443288    0.2079478750104852    0.21929841013397172    0.20794905648580853    0.1778047718523144    
  0.25968150174452453    0.2079491796045139    0.15216523254819111    0.10774211398255451    0.07970738209495348    
  0.06665364686495359    0.06665296245910378    0.07970711428142065    0.10774087714828319    0.15216665173390193    
  0.20794786124971681    0.259679967523249    0.2897001138840709    0.2897008978841077    0.25968150174452453    
  0.33801587663849203    0.2897004466088033    0.2192980891443372    0.1521652356496729    0.10483805651216023    
  0.07884369149074315    0.07073428387959614    0.07884377495309319    0.1048397173114654    0.15216400271966368    
  0.2192983964675728    0.28970009463516416    0.33801948584057884    0.35364688918428894    0.33801587663849203    
  0.3811102195504368    0.35364640039048445    0.2897004291675223    0.20794916114265924    0.13960999371776756    
  0.09702424435482059    0.07773218003284281    0.0777332661554976    0.09702257261260179    0.13961071328537547    
  0.20794903363897746    0.28970085913482063    0.3536468573694556    0.3811062915821628    0.3811102195504368    
  0.3912042789338953    0.38111021585125765    0.33801587683701056    0.25968146355912747    0.17780476799455208    
  0.11894806106019123    0.08702823457244424    0.0772430907504174    0.08702823055865379    0.11894807131815498    
  0.1778047570377073    0.2596814984636051    0.3380158734560721    0.3811101896516001    0.3912042789338953    
  0.28304772874398215    0.2670844531572889    0.2244576000266462    0.17011496943266072    0.12095650532068443    
  0.08626056152498622    0.06694569692795112    0.06087138156223679    0.06694568591835787    0.08626057838122793    
  0.12095651659014217    0.17011499080972073    0.22445762600682154    0.2670844422452937    0.28304772874398215    
  0.26708444423147665    0.2670854236280792    0.23776210834664063    0.18948321854983363    0.13877659279174076    
  0.09854649155473721    0.07307618069477304    0.061206709825684345    0.06120521683493384    0.07307747150205796    
  0.09854586265438692    0.1387775471090555    0.1894834551513728    0.23776189625020383    0.26708444423147665    
  0.2244576459658532    0.23776211960377397    0.2244565544353135    0.18948385019613934    0.14559471442732902    
  0.10603141014845785    0.07783904491324853    0.061914611010191856    0.056855021610414946    0.061914958087143555    
  0.07783830159320607    0.10603111468096625    0.14559379453230462    0.18948348538348594    0.2244576459658532    
  0.17011496988531563    0.18948325339483865    0.18948383568262345    0.1701150422343205    0.1387764604532819    
  0.10603106153358702    0.07960952939048643    0.062428030154097    0.05426433448514631    0.054264987098836946    
  0.062427433608373065    0.0796110434637034    0.10603112478873156    0.13877757783301423    0.17011496988531563    
  0.12095652418771596    0.138776601965043    0.14559469825949456    0.13877645591094395    0.1209577109689549    
  0.09854596263371257    0.07783960193426082    0.0624275766549871    0.053425043007000635    0.050535646398829986    
  0.053424653139067475    0.062427431929798875    0.0778382906426998    0.09854589449074219    0.12095652418771596    
  0.08626057495407204    0.09854649678945027    0.1060314192228923    0.10603108530849636    0.09854594072811404    
  0.0862597908994993    0.0730767084000898    0.061914441366590335    0.054264455707110595    0.050535415908446964    
  0.05053563489736818    0.05426497562759848    0.06191494683219038    0.0730774622886528    0.08626057495407204    
  0.06694569225270859    0.07307618094347941    0.07783902743770461    0.07960951380849189    0.07783959891127351    
  0.0730766960097013    0.06694693867753704    0.06120515342061047    0.056856246099746946    0.05426446393372078    
  0.05342503779769176    0.05426433139171679    0.056855023472618914    0.06120522843483427    0.06694569225270859    
  0.06087139173541511    0.0612067055410952    0.06191461752863581    0.06242802694751264    0.06242757995632417    
  0.061914440842803425    0.06120515694904668    0.060871738328388394    0.061205152836412646    0.06191446139885375    
  0.062427570666344266    0.062428033964098475    0.06191461659489122    0.06120671039179279    0.06087139173541511    
  0.0669456887655496    0.06120521385785485    0.05685502201719694    0.05426433671671201    0.05342504525610285    
  0.05426446098216817    0.056856250716825735    0.06120515349494519    0.06694692542971838    0.07307670767153254    
  0.07783959849470903    0.07960952201364035    0.0778390277597257    0.07307618549986868    0.0669456887655496    
  0.08626059324081876    0.07307745923498965    0.061914950505694434    0.054264979633017116    0.05053564580155769    
  0.05053539060274519    0.05426447410588316    0.061914450357331174    0.07307670091230885    0.08625980971445872    
  0.09854595034178142    0.1060310622648407    0.10603139659123836    0.09854649934893156    0.08626059324081876    
  0.12095651702577379    0.09854587857338147    0.07783829077902614    0.062427439134613856    0.053424660376552274    
  0.05053563079143336    0.05342505653047881    0.0624275691871498    0.07783960040046123    0.09854595570463728    
  0.12095770606095217    0.13877645478739467    0.14559471590496814    0.13877661842834318    0.12095651702577379    
  0.1701149995893149    0.13877755660962285    0.106031114157668    0.07961104706438343    0.06242742919070886    
  0.05426498661591453    0.05426434345705104    0.062428035371179004    0.07960951596184104    0.10603109136412422    
  0.13877642685354621    0.17011502572362125    0.18948385985724306    0.18948326621973122    0.1701149995893149    
  0.22445761676739587    0.18948346507284866    0.14559381394320034    0.10603112968654564    0.07783829677415284    
  0.061914941035665035    0.05685502378043835    0.061914616278692124    0.07783904469265325    0.1060314396609414    
  0.14559471101356822    0.18948381804975414    0.22445657552895376    0.23776211955244272    0.22445761676739587    
  0.2670844435807461    0.23776188113515775    0.18948348605218476    0.13877755039086184    0.09854587553369848    
  0.07307745271311214    0.06120522719514036    0.06120670895551156    0.07307619268158569    0.09854650459863824    
  0.13877657773111018    0.18948324035546163    0.23776208948809185    0.26708544860384953    0.2670844435807461    
  0.28304772874398215    0.2670844531572889    0.2244576000266462    0.17011496943266072    0.12095650532068443    
  0.08626056152498622    0.06694569692795112    0.06087138156223679    0.06694568591835787    0.08626057838122793    
  0.12095651659014217    0.17011499080972073    0.22445762600682154    0.2670844422452937    0.28304772874398215    
  0.1856826696537178    0.1756434106705421    0.14957382790414642    0.11724495890233405    0.08801961756606902    
  0.06681104199300635    0.05459593403378238    0.05067585519494779    0.054595925953630074    0.06681104867522254    
  0.08801961367575846    0.11724498493761437    0.1495738405046069    0.17564341533327243    0.1856826696537178    
  0.17564342453405757    0.1756450155679666    0.15761725145458633    0.12872002218689405    0.09869917046132236    
  0.07441072136337248    0.05849752449184565    0.05088576464501294    0.05088608908705426    0.05849709352707743    
  0.07441092239925516    0.09869936751378906    0.12871945881918542    0.15761847429554082    0.17564342453405757    
  0.1495738429891753    0.157617260281453    0.1495730079823936    0.12872059889484555    0.10278373502209447    
  0.07904498382581256    0.06153911810979028    0.05135014988612935    0.048066536531239795    0.05135009277810176    
  0.06153963595343716    0.07904412347726789    0.10278449693300613    0.12871950543873986    0.1495738429891753    
  0.11724495297075334    0.12872004469706003    0.12872055931943036    0.11724483573796637    0.09869926584182057    
  0.0790440634036296    0.06270827179248152    0.051725359881835804    0.046369995907318315    0.04637031256550069    
  0.05172482790946771    0.0627086095651187    0.07904412013188303    0.09869940362754819    0.11724495297075334    
  0.08801962060759441    0.09869917273984025    0.10278373424307478    0.09869926886871402    0.08801940202074457    
  0.07441124323346884    0.06153968629068365    0.05172483739065881    0.04580789562743012    0.04384654926523989    
  0.04580799507001739    0.05172483442707275    0.06153963056321396    0.07441095436659284    0.08801962060759441    
  0.06681106443787915    0.07441071776077886    0.0790450031236741    0.07904407773771617    0.0744112350245959    
  0.06681082022171601    0.058497022603644595    0.05135031564631232    0.046369897525978226    0.04384702680006149    
  0.04384653936102784    0.04637030481757336    0.05135008367467229    0.05849708543591979    0.06681106443787915    
  0.054595929581732316    0.05849752006255649    0.06153911336812434    0.06270827043078513    0.06153967654569768    
  0.058497018350340456    0.054596408561095294    0.05088557172305667    0.04806696268684977    0.04636990638514912    
  0.04580789312032667    0.04636999161237939    0.04806653964098465    0.0508860913486689    0.054595929581732316    
  0.05067585765638724    0.05088575569817636    0.05135015423840043    0.051725354868463844    0.05172484279988581    
  0.05135030492617339    0.05088557078147064    0.050676207585386004    0.05088556154611491    0.05135032709716095    
  0.05172483636264368    0.05172536050340828    0.05135015420595699    0.05088575847629254    0.05067585765638724    
  0.05459592774794739    0.050886083628127285    0.04806653508503691    0.0463699848766749    0.04580790553000811    
  0.046369908154354544    0.04806696852466619    0.050885567713147555    0.05459639922681362    0.058497018297873    
  0.06153966608361321    0.0627082654736017    0.0615390990964255    0.058497527860233926    0.05459592774794739    