#     DFTpy    
  CRYSTAL 
    
  PRIMVEC    
  3.283729834116861    -1.8041000000000003e-10    3.4196000000000003e-10    
  -1.8041000000000003e-10    3.2837298339260506    1.6477000000000002e-10    
  6.248900000000001e-10    3.0115000000000004e-10    6.0158566968605305    
  PRIMCOORD    
  4    1    
  Si    1.6418649169958703    1.6418649178665903    1.8486381689499003    
  Si    6.088500000000001e-10    -5.634800000000001e-10    1.1592901774581201    
  Si    9.338000000000002e-11    4.2556e-10    4.8565665159901705    
  Si    1.6418649174881301    1.6418649166192603    4.167218531829611    
  BEGIN_BLOCK_DATAGRID_3D    
  3d_datagrid_density    
  BEGIN_DATAGRID_3D#0    
  33    33    61    
  0.0    0.0    0.0    
  3.283729834116861    -1.8041000000000003e-10    3.4196000000000003e-10    
  -1.8041000000000003e-10    3.2837298339260506    1.6477000000000002e-10    
  6.248900000000001e-10    3.0115000000000004e-10    6.0158566968605305    
  0.0013922018409302074    0.0019769288997764653    0.0035688986732974083    0.0057577360392906465    0.007944850103336763    
  0.009544577227927944    0.010168046211922313    0.009687763915852143    0.008229713787604705    0.006045749323188264    
  0.003416544162264415    0.0006571253531849824    0.0019297555013971974    0.004116306911249468    0.00574221856644119    
  0.006732475043701773    0.007063150896346756    0.006732481525351485    0.005742209559716334    0.004116298530057693    
  0.0019297516935144463    0.0006571258302216749    0.0034165517531998812    0.006045762550705934    0.008229715764035925    
  0.009687718974405101    0.010168027449167436    0.009544588173041308    0.007944852621339347    0.005757708976655054    
  0.0035688700010169773    0.0019769410542874737    0.0013922018409302074    0.0019768998378002314    0.00252794148257583    
  0.004034842341522991    0.0061019366128441214    0.00814603404884556    0.009605043464174668    0.010112891407534151    
  0.00956394062485839    0.008068068788493057    0.005868071336419415    0.0032520738946068967    0.000524452132155424    
  0.0020309895844768254    0.004186752161160297    0.0057907287968612916    0.00676286288225752    0.007088469721273564    
  0.006762871186523592    0.005790736366699829    0.0041867424158104835    0.0020309982436689253    0.0005244543798417559    
  0.0032520686477605556    0.005868092071220049    0.008068067812874478    0.009563909691467464    0.01011290826405571    
  0.009605091736677923    0.008146056694246716    0.006101956107184983    0.004034867511158706    0.002527952705724053    
  0.0019768998378002314    0.0035688398855248105    0.004034855079374885    0.005305549950394275    0.007015949551121031    
  0.00865314706362497    0.009708587901057473    0.009909390169707455    0.009165456946468604    0.007564190009179972    
  0.005342214214516862    0.0027724904852168596    0.00013054564022138793    0.0023304356261472357    0.004400493575117049    
  0.005929477912438163    0.006857251915737118    0.007167892097595606    0.006857271495364519    0.0059294816432163945    
  0.004400487985374718    0.002330438653811657    0.0001305564333482127    0.0027724822540219174    0.005342214656506769    
  0.007564188677527381    0.00916542846227637    0.009909386221690146    0.009708585558567268    0.008653154622339574    
  0.007015942506661014    0.005305577340603613    0.004034866229465873    0.0035688398855248105    0.0057576951908015475    
  0.006101943170045944    0.007015913830085799    0.008185778691448334    0.009208937841360338    0.0097215160307285    
  0.009486581384138113    0.00845891967637491    0.00672411927972926    0.004498941858932794    0.002006298930808876    
  0.000503610467111399    0.0028177643402307138    0.0047469171083516365    0.006164167096305334    0.007017979518489033    
  0.007305554492430731    0.007017978573400254    0.0061641828453888915    0.004746928839510601    0.002817765580144859    
  0.000503615118220918    0.0020062902470947843    0.004498959272104033    0.0067241341378311515    0.008458894790492348    
  0.009486570075567882    0.0097215310978402    0.00920893448528978    0.008185723771449943    0.00701593491955788    
  0.006101950664064842    0.0057576951908015475    0.007944851879976615    0.00814607194811652    0.008653146111518229    
  0.009208973191488971    0.009575114848499829    0.009478207752290135    0.008774968659233337    0.007441716336883616    
  0.005586334028693623    0.0033751527132568028    0.000997124351119898    0.0013455177312697837    0.003462574276544683    
  0.00521586997304664    0.0064926842730960175    0.007261468424307384    0.007515911567759922    0.007261474298627029    
  0.006492683154339078    0.005215872587515267    0.0034625683659782083    0.0013455152276624887    0.0009971139654746932    
  0.0033751549055724703    0.005586354516128494    0.007441711317960611    0.008774976107889383    0.009478185938024321    
  0.009575143495608441    0.009208929749576327    0.008653161101884868    0.008146056181188157    0.007944851879976615    
  0.009544531416614346    0.009605052790329647    0.009708571989581907    0.009721541700277832    0.009478169937326818    
  0.008831611458579568    0.007707497116574611    0.006130567080293437    0.00418805825138402    0.002027518602987935    
  0.00020544912586956669    0.002346857960357473    0.004247482457469402    0.0057938895356831385    0.006921811402600476    
  0.007594559514519615    0.007820121355916412    0.0075945551238068496    0.006921816079882251    0.005793883885008131    
  0.004247494434301429    0.002346852266813014    0.00020546198879530797    0.0020275423081287346    0.004188050217892287    
  0.0061305477306037555    0.007707493543416435    0.008831642989403424    0.009478176233069756    0.009721529545927999    
  0.009708572035130144    0.009605071564402178    0.009544531416614346    0.010168028564223988    0.010112927281006951    
  0.009909386754990077    0.009486599696490539    0.008774965173406733    0.007707500154542538    0.006295035346909477    
  0.004558255813505259    0.0025866872940533484    0.0005101401239326    0.0015471208981782392    0.0034720524588390876    
  0.005139837474116233    0.006484569510008963    0.0074556056938462    0.008040404789269697    0.008233583758630293    
  0.008040408405944553    0.0074556082311967855    0.006484562784725295    0.005139853100316158    0.0034720369969058963    
  0.0015471282654612956    0.0005101361449820048    0.0025866749019426254    0.004558248934058534    0.006295036938855174    
  0.0077075363777751385    0.008774981104242218    0.009486569268103026    0.009909402151032587    0.01011292485453932    
  0.010168028564223988    0.00968772698160454    0.009563945416283004    0.009165425942235265    0.008458899982997705    
  0.007441683127989665    0.006130549616544593    0.004558262318015846    0.0027638193250373176    0.0008382202323171301    
  0.0011053041282877453    0.0029732560908061253    0.004666208886408215    0.006113876655826682    0.00726442494063275    
  0.008102474100619145    0.008609612922081332    0.00878171011243278    0.008609607354818175    0.008102478657944731    
  0.007264440114053958    0.006113869813448525    0.004666208294615427    0.002973251382105922    0.0011052861179552849    
  0.0008382232237424477    0.0027638142216431074    0.004558250057307853    0.006130568940406423    0.007441700848587516    
  0.008458892236315713    0.009165423656515891    0.009563948463697323    0.00968772698160454    0.008229715788159123    
  0.008068110303127056    0.00756418777337414    0.006724136580479968    0.005586336987447215    0.004188069559105576    
  0.0025866963874893317    0.0008382450002583775    0.0009695776341141073    0.0027479711197315832    0.004410802373549541    
  0.005890055562437642    0.007137704828806616    0.008129007699737893    0.008854768069372779    0.009298526748080741    
  0.009452692099017503    0.009298544361824954    0.008854774775506963    0.008128996765713308    0.007137709556942058    
  0.005890045737737933    0.004410805441335701    0.0027479848728758807    0.0009695730838669002    0.0008382527676710712    
  0.00258667999963568    0.004188071862687913    0.005586353678699531    0.006724140513129622    0.007564193671389824    
  0.00806809356865235    0.008229715788159123    0.006045740272966289    0.005868067632696226    0.005342198837718143    
  0.004498961158343106    0.0033751305086213825    0.0020275284038995325    0.0005101229054857353    0.0011052895066577181    
  0.00274798695766508    0.004340205248140497    0.005806536283977566    0.007095251820647053    0.008182130619829014    
  0.009051961786731831    0.009696690977246604    0.010091375609147623    0.010226427870266397    0.010091374916713589    
  0.009696705174065057    0.009051962743861068    0.008182128191995493    0.007095258194203095    0.00580652757962318    
  0.004340187180828151    0.00274798504945856    0.0011052947373111212    0.0005101244324343996    0.0020275433729480844    
  0.003375135255533011    0.004498952468016484    0.005342218269646111    0.005868072503643383    0.006045740272966289    
  0.0034165430996946793    0.0032520752303533897    0.002772472492577454    0.002006294223615275    0.000997122215716008    
  0.00020544010808546816    0.001547118993747579    0.002973233447293578    0.004410811990617811    0.00580651843265389    
  0.007091802171662392    0.008235966115474811    0.009208219367893965    0.00999949444418959    0.010587275663539899    
  0.010953080204693566    0.011075187937785473    0.010953090055779796    0.010587280855934078    0.009999476948173002    
  0.009208220375516975    0.008235975641961284    0.007091801541872889    0.00580651771717231    0.0044108058407100114    
  0.0029732487407640893    0.001547118299519174    0.0002054435668273886    0.000997108881007168    0.0020063094368387513    
  0.0027725004709689446    0.003252080549202912    0.0034165430996946793    0.0006571073103909517    0.000524458081183726    
  0.00013052510120618115    0.0005036104153012882    0.0013455421175904616    0.0023468569782703775    0.0034720550368674704    
  0.004666190637329576    0.005890064646027504    0.007095265236350599    0.008235976237129251    0.0092726692279736    
  0.010182379835586858    0.010921409844449321    0.011484855828607789    0.011835631664360496    0.011953399110584847    
  0.011835634401969457    0.011484856812196208    0.010921413157432228    0.010182370735603678    0.009272661117392122    
  0.008235988994657608    0.007095249388483252    0.005890066779583219    0.004666207595403849    0.0034720595038816317    
  0.002346848563406885    0.0013455289117175382    0.0005036328937465763    0.00013054063986570313    0.0005244576028141086    
  0.0006571073103909517    0.001929755915286812    0.002031005424407415    0.002330433076020838    0.0028177441639644584    
  0.003462570437208759    0.004247479925836537    0.00513985245071264    0.006113863708936836    0.007137715593108282    
  0.008182136909200938    0.009208227772886437    0.010182374620400041    0.011050074996903747    0.011778651290840908    
  0.012333923858049434    0.012683257005952091    0.012799567877040794    0.012683255640437985    0.012333929476954152    
  0.0117786720056426    0.011050084366904172    0.010182371210160421    0.009208220815194639    0.00818213361110978    
  0.0071377168872747004    0.006113867181189081    0.0051398529883119794    0.004247473765197196    0.003462570822496493    
  0.002817764935831249    0.0023304282409996008    0.00203099200615272    0.001929755915286812    0.004116310183945168    
  0.0041867645403879175    0.004400504219665212    0.004746912863137648    0.005215868879744501    0.005793896052282858    
  0.006484574490801211    0.007264436459251753    0.008129006897738296    0.00905197154907114    0.00999949561588222    
  0.010921415714684897    0.011778653035566187    0.012509546608102511    0.013073331598652788    0.013434458955138813    
  0.013554123697212445    0.01343445155504373    0.013073321956802478    0.01250955559167101    0.011778660469843685    
  0.010921412700341424    0.009999495164037553    0.009051956459100167    0.008129014762115661    0.007264443116263965    
  0.006484580891521282    0.0057938809803097435    0.005215878618856894    0.004746917780553991    0.004400502009291329    
  0.004186747558974454    0.004116310183945168    0.005742210424961578    0.005790733651028032    0.0059294726815040735    
  0.006164154769999579    0.006492686711863979    0.006921809441265659    0.00745559970150203    0.008102464425590362    
  0.008854756786550491    0.00969668697692997    0.01058727626535595    0.011484848581806532    0.012333918974309853    
  0.013073316295530681    0.013650921282221751    0.014023616888521332    0.014156185392693147    0.014023609312147094    
  0.013650915177901967    0.013073312388154318    0.012333935142628328    0.011484844657436249    0.010587277028830352    
  0.0096966856641532    0.008854765561771451    0.008102469872556917    0.007455597165556587    0.006921803154597092    
  0.006492668393848406    0.006164165292551613    0.005929461791846468    0.005790721323139757    0.005742210424961578    
  0.006732487345316647    0.006762874019734726    0.006857284823531079    0.007017964282961782    0.00726147554819744    
  0.007594558728897345    0.008040417747582341    0.008609606908868616    0.009298542523680725    0.010091386936719201    
  0.010953100669768226    0.011835627783030113    0.012683265238669405    0.01343446074197349    0.014023624425401908    
  0.014407892484096463    0.014542242849000202    0.014407902560268434    0.01402363292740631    0.013434463570377902    
  0.01268326496476791    0.01183562988725201    0.010953112345660303    0.010091370630413609    0.009298538571359642    
  0.008609610395971709    0.008040410025135147    0.007594551615519955    0.0072614779397409115    0.007017986858376107    
  0.006857269040386774    0.006762864346878186    0.006732487345316647    0.007063155104371226    0.007088463774571811    
  0.007167896709967515    0.007305532648011352    0.007515907544909797    0.00782011629141965    0.008233588179656264    
  0.00878169940245434    0.009452699893631102    0.010226423387548405    0.01107520036184316    0.011953391245722964    
  0.012799564935906891    0.013554125051083145    0.014156184630857653    0.014542221399505284    0.014679109589046117    
  0.014542227865027684    0.014156177436418246    0.013554125031020074    0.012799555835672747    0.01195339030934837    
  0.01107519605795401    0.01022642813988041    0.009452688003651183    0.008781708314087904    0.00823358412361144    
  0.007820119261168464    0.007515904170179486    0.007305540630468213    0.007167896158976895    0.007088461784841405    
  0.007063155104371226    0.006732489069107437    0.006762869425287051    0.006857286101883136    0.007017971792735198    
  0.007261478322197559    0.007594557455947109    0.008040429953121455    0.008609605531417434    0.009298533901104572    
  0.010091381865144425    0.010953097963244725    0.01183561941774025    0.012683257952806537    0.013434460891095087    
  0.014023621238797407    0.014407892739880671    0.01454221868225461    0.01440789831910864    0.014023620105703676    
  0.013434460874897173    0.01268325507643562    0.01183562387795205    0.010953105948011818    0.010091370229290724    
  0.00929853531504717    0.008609621895527119    0.00804041799423018    0.007594555614665131    0.007261476197421948    
  0.0070179715840894144    0.006857268769597568    0.006762864003306065    0.006732489069107437    0.005742221144698833    
  0.00579072618954669    0.005929481108255746    0.00616416263831935    0.006492685619865275    0.0069218057476332    
  0.0074556020451500195    0.008102451296259612    0.008854763459624517    0.009696688673483694    0.010587265701932937    
  0.011484847759689628    0.012333921063008789    0.01307331579070091    0.013650935475608923    0.014023606452127831    
  0.01415617775585503    0.014023610329269643    0.013650933855222968    0.013073309335099962    0.012333923060143505    
  0.011484840685795202    0.01058728087899401    0.009696679203116107    0.008854766676029913    0.008102472091267543    
  0.007455611134927022    0.006921801607937114    0.006492670377894946    0.006164165317288618    0.005929469580882439    
  0.005790724429192023    0.005742221144698833    0.004116313554585043    0.0041867522163118506    0.004400504037473799    
  0.004746917046755025    0.005215871653431635    0.005793892594763096    0.006484578456651478    0.00726443519244621    
  0.008129018265032083    0.009051981258004998    0.009999489518681648    0.010921411098389696    0.011778663004831092    
  0.012509558883288653    0.01307332284675971    0.013434464747237942    0.013554147091664678    0.013434464691987913    
  0.013073330108923423    0.012509552322619168    0.011778663940559523    0.010921414610973495    0.009999508755072916    
  0.009051975307458621    0.008129018945390752    0.007264440968121432    0.0064845811564585056    0.005793887279723429    
  0.005215872316541251    0.004746938849216152    0.004400498024241287    0.004186754704126944    0.004116313554585043    
  0.0019297612954474008    0.0020309959679094018    0.002330441421320759    0.002817754320026029    0.0034625674913032548    
  0.004247471635760821    0.005139852927633274    0.006113858892045681    0.007137718615560738    0.008182140249358648    
  0.009208220677630887    0.010182363341165863    0.011050077454622569    0.01177865160890734    0.01233393036483492    
  0.012683249522196008    0.012799559958900125    0.012683257921250793    0.012333926463993262    0.011778651614046223    
  0.011050074629735724    0.010182368892798662    0.00920822764596939    0.008182142749827747    0.007137711196266512    
  0.00611387764957683    0.005139853847898211    0.0042474745057919224    0.0034625621671386564    0.0028177701121670684    
  0.0023304260373066842    0.002030988064741106    0.0019297612954474008    0.0006571021522069997    0.000524442041552343    
  0.00013051881210925372    0.0005036282933969082    0.0013455362607751751    0.0023468526898548126    0.00347205418001926    
  0.004666198430630983    0.00589006130899859    0.007095254223716295    0.008235984558382137    0.009272665867649781    
  0.01018237451932199    0.010921413201828664    0.01148486046083705    0.01183562515009072    0.01195339696972415    
  0.011835626234213319    0.01148485801233583    0.010921416025816146    0.010182382231503619    0.009272658039507262    
  0.00823597615905328    0.007095244043614583    0.005890071859379373    0.004666195138595102    0.0034720490204024445    
  0.0023468457725234837    0.0013455328591687903    0.0005036146731258167    0.0001305370628539371    0.0005244554845614738    
  0.0006571021522069997    0.0034165390759689205    0.003252076788022681    0.002772481086530151    0.0020063190017002466    
  0.000997120148313247    0.00020544565983625628    0.0015471112427723015    0.0029732449612549067    0.004410812796101659    
  0.0058065182654617855    0.007091815886987748    0.008235987436858971    0.00920820418177306    0.00999949624688707    
  0.010587267699297511    0.010953093723895071    0.011075191312116617    0.010953093664074943    0.010587271870833645    
  0.009999492656600384    0.009208231403761492    0.008235974241133155    0.0070918078924024075    0.00580652352810151    
  0.004410814368547999    0.002973259563174241    0.0015471185968215643    0.0002054382365354706    0.0009971116816694014    
  0.002006301124082322    0.0027725025239317687    0.003252088004576776    0.0034165390759689205    0.006045744842295832    
  0.0058680833550029    0.005342193045960364    0.0044989615113613145    0.003375135251237875    0.002027527459211736    
  0.0005101248675621234    0.0011052808915412483    0.002747989868993557    0.004340207931659167    0.005806538928874965    
  0.007095256373531546    0.008182149584162045    0.009051962217393177    0.00969669303030775    0.010091378762944029    
  0.010226432364603761    0.010091369715203457    0.009696696012386019    0.009051976017060055    0.008182143693061422    
  0.007095265919202785    0.005806535338287318    0.004340195614085683    0.0027479851539176925    0.0011053026890723724    
  0.0005101345411803458    0.0020275282601712927    0.003375136600501014    0.004498952492708945    0.005342206614572172    
  0.0058680767755708895    0.006045744842295832    0.008229706189095277    0.008068088753004845    0.007564205509118274    
  0.006724143304400835    0.005586338478528703    0.004188063534169018    0.002586681835398573    0.0008382496577672282    
  0.0009695835134975012    0.0027479687841130435    0.00441080393651773    0.005890067045522694    0.007137719917159961    
  0.00812900660027129    0.008854770144499837    0.009298527713993922    0.009452694734057038    0.009298531789582365    
  0.00885476310086686    0.008128996976309253    0.007137710882711012    0.005890045640819621    0.0044108019679592455    
  0.002747981611946063    0.0009695653728792748    0.0008382366470664058    0.002586692037409457    0.004188084393636394    
  0.005586336040782309    0.006724109877885076    0.007564217721767011    0.008068084144934744    0.008229706189095277    
  0.00968771034605397    0.009563919096964753    0.009165423879457131    0.008458927050005298    0.007441700093737358    
  0.006130550265168874    0.004558251247751231    0.002763818732128785    0.0008382249772536155    0.0011052912502555225    
  0.0029732581682975897    0.004666195897372051    0.006113868668083648    0.007264438354582335    0.008102463286904976    
  0.00860960356817715    0.008781701195133156    0.008609619164446216    0.008102474875954674    0.007264434101132992    
  0.006113864136427044    0.00466620807252923    0.0029732579311139715    0.00110527323527158    0.0008382140993198421    
  0.0027638066181148715    0.004558259390809008    0.006130561163290872    0.007441697062221676    0.008458898802474503    
  0.009165459695719028    0.009563935945784656    0.00968771034605397    0.010168020504661212    0.010112911482749386    
  0.0099093748019572    0.009486597530809325    0.008774968619639585    0.007707518522487749    0.006295016754225986    
  0.004558277189829764    0.0025866899331080367    0.0005101443742714809    0.0015471212352995206    0.003472040995576268    
  0.005139840401277579    0.00648457109718747    0.007455610574946258    0.00804039474279976    0.008233578295962215    
  0.008040413697307612    0.007455610384505887    0.006484568608323228    0.00513983467854787    0.0034720446236528747    
  0.0015471267377693391    0.000510130946782235    0.0025866927218873587    0.004558245088057025    0.006295016662624166    
  0.007707521390260481    0.008774967445340023    0.009486582767321755    0.009909390033717137    0.010112919366789902    
  0.010168020504661212    0.009544552847524783    0.009605067764379634    0.009708569282021353    0.009721546161477647    
  0.009478172973337841    0.008831607673565079    0.007707505584405214    0.006130565519199106    0.004188045143981303    
  0.0020275267656518887    0.0002054513879676467    0.0023468448486462052    0.0042474926533635025    0.005793888963059244    
  0.006921821115271271    0.00759455598935192    0.00782013322329397    0.0075945600117830105    0.006921824223953084    
  0.0057938946938733416    0.004247490181033315    0.0023468468972989553    0.00020545783519318312    0.002027543284694486    
  0.0041880511976673035    0.006130557976594744    0.007707507918051351    0.008831629319512906    0.009478183154144212    
  0.009721501551435138    0.009708568575685951    0.009605070157395678    0.009544552847524783    0.007944852656447498    
  0.008146046421483677    0.008653164334716197    0.009208965174967138    0.009575114912598364    0.009478193388793577    
  0.00877496573877328    0.007441715416776437    0.005586341715828259    0.003375140615678901    0.000997111561672005    
  0.001345525162242233    0.003462576657913666    0.005215869533842188    0.00649268678168589    0.007261465985686128    
  0.007515901874780199    0.007261470878788598    0.0064926787007323055    0.005215870229189535    0.0034625773805708475    
  0.001345520747542744    0.000997110614381246    0.003375144163084709    0.005586354483642317    0.007441704910164983    
  0.008774980202289706    0.009478206244833393    0.009575146431080673    0.009208926544649113    0.008653161022359936    
  0.008146065604311073    0.007944852656447498    0.005757719139179066    0.006101917375580404    0.0070159023842189    
  0.008185795334345197    0.009208926606913147    0.009721534980831678    0.009486578238935466    0.008458903765670427    
  0.006724129292015145    0.004498955069960064    0.0020062808724563056    0.0005036253877338128    0.0028177516426008474    
  0.004746922857904424    0.006164165559374401    0.0070179810452192775    0.007305540184935945    0.007017972743323455    
  0.006164175381165012    0.00474691780092246    0.0028177576505362288    0.0005036138259283698    0.0020062959590981142    
  0.004498963748662488    0.006724121451037624    0.008458898948550151    0.009486587473596934    0.00972155248231472    
  0.009208956371556108    0.00818574969176245    0.0070159114128452256    0.006101940152911783    0.005757719139179066    
  0.003568846096323975    0.004034853453144847    0.005305573475926196    0.0070159500025247625    0.008653153754589879    
  0.00970860715623564    0.009909389769379252    0.009165459411206217    0.007564195417730741    0.0053422095666301175    
  0.002772469106061817    0.00013053172923707033    0.0023304344816302957    0.004400488197819061    0.005929470168605697    
  0.006857259057723611    0.007167901092620675    0.0068572665671708605    0.0059294724053029785    0.004400494417609117    
  0.002330442961471188    0.00013055018814073517    0.0027724742560305024    0.005342203516253895    0.007564177644329578    
  0.009165417810270304    0.009909373668999124    0.009708612522043141    0.00865316242884236    0.0070159281931508576    
  0.005305594315793623    0.004034860313968459    0.003568846096323975    0.001976929942945356    0.0025279250836115915    
  0.004034815621967472    0.006101941357340536    0.008146038877015876    0.009605067760353397    0.010112926505451049    
  0.009563927293737194    0.00806806648088549    0.005868069358506621    0.0032520706709214544    0.0005244535242577532    
  0.0020310035519264117    0.004186743267743418    0.0057907367192292095    0.0067628721069038136    0.007088477991876301    
  0.006762866986963433    0.005790747442127593    0.004186746676742197    0.002030993936492978    0.0005244526668657526    
  0.0032520584455497012    0.005868073446782809    0.008068082960219025    0.009563903048098303    0.010112908527775025    
  0.009605070199995236    0.008146034029014104    0.006101925592147637    0.00403484330102566    0.0025279607150021435    
  0.001976929942945356    0.0013922018409302074    0.0019769288997764653    0.0035688986732974083    0.0057577360392906465    
  0.007944850103336763    0.009544577227927944    0.010168046211922313    0.009687763915852143    0.008229713787604705    
  0.006045749323188264    0.003416544162264415    0.0006571253531849824    0.0019297555013971974    0.004116306911249468    
  0.00574221856644119    0.006732475043701773    0.007063150896346756    0.006732481525351485    0.005742209559716334    
  0.004116298530057693    0.0019297516935144463    0.0006571258302216749    0.0034165517531998812    0.006045762550705934    
  0.008229715764035925    0.009687718974405101    0.010168027449167436    0.009544588173041308    0.007944852621339347    
  0.005757708976655054    0.0035688700010169773    0.0019769410542874737    0.0013922018409302074    0.0002769800820803307    
  0.0008324648953296411    0.002372819838160439    0.00452875124394398    0.006741627854626336    0.008458392089992559    
  0.009263956879046808    0.008992162442267106    0.007724609327173333    0.005689615255990799    0.0031857511065807465    
  0.0005350185738121167    0.0019711169921512537    0.004104842179660732    0.00570929608570422    0.006691063921619727    
  0.007019475693171012    0.006691070864314405    0.005709289301671792    0.004104837504705494    0.00197111812603707    
  0.0005350291725156111    0.003185752347820641    0.005689608589304106    0.007724612877508527    0.008992147633965906    
  0.00926392855798251    0.008458410293121756    0.00674166031532218    0.004528760297877592    0.0023728184683607842    
  0.0008324843003890035    0.0002769800820803307    0.0008324254040094517    0.0013636789721159178    0.0028276037796791643    
  0.004868208848542339    0.006957331527265844    0.008531124297462021    0.009227886020426039    0.008883231140374925    
  0.007574120274931507    0.005524762265111807    0.0030327285631117345    0.0004099660275251947    0.0020636369630330285    
  0.004170733003920966    0.005749734233803708    0.006715899337176902    0.007038951477855586    0.006715914942323376    
  0.00574973502179474    0.004170731064126415    0.0020636504765606293    0.00040995902597200785    0.0030327377986619597    
  0.005524777707083834    0.007574115307936171    0.00888321924723856    0.009227929356614758    0.008531147741315344    
  0.006957345662426998    0.004868191606064782    0.0028276256544411448    0.0013636818765506275    0.0008324254040094517    
  0.002372797192398442    0.002827603201506462    0.004075590066138032    0.005790624358045418    0.0074883608813293675    
  0.008692782538985722    0.00907523562973165    0.00852785770874482    0.007107499095744322    0.005034914504432009    
  0.002584965933729987    4.399187301044097e-05    0.002340997581637486    0.00436201154259488    0.005869515622066664    
  0.006789326623918094    0.007100883101098371    0.006789333969865831    0.005869530505590765    0.004362007925594889    