#     DFTpy    
  CRYSTAL 
    
  PRIMVEC    
  3.283729834116861    -1.8041000000000003e-10    3.4196000000000003e-10    
  -1.8041000000000003e-10    3.2837298339260506    1.6477000000000002e-10    
  6.248900000000001e-10    3.0115000000000004e-10    6.0158566968605305    
  PRIMCOORD    
  4    1    
  Si    1.6418649169958703    1.6418649178665903    1.8486381689499003    
  Si    6.088500000000001e-10    -5.634800000000001e-10    1.1592901774581201    
  Si    9.338000000000002e-11    4.2556e-10    4.8565665159901705    
  Si    1.6418649174881301    1.6418649166192603    4.167218531829611    
  BEGIN_BLOCK_DATAGRID_3D    
  3d_datagrid_density    
  BEGIN_DATAGRID_3D#0    
  33    33    61    
  0.0    0.0    0.0    
  3.283729834116861    -1.8041000000000003e-10    3.4196000000000003e-10    
  -1.8041000000000003e-10    3.2837298339260506    1.6477000000000002e-10    
  6.248900000000001e-10    3.0115000000000004e-10    6.0158566968605305    
  0.010932794249684952    0.009841476340177879    0.006817219894818799    0.002503201451554275    0.0021800555289421364    
  0.00631196684831904    0.00923233261208865    0.010644721323611942    0.01061199597100624    0.009404446318664215    
  0.007371884440489568    0.004924249759065834    0.002460523024827691    0.00028869509488277004    0.00136919594277073    
  0.002395479251760097    0.0027408548679298847    0.0023954721126362164    0.0013692124901298504    0.0002886882173436768    
  0.002460523948274862    0.004924269378239787    0.007371881118359884    0.009404439722235687    0.010611988435194454    
  0.010644740974903318    0.009232310270281048    0.006311948318702179    0.0021800362327128067    0.002503185137094255    
  0.00681723641446688    0.009841460818448031    0.010932794249684952    0.009841473952191367    0.008800717885239272    
  0.0059073412718727535    0.0017823224769774864    0.0026785635658766937    0.0065894399445500075    0.009321659323621403    
  0.010606633713634739    0.010492063107532989    0.00923776294484571    0.0071994404241326766    0.004773336546803214    
  0.00233582270683162    0.00019318872881948627    0.0014429597561459227    0.0024505010075995086    0.002790602603966394    
  0.0024504940769352556    0.001442971254061932    0.00019317634539101376    0.002335832234849383    0.00477333769931795    
  0.007199444987513446    0.009237734465438694    0.010492082621833047    0.010606639797346844    0.00932162971661374    
  0.006589465900869163    0.0026785467357916767    0.0017822761528921845    0.005907350463306072    0.00880071479288995    
  0.009841473952191367    0.006817239183230906    0.0059073752542339805    0.0033792702098815732    0.00019776337360139648    
  0.004027380091478477    0.007306135357924836    0.009526835340930032    0.010449876994400784    0.01010408826067063    
  0.008741257249647581    0.00669511906826255    0.004324488016039558    0.001967025773835211    9.496135261952841e-05    
  0.0016557561899280425    0.0026176885166224175    0.0029421974638983977    0.0026176666823831576    0.0016557552427793416    
  9.497616425517097e-05    0.001967026873675358    0.00432449128920676    0.00669510919399127    0.008741249473267829    
  0.010104089851166734    0.010449905269640196    0.009526822094469077    0.007306133661489781    0.0040273680837765525    
  0.0001977550139170265    0.003379278943549945    0.005907336143802189    0.006817239183230906    0.0025032407825152534    
  0.0017822865478330013    0.00019777038942751573    0.002949628712718515    0.005830097890902789    0.008229716833520171    
  0.009709694779696873    0.010099004115356582    0.009431223544749808    0.007935425895945824    0.005884145689820022    
  0.003599338981491429    0.0013665885127513444    0.0005614761503067053    0.0020102365840529647    0.002895652328946542    
  0.003196070394230282    0.002895643007224906    0.002010251411088383    0.0005614853824530098    0.0013665918748650982    
  0.0035993580811460556    0.005884158410937904    0.007935416715318982    0.009431248848298102    0.01009902216889111    
  0.009709689635732635    0.00822969861409577    0.00583011503463457    0.002949605117320176    0.00019776662993154518    
  0.001782301312769085    0.0025032407825152534    0.002180046769760631    0.002678574740343132    0.0040273817814845585    
  0.005830102102553954    0.007663170013994601    0.009056273792889029    0.009708930268607129    0.009495033220516863    
  0.0084819791362918    0.00684292964414492    0.004806540766511484    0.00263211520012571    0.0005699517255169498    
  0.0011912246730720524    0.0024991334100649917    0.0032967633108195765    0.003562367683190759    0.0032967467889142383    
  0.002499142942262371    0.00119124060354946    0.0005699482074126611    0.0026321208810717567    0.004806564614437144    
  0.006842929757945086    0.008482009848458713    0.009495046447544148    0.00970890511281645    0.009056262773626448    
  0.0076631840534354045    0.0058301462854591715    0.004027391131709167    0.002678582993650588    0.002180046769760631    
  0.006311949072507134    0.0065894494401748    0.007306125240235292    0.008229709752936208    0.009056236820643925    
  0.009496689884083122    0.009360281164369705    0.008597072247320692    0.007262042702950604    0.005508122470330515    
  0.0035100503152637515    0.0014757913724785993    0.00039989232897440387    0.001963990261336232    0.0031236195137333608    
  0.0038223185911367796    0.004057780492950729    0.0038223056871106373    0.0031236296858145433    0.001963995020718496    
  0.0003998852943924555    0.0014757970782973415    0.0035100465621918835    0.00550811760238296    0.007262046712656056    
  0.008597067480985087    0.00936025082006802    0.009496670770053528    0.009056230610371741    0.008229723025191017    
  0.007306170257048931    0.0065894517679707795    0.006311949072507134    0.009232309425131488    0.009321649415181746    
  0.009526825211989517    0.009709692727037363    0.009708926092849995    0.009360274395527765    0.0085978014507812    
  0.007389746815293458    0.005804199170072631    0.003975809938943158    0.0020503344545267465    0.0001715338020037196    
  0.0015017499847555904    0.0028763973756351967    0.003880948828706499    0.0044905567772797255    0.004692550817855915    
  0.0044905341227975855    0.0038809462482087137    0.0028764088754721835    0.0015017430529992736    0.0001715476161161296    
  0.0020503234787460434    0.0039757968068240045    0.0058042020093526225    0.0073897610182989916    0.008597803824765854    
  0.009360263229329436    0.009708900571809296    0.009709703600269435    0.009526849181775732    0.009321632116016706    
  0.009232309425131488    0.010644706391046586    0.010606648191971307    0.01044988647955145    0.010099020114951332    
  0.009495015342229865    0.008597088803921961    0.007389741775008794    0.005880458376356196    0.004149400233419404    
  0.00231503642797406    0.0004857076657758365    0.001217206321765827    0.0027013393388174546    0.003895817933807709    
  0.004772806093639777    0.00530596900234676    0.00548721897096693    0.005305963736546094    0.004772818292158647    
  0.003895815347583762    0.002701332494486279    0.0012172097411949398    0.0004857119646673557    0.002315048109822765    
  0.004149406056849478    0.005880474469171681    0.007389745418518435    0.008597064756259253    0.00949501241205913    
  0.010099023246631105    0.010449887567615262    0.010606616703502951    0.010644706391046586    0.010611974178950361    
  0.010492080699535139    0.01010411861525619    0.009431233753044832    0.00848198217149236    0.007262067537290127    
  0.005804199767595958    0.0041494152328724375    0.0023830727488772592    0.000599470099579876    0.0011035455778772955    
  0.0026436200091225445    0.003958073965370938    0.00501043848026436    0.005784135659444644    0.006257994321166236    
  0.006422634812308944    0.0062579890215570515    0.005784134437808761    0.005010455663910428    0.003958078561276786    
  0.0026436099376794123    0.001103541919995627    0.0005994565174585402    0.0023830862122758015    0.004149413479477679    
  0.005804193958781957    0.007262035633312493    0.00848198998042766    0.009431251958033208    0.010104096276126472    
  0.010492073965400379    0.010611974178950361    0.00940443841251067    0.009237764815657098    0.008741261994160596    
  0.007935412847382547    0.006842915471569974    0.00550812367230767    0.003975815491347192    0.002315046713798269    
  0.0005994725085596442    0.0010861637126181008    0.002656868018287152    0.004050912856753406    0.0052349383068183005    
  0.006185959204171758    0.006891427784071878    0.0073232135133588705    0.007470748006993331    0.00732319384659261    
  0.006891443491836931    0.006185965442350481    0.005234934496778476    0.00405089012022033    0.002656879180694988    
  0.0010861729716511322    0.0005994713575989929    0.002315060930429834    0.0039757973521615825    0.005508112298063936    
  0.0068429211506940224    0.007935449833955228    0.008741259979526099    0.009237750747949887    0.00940443841251067    
  0.007371880936147293    0.007199440704068084    0.006695120367192283    0.005884146381356495    0.004806537096987742    
  0.0035100679967460606    0.002050325617494385    0.0004857056514014577    0.001103540110377667    0.002656864595443571    
  0.004096648191517555    0.005385395847363921    0.0064848204065474715    0.0073802499122839395    0.008044548096373437    
  0.008457243443427442    0.008594880995911623    0.008457227053394262    0.00804453765118192    0.0073802571328360055    
  0.006484809574921628    0.005385392266099712    0.0040966583302237914    0.0026568876279652646    0.0011035467674915852    
  0.00048572176102969265    0.002050322318042592    0.003510052275964252    0.0048065400507703825    0.005884168101912151    
  0.006695112191900511    0.0071994206666415065    0.007371880936147293    0.004924262891653996    0.004773350911438934    
  0.004324491821299774    0.0035993443590680084    0.002632113707399998    0.001475805122421662    0.00017154422380847063    
  0.0012172091529857683    0.0026436204270176415    0.00405090036215016    0.005385404084914868    0.006600466828830516    
  0.0076669782929433975    0.00853367847484451    0.009192114323977991    0.009601140569692707    0.009738462631736724    
  0.009601116717402304    0.009192134422637693    0.008533694340969282    0.007666965777610069    0.006600457932695963    
  0.005385402470677327    0.004050907534872054    0.002643614645595819    0.0012172030761179013    0.000171532776367341    
  0.001475778101845771    0.002632111774830344    0.003599355162855141    0.0043244943858027065    0.00477333018860044    
  0.004924262891653996    0.0024605171296728633    0.002335846278772931    0.0019670325627266774    0.0013665850530181882    
  0.0005699547059647599    0.00039987751757460035    0.0015017374313362245    0.0027013256167212154    0.003958073013635679    
  0.005234926315754711    0.006484818951578728    0.00766697224136692    0.00871811098741257    0.009598530951566231    
  0.010267345521690511    0.010687022639274336    0.01082704611527922    0.010687004150402735    0.010267357466107173    
  0.009598551907825631    0.008718111132730152    0.007666964818621256    0.006484810371621707    0.0052349218908046185    
  0.003958065660287998    0.002701320662821524    0.001501750044176538    0.0003998895094697601    0.0005699587056097796    
  0.0013665945819661142    0.001967022868034506    0.002335838214381309    0.0024605171296728633    0.0002886929935188369    
  0.0001931809851862997    9.498037430263983e-05    0.0005614884796750438    0.0011912421623489903    0.00196399051679864    
  0.002876397695300585    0.003895816878152718    0.005010449780481633    0.006185952553255854    0.007380262032873157    
  0.0085336955832362    0.009598551270616047    0.010502814997916818    0.011197536802683072    0.011640471532311132    
  0.01178772170575039    0.01164046209353935    0.01119754296586539    0.010502847564206844    0.00959855521065538    
  0.008533680825608516    0.0073802590575767655    0.006185966835464028    0.005010449611203512    0.0038958055726736576    
  0.0028764146020583635    0.0019639945757299474    0.0011912372078110843    0.000561471670365753    9.497759511002331e-05    
  0.00019317966128864022    0.0002886929935188369    0.001369206459609071    0.0014429569158812513    0.0016557638969611438    
  0.0020102458810165244    0.0024991394841491713    0.0031236192863427045    0.0038809500052719107    0.004772822844299368    
  0.005784134179734283    0.0068914238942643525    0.008044557720424174    0.00919213833345085    0.010267363813794929    
  0.011197526202516909    0.011920009078110692    0.012383411665031941    0.012547032742586998    0.012383392861783643    
  0.011920014746833754    0.01119754870599815    0.010267367324753912    0.009192121353908973    0.008044554787999729    
  0.0068914445449092115    0.005784140777501625    0.004772801811971906    0.003880949958478033    0.0031236316682244566    
  0.002499146165369384    0.0020102294626594356    0.0016557582890083546    0.0014429618063228349    0.001369206459609071    
  0.0023954753854129713    0.0024504943277235997    0.0026176745670146175    0.0028956583669241358    0.0032967625223644403    
  0.0038222975403624    0.004490550839763122    0.005305974668444477    0.006257999935090976    0.007323203720501902    
  0.00845724087303902    0.009601139481556819    0.01068702497816704    0.011640453052269765    0.012383385127265766    
  0.012863988508206204    0.01303101400141586    0.012863975684928732    0.012383403273185125    0.0116404606384313    
  0.010687015041430842    0.00960111704106985    0.008457231945483827    0.007323202057140667    0.00625799916561085    
  0.005305970794066099    0.004490552649465451    0.0038223138165429213    0.0032967654373505057    0.002895649404752078    
  0.002617674114406265    0.002450513314040619    0.0023954753854129713    0.0027408541339137516    0.0027906039062479647    
  0.0029421901849161864    0.003196070717826442    0.0035623720016819114    0.004057758371795702    0.004692541158619015    
  0.005487230923024095    0.006422633513561985    0.007470736852457212    0.008594882670117111    0.009738469507291216    
  0.010827048115667802    0.011787710418150694    0.012547026994192708    0.013031013072828496    0.01320119376985507    
  0.013031002984669053    0.012547034039668978    0.01178772507542284    0.010827038607181833    0.009738451979575536    
  0.008594883003325332    0.007470749214441061    0.0064226268061899445    0.005487205656120546    0.004692560416175145    
  0.004057785093343267    0.0035623718844647254    0.003196051567784676    0.0029421938427765374    0.0027906101271483    
  0.0027408541339137516    0.002395467202390335    0.0024505003753309204    0.0026176807435032996    0.0028956623735779154    
  0.0032967586423690402    0.0038223041158608993    0.004490545575595185    0.005305965834465988    0.006257998037319134    
  0.007323204443197095    0.008457230162245902    0.00960112919896551    0.010687031997062509    0.011640459297011733    
  0.012383393950365197    0.012863984156354305    0.013031010643759834    0.01286396926808636    0.01238340757700172    
  0.011640466229394828    0.01068701799455799    0.009601108260316822    0.0084572357070806    0.007323209905127944    
  0.0062579947688226134    0.005305950450123991    0.004490556582244778    0.0038223111664495235    0.003296760150566874    
  0.0028956456176310636    0.0026176783771131506    0.0024505032439061563    0.002395467202390335    0.0013692042847763387    
  0.001442962870270273    0.0016557607245358647    0.0020102459985991868    0.002499144798737436    0.0031236118142550337    
  0.00388094144302225    0.004772821472820556    0.005784129568782827    0.006891432143153087    0.00804454109783437    
  0.009192121496425345    0.010267363767435889    0.01119753451671696    0.011920013770309502    0.012383405444141076    
  0.012547042365209133    0.012383392708020339    0.011920013702331575    0.011197549841455552    0.010267354094531047    
  0.009192127243641282    0.008044547168213689    0.006891442565452695    0.005784133147988882    0.004772805102695138    
  0.003880956916469329    0.0031236349143685853    0.0024991460308964974    0.002010239477485712    0.0016557589208350224    
  0.0014429670739701179    0.0013692042847763387    0.0002886795115977172    0.00019318137671769253    9.497032540290295e-05    
  0.0005614810583637534    0.0011912353471571755    0.0019639847302496773    0.0028763955791294    0.003895816475033968    
  0.005010454615450893    0.006185951781982058    0.00738025281573281    0.008533691088190954    0.009598556719741736    
  0.010502818102940915    0.011197527157897711    0.011640463860951031    0.011787729803867053    0.011640458558943443    
  0.011197540691405019    0.01050283067510617    0.00959855504750465    0.008533678627436007    0.0073802532344256575    
  0.006185968735550631    0.005010440065692477    0.0038958115292783324    0.0028764062293843737    0.0019639993263499593    
  0.0011912407656742565    0.0005614792234734154    9.49705760247224e-05    0.00019318311371692052    0.0002886795115977172    
  0.002460527592295292    0.00233584987180322    0.0019670333745989465    0.0013665810672575506    0.0005699480605052302    
  0.0003998797240208259    0.001501745639158858    0.0027013253946723847    0.003958075945379896    0.0052349194841221445    
  0.006484812129945298    0.007666979392537883    0.008718114427672324    0.009598535984820116    0.010267351943201046    
  0.010687014611147619    0.010827048428472307    0.010687004803688649    0.010267357136552337    0.009598555715434626    
  0.008718105063836083    0.007666966721875237    0.006484815591101893    0.005234920713108628    0.003958060460251105    
  0.002701322879229414    0.0015017528596136431    0.00039988647583623257    0.0005699593381121462    0.0013666029092114609    
  0.0019670245652115767    0.002335844841689521    0.002460527592295292    0.004924267486958774    0.004773327716320871    
  0.00432447693501897    0.0035993339835355756    0.0026321167020246067    0.0014757982975869737    0.00017155330091064006    
  0.0012172146989959493    0.0026436222520667863    0.004050898503569495    0.005385396526232808    0.006600457860087579    
  0.0076669759987064365    0.008533675242478153    0.009192117114658378    0.009601145142206297    0.009738465770769977    
  0.009601117593344555    0.009192134155973938    0.00853368397683345    0.007666973874624061    0.0066004633526646145    
  0.0053854023837134795    0.004050904405899772    0.00264362129399561    0.0012172018913786172    0.00017153909671474324    
  0.0014757741724570075    0.002632119987092888    0.0035993420963755193    0.004324498061972413    0.004773337990950183    
  0.004924267486958774    0.00737188411078887    0.007199425111677954    0.006695102644544719    0.005884152851237399    
  0.00480653699280205    0.0035100648957480268    0.0020503233645427295    0.0004857121825646888    0.0011035400070511263    
  0.0026568704942463417    0.004096660212881648    0.005385405214410281    0.006484811707974725    0.007380251719925012    
  0.008044549449478274    0.008457241491037744    0.008594884608744536    0.008457227937980706    0.008044545576319631    
  0.007380270936635661    0.006484810771804773    0.005385384425799212    0.004096657209771611    0.0026568829671021286    
  0.0011035409724582121    0.0004857191426532621    0.0020503225903549414    0.0035100446078021436    0.00480653648797784    
  0.005884171681569187    0.006695111869697166    0.007199435991280512    0.00737188411078887    0.009404436819144274    
  0.009237764783202693    0.008741254754336257    0.007935427987267528    0.006842920984749713    0.0055081334397261445    
  0.0039758108726317435    0.0023150368914482636    0.000599463037379416    0.0010861738164671035    0.0026568816368201338    
  0.004050904650260935    0.005234938497894499    0.006185949459640416    0.006891432757230228    0.007323203574238692    
  0.007470748524506211    0.007323199592381795    0.006891441980830885    0.0061859546091197586    0.005234928536963693    
  0.0040508967314005166    0.0026568774590315604    0.0010861750380571087    0.0005994553329436579    0.0023150504015360986    
  0.003975803691168727    0.005508109487839019    0.006842905058984614    0.007935436149913828    0.008741256748844458    
  0.009237747495271486    0.009404436819144274    0.010611973171490773    0.010492078927781015    0.010104104252262634    
  0.009431231126658444    0.008481969456635836    0.007262061242712078    0.005804201773450607    0.004149403576420807    
  0.002383075306703534    0.0005994690873778468    0.001103536174201244    0.00264361454373403    0.003958075277392956    
  0.005010434555247539    0.005784132065843383    0.0062580023466560185    0.006422645130948435    0.00625799103604606    
  0.0057841352578077605    0.005010450298284962    0.003958064720858197    0.002643597054791125    0.0011035396549604227    
  0.0005994601285547009    0.0023830931606270925    0.004149419809778984    0.005804196749676267    0.007262026774095833    
  0.008481968467663846    0.009431257995358117    0.010104091152786876    0.010492083675204475    0.010611973171490773    
  0.010644717810764455    0.010606646892723181    0.010449882044380463    0.010098998805819201    0.009495025293656567    
  0.008597068083796658    0.0073897607987913365    0.005880471633314177    0.004149422979558666    0.0023150525249468956    
  0.0004857251868444991    0.0012172057194087251    0.0027013417676441088    0.0038958184029889574    0.004772802142289899    
  0.005305977186894857    0.005487223285474421    0.005305972545228698    0.004772816944654607    0.003895814279257334    
  0.002701330114462653    0.0012171981133578453    0.0004857213151433259    0.0023150361949041505    0.00414940641746347    
  0.005880487103991464    0.0073897459936897785    0.00859706262969983    0.009495020274809654    0.010099026495862248    
  0.010449889268841784    0.010606631114889234    0.010644717810764455    0.009232320664558763    0.00932163226685924    
  0.00952683856146795    0.009709682544609596    0.009708886167248836    0.009360281105108293    0.008597802232305517    
  0.007389741537615559    0.005804202213779947    0.003975799347380648    0.0020503286897916068    0.00017154379030176847    
  0.00150175815105317    0.0028763933616751014    0.0038809424658696615    0.004490571395290011    0.004692556094479796    
  0.0044905413416750015    0.003880937379359025    0.002876407596218364    0.001501742957641367    0.0001715372981165276    
  0.0020503190137798042    0.003975794525350132    0.005804206438544189    0.00738975692671586    0.008597773617534245    
  0.009360257642023449    0.009708901688651088    0.009709714025510076    0.009526835406086459    0.009321618184698536    
  0.009232320664558763    0.0063119439889721945    0.006589465242433926    0.0073061267136091375    0.008229701204626079    
  0.009056241301421774    0.009496707449064294    0.009360252467314211    0.00859706446214042    0.007262034278539482    
  0.0055081214445975345    0.0035100548362351704    0.0014757784280958165    0.00039988747811822527    0.0019639843631112    
  0.003123618314134391    0.003822321970524098    0.0040577798544215666    0.0038223083862118333    0.0031236343721054256    
  0.0019639913696124765    0.00039988743652843425    0.0014757999357832025    0.003510051443905948    0.005508114204754512    
  0.0072620319076674425    0.008597066585139547    0.009360265099433657    0.009496671342545678    0.009056232473472483    
  0.008229720963131147    0.007306143921405738    0.0065894457601864825    0.0063119439889721945    0.002180072541451046    
  0.0026785682319512096    0.004027382675384409    0.005830080198631518    0.007663171447915923    0.00905623515406118    
  0.009708910929863463    0.009495026511279335    0.0084819848895107    0.00684292559407674    0.004806544412841992    
  0.0026321237879164826    0.0005699455087970974    0.0011912279616835848    0.0024991282574486134    0.003296767457929549    
  0.0035623695400134364    0.00329675128612042    0.0024991452199638266    0.0011912402046572344    0.0005699471152634353    
  0.0026321296125007467    0.004806540164565771    0.006842938496085034    0.00848200573519368    0.009495043640895985    
  0.00970891082739624    0.009056237855423567    0.0076631881299948894    0.005830120158317774    0.004027362702132833    
  0.002678590726836724    0.002180072541451046    0.002503165668394831    0.0017822823386986388    0.00019774198772958918    
  0.002949585403015317    0.005830095660307939    0.008229716879511803    0.009709694485545683    0.01009901643498947    
  0.009431238109498823    0.007935439358416346    0.005884170754581211    0.003599344072988072    0.0013665892447524389    
  0.000561480317960826    0.0020102403721235043    0.0028956591512747996    0.003196063519125847    0.002895654287272954    
  0.0020102483932533085    0.000561486620458915    0.001366583434863466    0.0035993429420000814    0.005884150301059446    
  0.007935417756923697    0.009431236323095168    0.010099021153997429    0.00970968867994509    0.008229708406387664    
  0.005830101026015186    0.0029496163374069157    0.0001977789708533974    0.001782266032965951    0.002503165668394831    
  0.006817244336656801    0.005907341843020997    0.003379271496544609    0.00019777240774691287    0.004027379127010943    
  0.007306130787339538    0.009526844316495923    0.010449887890009679    0.010104100780902635    0.008741252735644944    
  0.0066951089546797155    0.004324489648255853    0.001967009207680214    9.496979425537559e-05    0.0016557576481897997    
  0.002617689334219607    0.0029421924258524836    0.002617662408474234    0.001655754325667152    9.498529151482195e-05    
  0.001967036080748283    0.004324491741097926    0.006695111172459138    0.00874124234768532    0.010104094281959726    
  0.010449885154527357    0.009526828806399849    0.007306147651245226    0.0040273551229390745    0.00019780177176184394    
  0.0033792951921514758    0.005907332129655597    0.006817244336656801    0.009841489378199552    0.008800705049183845    
  0.005907324084004399    0.0017822975291258009    0.002678551635657246    0.006589461225289676    0.009321649125795802    
  0.010606631910183035    0.010492065996833637    0.009237747446500546    0.007199424644901536    0.004773325077053078    
  0.0023358355111484813    0.00019319385256983887    0.0014429573347189435    0.002450508692079077    0.0027906079754997995    
  0.0024504951341358192    0.0014429665400659804    0.00019317697281806496    0.0023358403573387207    0.0047733454527417105    
  0.0071994473201813175    0.009237745050752932    0.010492076430224762    0.010606650708816633    0.00932163908895496    
  0.006589469321404996    0.002678554958082261    0.0017822803448491863    0.005907338579904266    0.00880073768431095    
  0.009841489378199552    0.010932794249684952    0.009841476340177879    0.006817219894818799    0.002503201451554275    
  0.0021800555289421364    0.00631196684831904    0.00923233261208865    0.010644721323611942    0.01061199597100624    
  0.009404446318664215    0.007371884440489568    0.004924249759065834    0.002460523024827691    0.00028869509488277004    
  0.00136919594277073    0.002395479251760097    0.0027408548679298847    0.0023954721126362164    0.0013692124901298504    
  0.0002886882173436768    0.002460523948274862    0.004924269378239787    0.007371881118359884    0.009404439722235687    
  0.010611988435194454    0.010644740974903318    0.009232310270281048    0.006311948318702179    0.0021800362327128067    
  0.002503185137094255    0.00681723641446688    0.009841460818448031    0.010932794249684952    0.012407380805590918    
  0.011341673390739573    0.008354809169188465    0.0040480720269870235    0.0006963623514299312    0.004989317491635512    
  0.008138190460131518    0.009803491155450024    0.009999563373920137    0.008971461007137521    0.007087994059036903    
  0.004766715224223198    0.0023955757422760835    0.0002843808491426404    0.0013475747441297787    0.0023629242519930095    
  0.0027052382115007215    0.002362913394929211    0.0013475873691809607    0.00028437713964970764    0.002395580646891855    
  0.004766733079743897    0.007087990983021839    0.008971466069041669    0.00999958298380405    0.009803511553715989    
  0.008138160876009349    0.004989262003968655    0.0006963469930737642    0.004048100631937412    0.008354820498622477    
  0.0113416632974045    0.012407380805590918    0.011341690049095656    0.010316076494090146    0.007451259948663216    
  0.0033274600795394    0.0012149231881345961    0.005283171979968126    0.00825071451888009    0.00978333590933584    
  0.00989308381978692    0.008819492243981255    0.00692841632360388    0.004624294741481398    0.0022805170460117015    
  0.0001939351938492866    0.001412597701929305    0.002411923947249395    0.002748667875038198    0.0024119175640721726    
  0.001412610361354711    0.0001939309603622671    0.0022805261671268477    0.004624296874802703    0.006928423160676491    
  0.008819480306787173    0.00989308099882916    0.009783338743858103    0.008250695538901657    0.005283171580273759    
  0.001214922525057032    0.0033274172195793907    0.00745126766466122    0.010316056322333044    0.011341690049095656    
  0.008354810200238044    0.007451279037172791    0.004931173519630786    0.0013237327801003977    0.0026011775270204447    
  0.006072020609477079    0.00851752642739572    0.009678167254166713    0.009548972695782748    0.008364269484297141    
  0.006459869207963163    0.004206558520931659    0.0019362145172894321    6.949469130590938e-05    0.0016047017951748921    