#     DFTpy    
  CRYSTAL 
    
  PRIMVEC    
  3.283729834116861    -1.8041000000000003e-10    3.4196000000000003e-10    
  -1.8041000000000003e-10    3.2837298339260506    1.6477000000000002e-10    
  6.248900000000001e-10    3.0115000000000004e-10    6.0158566968605305    
  PRIMCOORD    
  4    1    
  Si    1.6418649169958703    1.6418649178665903    1.8486381689499003    
  Si    6.088500000000001e-10    -5.634800000000001e-10    1.1592901774581201    
  Si    9.338000000000002e-11    4.2556e-10    4.8565665159901705    
  Si    1.6418649174881301    1.6418649166192603    4.167218531829611    
  BEGIN_BLOCK_DATAGRID_3D    
  3d_datagrid_density    
  BEGIN_DATAGRID_3D#0    
  33    33    61    
  0.0    0.0    0.0    
  3.283729834116861    -1.8041000000000003e-10    3.4196000000000003e-10    
  -1.8041000000000003e-10    3.2837298339260506    1.6477000000000002e-10    
  6.248900000000001e-10    3.0115000000000004e-10    6.0158566968605305    
  0.006975944419814353    0.006040771912216309    0.00345775546322152    0.00020091038183087532    0.0041128913363250065    
  0.007460414877171727    0.009666935463927244    0.010488310962402485    0.01000714424569447    0.008488715295406962    
  0.0062626141447945805    0.003710163494267303    0.0012009817989199385    0.000981372347739803    0.002633696258230582    
  0.003651439761159988    0.003993144135483373    0.0036514448555047974    0.0026337090987909725    0.0009813613568375168    
  0.0012009919774998174    0.0037101798981293284    0.006262600077120709    0.008488712687460596    0.010007145360451853    
  0.01048829736440019    0.00966693995225522    0.007460406877240288    0.0041129302658790045    0.0002009201570825165    
  0.0034577863167652594    0.006040751591540238    0.006975944419814353    0.006040727855390503    0.005150922805776128    
  0.0026849641748903246    0.0008049501707040125    0.0045185693633764575    0.007669466314183297    0.009709856190976212    
  0.010421632121870465    0.009872058120283573    0.008316354033563345    0.006090372148200635    0.0035626087949323973    
  0.0010813229604934582    0.0010712893877225143    0.0027017444420742503    0.003700926767932154    0.004037391706899832    
  0.003700923434937134    0.002701744432362285    0.0010712872450358971    0.00108133703537483    0.0035626030107180255    
  0.006090360989608859    0.008316366205437636    0.009872055554772009    0.010421595645754502    0.009709834120812846    
  0.007669398379263611    0.004518563256479736    0.0008049628206244944    0.0026849183456791816    0.0051509106038908105    
  0.006040727855390503    0.0034577486287623374    0.002684961836447663    0.0005453744014486802    0.002454220257584039    
  0.005604403706353829    0.008192595813019371    0.009783529530847957    0.010184077126700455    0.009441697675804179    
  0.007804064465631152    0.0055869569275667375    0.003124063820918814    0.0007274323321111242    0.0013427748991294423    
  0.0028978784816755393    0.0038517118178572657    0.004172728495931374    0.0038517184775331034    0.002897880795220653    
  0.0013427749040676397    0.0007274161670103081    0.0031240722433346114    0.005586938007098127    0.0078040617852532645    
  0.009441731361413876    0.010184058739529201    0.009783553581004968    0.008192587567635011    0.005604407742643676    
  0.00245422535260436    0.0005453730874459233    0.0026849743762454342    0.0034577486287623374    0.00020091523313668863    
  0.0008049642482196734    0.0024542234708684716    0.004714682828423766    0.007017312711913361    0.008828168951022695    
  0.009770997534551362    0.009713823022997824    0.008706909971597584    0.006975952836408323    0.004779047674702976    
  0.002416312514209972    0.00015143760812903715    0.0017824819431275787    0.0032254633474763854    0.004103460357052255    
  0.004400649837144258    0.004103465251306047    0.0032254740303575458    0.0017825002134077555    0.00015143611075643264    
  0.002416307281799471    0.00477903496458763    0.006975965485206691    0.00870693232081418    0.009713788878720937    
  0.009771020144869278    0.008828170200131298    0.0070173285192962325    0.0047146768379845595    0.0024542575095327854    
  0.0008049887659389834    0.00020091523313668863    0.0041129160146645355    0.004518552312808799    0.005604418535241649    
  0.007017311823996748    0.0083906858362719    0.00931539644798009    0.009539814505132142    0.008969918633658093    
  0.007686090883464841    0.005859876085527077    0.0037084062947726685    0.0014736519909175265    0.0006123850992654689    
  0.0023764369171871695    0.003678534147543663    0.0044694684739055995    0.004732369407665564    0.00446946887452149    
  0.003678530815239923    0.002376427363034272    0.0006123857287623805    0.00147365823744943    0.0037083949289528576    
  0.005859895854757683    0.007686098358271719    0.00896992062306362    0.009539818262739013    0.009315395847422043    
  0.008390699800840729    0.007017321055447312    0.005604389224173364    0.004518555623049601    0.0041129160146645355    
  0.007460403863328551    0.007669418650081769    0.008192608059038407    0.008828186792606276    0.009315404260043226    
  0.009409674252729318    0.008956673812916802    0.007930155717806073    0.006395653798712934    0.004504900810069098    
  0.0024242540572732645    0.000348291841066446    0.001542036972807678    0.0031060316384962376    0.004259569185126168    
  0.004952498550279317    0.005185610098713626    0.004952501998068922    0.004259577364665841    0.0031060344956763486    
  0.001542031653868414    0.00034831147016886366    0.002424239516724196    0.00450491072553305    0.006395657365305124    
  0.007930106775093307    0.008956666637040757    0.009409637626552302    0.009315421051007714    0.008828175061044632    
  0.008192611500096146    0.007669439825571953    0.007460403863328551    0.009666940138119652    0.009709834017650161    
  0.009783556255410764    0.009770990105914264    0.009539817550987062    0.008956677219612515    0.007979889066748984    
  0.006594898962135947    0.004876998163852261    0.002959753869442345    0.0009827517673977307    0.0009193526548791986    
  0.0025982924407137666    0.003969289462355953    0.004967436621280232    0.005571751467699545    0.005771827365560261    
  0.005571753077032124    0.00496744419452571    0.003969285667125007    0.002598307728556884    0.0009193545144609447    
  0.000982755879670803    0.0029597459097870068    0.004877011617702894    0.006594887280028693    0.007979911122797547    
  0.00895666821856416    0.009539809431216758    0.009771002870000692    0.009783544577435785    0.009709838494841798    
  0.009666940138119652    0.010488290896918532    0.010421601483965875    0.010184062958962797    0.009713792890356251    
  0.008969910188587069    0.007930127576724701    0.0065948912422057315    0.004982407783610602    0.0031767541838551923    
  0.0012952064492378055    0.0005579021635253947    0.0022677952681753725    0.0037487280575596226    0.004935904167608204    
  0.005805249825749099    0.0063330294293493    0.006512326625212924    0.0063330387517272135    0.0058052641655674244    
  0.004935908348536553    0.003748724511172549    0.002267796885945185    0.0005579075075621652    0.0012952157937909218    
  0.0031767579477756792    0.004982389637008367    0.006594920443044635    0.007930108866626711    0.008969925884593699    
  0.009713805384817673    0.010184072281406723    0.010421619662956376    0.010488290896918532    0.010007150132111455    
  0.009872048653475206    0.009441714575809371    0.008706917220513116    0.007686096583776731    0.006395664127394782    
  0.004877012221022456    0.0031767738071451245    0.001381641284356356    0.0004151801922457335    0.002119008091116146    
  0.0036516370401341184    0.004954736111856035    0.005995508859610773    0.006759579295899418    0.007227319549996476    
  0.007389735254609942    0.00722732429841596    0.006759589575316674    0.005995510416173438    0.004954728790304692    
  0.003651635228504596    0.002119021233554831    0.00041519129218083256    0.0013816400355701275    0.0031767400154228695    
  0.004877019829039243    0.0063956480810979325    0.007686112502914292    0.008706908981125173    0.009441720775233522    
  0.009872050858025307    0.010007150132111455    0.008488708157093405    0.008316352209070505    0.007804067275275193    
  0.006975958817354804    0.005859888533851238    0.0045049200132808945    0.0029597500297256557    0.0012952269771267387    
  0.00041519072345983676    0.0020882715452560457    0.003641552031898721    0.005016074417833426    0.006180967030352134    
  0.007115580169433832    0.007808548232551438    0.008232728785063039    0.008377702583305219    0.008232727675080596    
  0.007808545423835921    0.007115574450181911    0.006180969131246343    0.005016061479002612    0.0036415615929643974    
  0.002088250193667772    0.0004151963205135403    0.0012952031905205386    0.0029597432918790465    0.004504892709115062    
  0.0058598965933523905    0.006975959495243705    0.007804084109371791    0.008316360164689092    0.008488708157093405    
  0.006262600579034358    0.006090348105273718    0.005586948276115767    0.004779021876370078    0.003708396991105724    
  0.002424226785111606    0.000982732300582982    0.000557895880979445    0.002119019386732602    0.0036415621489045468    
  0.005050286533224615    0.0063092715346108625    0.007382170423955823    0.008255752383138467    0.008904022702673748    
  0.009306903443948031    0.009441338352687173    0.009306911775999537    0.008904020158201398    0.008255746405779033    
  0.0073821847080949715    0.006309289984668456    0.005050297525650665    0.0036415570153699416    0.002119005524969492    
  0.0005579129379409336    0.0009827446997162199    0.0024242203170050085    0.00370839405054962    0.004779029614400642    
  0.005586955664453563    0.006090353659440961    0.006262600579034358    0.003710177545619862    0.0035626168590188424    
  0.0031240628602867957    0.0024163217222654583    0.0014736579415487753    0.00034831333203965076    0.0009193572836048352    
  0.0022677765599008557    0.0036516237816186705    0.005016075193051374    0.006309265500426664    0.007486228121722694    
  0.008519057433957642    0.009358554371482582    0.009996656593950232    0.010393244620135052    0.010526421485372245    
  0.010393249472648611    0.009996659803555033    0.00935855512238435    0.008519066467607693    0.007486237985316423    
  0.006309276975385068    0.005016064565195208    0.003651615618475839    0.0022677930955940446    0.0009193448306230581    
  0.00034828690524735316    0.0014736690680583423    0.0024163132594924356    0.0031240768177208202    0.0035626259989738353    
  0.003710177545619862    0.0012009794249761038    0.001081326141095583    0.0007274407931047483    0.00015142774510249979    
  0.0006123811894721595    0.001542033888639837    0.0025982867455608466    0.003748718822536166    0.004954740915329113    
  0.006180971229622112    0.007382167399006618    0.008519076819402515    0.009530393969405549    0.010377923167460534    
  0.01102213392393499    0.011426541761486783    0.011561450000402086    0.011426551715551883    0.01102213187485549    
  0.010377920834195106    0.009530391409819636    0.00851906164036061    0.007382180904313392    0.006180956680374802    
  0.004954726386641123    0.003748724872798625    0.0025982880757377644    0.001542042284095964    0.0006123720257064382    
  0.00015143001267169183    0.0007274363731643086    0.0010813334240857815    0.0012009794249761038    0.0009813685103379323    
  0.00107128576190484    0.0013427685808556232    0.0017824861498831697    0.0023764439167040705    0.0031060292369973876    
  0.003969284451180365    0.004935888566463197    0.005995511136540782    0.007115576677088174    0.008255738293266215    
  0.009358558829628957    0.010377927877366987    0.011244298589846902    0.011910358541294923    0.01233533672261105    
  0.01247658199898998    0.012335342918863386    0.011910365175108248    0.011244301515020264    0.010377917081567722    
  0.009358550743250689    0.008255739676747309    0.007115567722960328    0.0059955227884834214    0.004935898441892765    
  0.003969286306554013    0.0031060278658491913    0.002376430742105175    0.00178247960163328    0.0013427658978544977    
  0.001071282731771519    0.0009813685103379323    0.0026336959696680144    0.002701746793233302    0.0028978762137106327    
  0.003225472219948894    0.00367853233253773    0.004259571990444332    0.004967439857549511    0.005805255360172519    
  0.006759598375069833    0.0078085553062534705    0.008904018267087708    0.009996662359557026    0.011022128467493782    
  0.011910374972609182    0.012601011892769676    0.013044469345617949    0.013201236632068604    0.01304446746465559    
  0.012600998041471481    0.01191037308189769    0.011022140057554851    0.009996679892490009    0.008904020854671013    
  0.007808550175544438    0.006759579396586589    0.005805266475682652    0.004967431926600885    0.0042595799907693774    
  0.003678530208740373    0.0032254666250752205    0.0028978779525107527    0.0027017472858815996    0.0026336959696680144    
  0.00365144729015891    0.00370092396926891    0.003851713372854995    0.00410346319461982    0.004469468459780473    
  0.0049525000033204935    0.005571755513840278    0.006333033624671064    0.00722731477543721    0.008232732668704496    
  0.009306891477347643    0.010393249976272837    0.011426553858018183    0.01233534800095723    0.013044459287842243    
  0.013503940186678097    0.01366382943479461    0.013503936332072315    0.013044475620686679    0.012335335734410834    
  0.011426551144065438    0.010393248874704742    0.009306902023152581    0.008232720801781876    0.007227318915515126    
  0.006333044307577347    0.005571748802334803    0.004952500607980825    0.004469471535361121    0.004103463320443305    
  0.003851710396737511    0.0037009196548285443    0.00365144729015891    0.003993147359559695    0.004037392486811171    
  0.004172724265480598    0.004400647529892461    0.0047323762752618515    0.005185617898236731    0.00577181814962641    
  0.006512319901965308    0.00738973079293338    0.008377703626150262    0.009441334683384626    0.010526429102808205    
  0.011561457290790216    0.012476586512838922    0.013201219505500721    0.013663834002077612    0.013826781634812461    
  0.013663839927989545    0.013201216797574772    0.012476587118101283    0.01156144343177717    0.010526418171234198    
  0.009441341875414263    0.008377704566607285    0.007389740304324667    0.006512330693493213    0.005771807868394705    
  0.005185630795270033    0.00473236291256516    0.004400647244483799    0.004172728473678827    0.004037395436091528    
  0.003993147359559695    0.0036514476493165545    0.0037009268648458887    0.0038517105167682002    0.004103461753525297    
  0.0044694789015353505    0.004952485213012503    0.005571755519842503    0.006333027738192154    0.007227318362288003    
  0.008232738550123193    0.009306893753720083    0.010393252428446537    0.011426559260848634    0.012335341411682951    
  0.013044463670022332    0.013503936421138462    0.01366384481228865    0.01350394073875405    0.013044471524573333    
  0.012335349979290311    0.011426548432885892    0.010393242479120941    0.009306892713757297    0.008232717659399792    
  0.007227316790375269    0.0063330466912652926    0.0055717467701856815    0.004952511553254474    0.00446947191100041    
  0.004103469283381895    0.0038517009040209505    0.0037009168877904296    0.0036514476493165545    0.002633705881875513    
  0.0027017453787752913    0.002897873330107255    0.0032254624684113207    0.003678531447910032    0.004259577162312824    
  0.0049674514557826845    0.005805255485198451    0.0067595963931710145    0.007808543944756025    0.008904014032992395    
  0.009996659217010758    0.011022142582340798    0.011910374395963066    0.012601015446957547    0.013044469381501198    
  0.01320123275543641    0.013044485399824444    0.012601013315923938    0.011910379524749446    0.011022139902672349    
  0.009996657471008183    0.008904016790011494    0.007808550497811595    0.006759588449665569    0.005805271530305489    
  0.004967437520212774    0.004259581608710386    0.0036785289203091764    0.003225462339282414    0.002897874455374212    
  0.0027017453024330627    0.002633705881875513    0.0009813645384536113    0.001071289030822268    0.0013427746536611026    
  0.0017824849192349017    0.0023764395808676276    0.0031060224586901258    0.00396928656070644    0.004935891769614722    
  0.005995506846705278    0.007115580898527373    0.008255734346670018    0.009358550640504802    0.010377918780091765    
  0.011244294328023412    0.011910356755303256    0.012335349879430227    0.012476596528564702    0.012335343732297102    
  0.011910370267533275    0.011244314823176362    0.010377920792239708    0.009358547594897591    0.00825573956855    
  0.007115565966314383    0.00599550002327915    0.004935903973415609    0.003969274201863058    0.0031060310539626477    
  0.002376431780284945    0.0017824841136081994    0.0013427657117694807    0.001071271255977155    0.0009813645384536113    
  0.0012009767095762017    0.0010813243705146372    0.0007274398137827731    0.00015143414957066284    0.0006123900021921693    
  0.0015420316715825991    0.002598299326928578    0.00374871996497511    0.004954737384773903    0.006180968126260584    
  0.007382157547401733    0.00851907241201289    0.009530397090193118    0.010377925261971217    0.01102213426321798    
  0.011426554299726902    0.011561458856449599    0.011426542244511442    0.011022133160585366    0.010377912459240924    
  0.009530393684351804    0.008519053945799045    0.007382173475845465    0.00618095480730824    0.004954732479836061    
  0.003748729010422568    0.002598291627737224    0.0015420380734607706    0.0006123697771839114    0.00015142697321750802    
  0.0007274282980825386    0.0010813316699502008    0.0012009767095762017    0.003710171513236755    0.0035626031330153736    
  0.0031240682442741086    0.0024163141198533904    0.0014736602451178138    0.0003483177683024086    0.0009193588827296912    
  0.0022677749653839453    0.003651634444664019    0.005016057218271233    0.00630927179915326    0.007486244108857274    
  0.008519062079362481    0.009358554948689791    0.009996644038876259    0.01039324151431104    0.010526415361902405    
  0.010393240686550353    0.009996655448698323    0.00935855132184411    0.008519059268074017    0.00748622500272452    
  0.006309278881609643    0.005016055003738441    0.003651616450717947    0.0022678042059132023    0.0009193450335998789    
  0.00034828961578339416    0.0014736772659086467    0.002416318247241045    0.0031240795401828525    0.0035626176697992353    
  0.003710171513236755    0.006262605460910768    0.0060903696244640464    0.00558695391217935    0.004779022992630316    
  0.0037083902228296755    0.0024242263120181056    0.0009827347325157905    0.0005579184787727467    0.00211901886737568    
  0.00364156544134175    0.00505029765793844    0.006309287464969437    0.00738218194600854    0.008255754477196635    
  0.008904012838067911    0.009306894876885385    0.009441338903993414    0.009306905808607093    0.008904020332334683    
  0.008255746041993308    0.007382189353542317    0.00630928272706557    0.005050294044076129    0.0036415542069275484    
  0.0021190032651846155    0.0005579276335259659    0.0009827463645907765    0.0024242393397384617    0.0037083878714990067    
  0.004779029616712581    0.005586950733321118    0.006090351629370351    0.006262605460910768    0.008488719701044617    
  0.008316358640274977    0.00780406548964672    0.006975960652656156    0.005859890154623474    0.004504893502154638    
  0.00295974221991321    0.001295225164877978    0.00041518125656591807    0.0020882701957726955    0.0036415545577200485    
  0.005016070858524057    0.006180963961595307    0.007115576254880218    0.007808538199091538    0.008232712839717458    
  0.008377702819574678    0.008232724590233274    0.007808557129155516    0.007115571845736444    0.006180959830379792    
  0.005016061123980719    0.003641559899405874    0.0020882573658395544    0.0004151702463308716    0.001295211658269571    
  0.0029597607276009505    0.00450489117766408    0.005859895460135975    0.006975957391991655    0.007804068736667161    
  0.00831634523262138    0.008488719701044617    0.01000715372929159    0.009872046405001401    0.009441705005876763    
  0.00870691259609569    0.007686098572500284    0.006395664929749941    0.00487698982354235    0.003176764917638192    
  0.0013816397298697558    0.00041518443546123605    0.0021189953304081763    0.003651632257370953    0.0049547422530441705    
  0.005995518604649111    0.006759589996515496    0.00722732491894716    0.007389749250427466    0.00722731944381224    
  0.006759588568349485    0.005995507910409315    0.004954732739802286    0.0036516274607739656    0.0021190150816774145    
  0.0004151836555890788    0.0013816437080310991    0.0031767435204986963    0.004877012317047177    0.006395656786250946    
  0.0076861004231256955    0.00870690489515301    0.009441687551756183    0.009872056316679355    0.01000715372929159    
  0.010488308463712761    0.010421611055573918    0.010184071461638576    0.009713815519333851    0.008969928470419448    
  0.007930153454407144    0.0065948943257987365    0.0049824269498001195    0.0031767525904036428    0.001295206384122023    
  0.000557905870582686    0.0022677959662383684    0.003748723565433685    0.004935902805201797    0.005805265047890207    
  0.006333042817122379    0.006512332014256025    0.0063330486737634495    0.005805256807437125    0.004935893673762413    
  0.0037487273815888186    0.0022677903570556012    0.0005579131133503886    0.001295212723065648    0.003176763468529075    
  0.0049823760422557945    0.006594897513103227    0.00793011621862207    0.008969925603976761    0.009713802315818264    
  0.010184075011935748    0.010421614806189623    0.010488308463712761    0.009666936165437463    0.009709810918188183    
  0.009783546906948357    0.009770979287674808    0.009539824921214466    0.008956666088999306    0.007979903457123492    
  0.0065948997314195104    0.004877001821191767    0.0029597337292604216    0.0009827439009339302    0.000919357183423174    
  0.0025982933970961288    0.003969293209805051    0.0049674331200587445    0.00557175116923381    0.005771822930912707    
  0.005571755646225663    0.004967447316635763    0.003969289886487533    0.002598296705372371    0.0009193586124590713    
  0.0009827283182392594    0.002959745585853817    0.004877009183717304    0.00659489607768029    0.007979911613796156    
  0.008956653287719333    0.009539821037163644    0.00977101590546576    0.00978353820583804    0.009709839854559399    
  0.009666936165437463    0.007460427779093931    0.00766944594950523    0.00819260673379353    0.00882817255513968    
  0.009315400022127324    0.0094096634020706    0.008956661345460202    0.00793013638399665    0.006395653826773893    
  0.004504897124537919    0.0024242384080529512    0.00034829686900813347    0.001542031805097941    0.00310601570198597    
  0.004259570714202535    0.004952491684164053    0.0051856172703867    0.004952505441038414    0.004259588304269673    
  0.0031060297295788645    0.001542032794628108    0.00034830092361061346    0.0024242493463170326    0.0045049109457515    
  0.006395661330063773    0.007930121744638002    0.00895666364976916    0.009409629442872918    0.009315413583967463    
  0.008828182568491674    0.008192613508082688    0.007669455647397875    0.007460427779093931    0.004112933988184847    
  0.00451857031703946    0.005604433505459679    0.007017298979890483    0.00839070521451454    0.009315413989084606    
  0.0095398089922663    0.008969947931377368    0.007686096190219283    0.005859882987905817    0.0037083931697735224    
  0.0014736494122436947    0.0006123794485997208    0.0023764338489876656    0.0036785211682468107    0.004469470677355899    
  0.004732375088391716    0.004469473877744551    0.0036785362198614893    0.002376436761192467    0.0006123801878592631    
  0.001473667780984315    0.0037083836534066474    0.0058599058040332925    0.00768610068319441    0.008969909987526578    
  0.009539807547348414    0.009315410307499428    0.008390715037014013    0.007017335416664008    0.0056043922203421305    
  0.004518573758472322    0.004112933988184847    0.00020091944204815929    0.0008049479591231313    0.002454220320741044    
  0.0047146811253416234    0.00701730771596159    0.008828196332712797    0.009770994469577347    0.009713824175437098    
  0.008706938419644565    0.006975953638444292    0.004779038117895618    0.002416303895055979    0.0001514305012368462    
  0.0017824901385187935    0.0032254724509113183    0.004103472206392938    0.004400640968778247    0.004103454130114132    
  0.003225457398049723    0.0017824785202607135    0.0001514439091599746    0.002416319047429753    0.004779027153405009    
  0.006975957945070175    0.008706922410106786    0.009713785751675953    0.009771023156244264    0.00882816883861703    
  0.007017345352196193    0.004714681410256717    0.002454233004859099    0.0008049795877758662    0.00020091944204815929    
  0.00345777209268045    0.002684972235968997    0.0005453604376581462    0.002454209710248735    0.005604416777502118    
  0.008192595513465963    0.009783533886483288    0.010184061146647777    0.009441699513782972    0.007804058201678931    
  0.005586956021680935    0.0031240673912018044    0.0007274280024159671    0.001342778477743242    0.00289787792361045    
  0.00385170840824104    0.004172727450548445    0.0038517147156381095    0.002897870245902047    0.0013427735886884916    
  0.0007274229253324301    0.0031240619627428074    0.005586940796020316    0.007804053884664167    0.009441718360712743    
  0.01018405527511724    0.009783546757339126    0.008192604152559018    0.005604398739662018    0.0024542060740993187    
  0.0005453919497092345    0.0026849724588614912    0.00345777209268045    0.006040742469502269    0.00515093385763708    
  0.0026849696589744854    0.0008049550761500206    0.004518557160333883    0.00766945169137487    0.009709824314006117    
  0.010421625139169182    0.009872048945429741    0.00831634369401595    0.006090359102082914    0.0035626082114634194    
  0.001081324924018525    0.0010712817693594226    0.002701737054323114    0.0037009156273563795    0.004037392560589829    
  0.0037009260982346025    0.0027017540863426407    0.0010712981691558528    0.0010813340233849832    0.003562613211671766    
  0.006090358861923154    0.008316358479274883    0.00987206058920565    0.010421608080263784    0.00970986199416344    
  0.007669411722491337    0.004518575650398854    0.0008049589508924941    0.002684965392073818    0.005150932869878679    
  0.006040742469502269    0.006975944419814353    0.006040771912216309    0.00345775546322152    0.00020091038183087532    
  0.0041128913363250065    0.007460414877171727    0.009666935463927244    0.010488310962402485    0.01000714424569447    
  0.008488715295406962    0.0062626141447945805    0.003710163494267303    0.0012009817989199385    0.000981372347739803    
  0.002633696258230582    0.003651439761159988    0.003993144135483373    0.0036514448555047974    0.0026337090987909725    
  0.0009813613568375168    0.0012009919774998174    0.0037101798981293284    0.006262600077120709    0.008488712687460596    
  0.010007145360451853    0.01048829736440019    0.00966693995225522    0.007460406877240288    0.0041129302658790045    
  0.0002009201570825165    0.0034577863167652594    0.006040751591540238    0.006975944419814353    0.00835957847346695    
  0.007450685038973741    0.004908425520470785    0.0012635771980329426    0.0027007322384007635    0.006197879193559363    
  0.008620804505020875    0.009683460689625134    0.009421058552247157    0.008074212628640524    0.005991032530413274    
  0.0035602912721885236    0.0011406765334587262    0.0009830223437372481    0.002610491865730001    0.0036179119698271298    
  0.003956772759148143    0.0036179248684637426    0.002610496736428793    0.0009830161788663603    0.0011406834259523625    
  0.0035603080996268657    0.005991021332213558    0.008074210095838238    0.0094210702349296    0.009683445182334124    
  0.008620842263687848    0.006197863630072076    0.0027007448012713793    0.001263583077084762    0.004908483808054195    
  0.007450659823123222    0.00835957847346695    0.0074506637612280786    0.006577108040909305    0.004143197742208576    
  0.000660763118229033    0.003124961014018544    0.006422325391628686    0.008685867524422963    0.009633975568402774    
  0.009298870477602831    0.007916091640634122    0.005831319561809412    0.0034210712539527767    0.0010304531228456433    
  0.0010679355818469045    0.0026699293448994347    0.00366143538436255    0.003994757579527201    0.003661438722996108    
  0.002669928102262581    0.001067929290769297    0.0010304656641041507    0.0034210691570108315    0.005831313161785233    
  0.007916104439764362    0.009298872811168707    0.009633927059223004    0.008685867250614149    0.006422278674683128    
  0.0031249730679702983    0.0006607677176475197    0.00414318854670683    0.006577090851364206    0.0074506637612280786    
  0.004908457833702636    0.004143202348105531    0.002015143679088324    0.0010083676441065771    0.004245095727037725    
  0.007014004707077509    0.008818614747999822    0.00944603001289051    0.008910856359123085    0.007443841873400244    
  0.005362787103222738    0.00301293361073163    0.0007006041717025776    0.0013151508258373054    0.002845672355011137    