#     DFTpy    
  CRYSTAL 
    
  PRIMVEC    
  3.283729834116861    -1.8041000000000003e-10    3.4196000000000003e-10    
  -1.8041000000000003e-10    3.2837298339260506    1.6477000000000002e-10    
  6.248900000000001e-10    3.0115000000000004e-10    6.0158566968605305    
  PRIMCOORD    
  4    1    
  Si    1.6418649169958703    1.6418649178665903    1.8486381689499003    
  Si    6.088500000000001e-10    -5.634800000000001e-10    1.1592901774581201    
  Si    9.338000000000002e-11    4.2556e-10    4.8565665159901705    
  Si    1.6418649174881301    1.6418649166192603    4.167218531829611    
  BEGIN_BLOCK_DATAGRID_3D    
  3d_datagrid_density    
  BEGIN_DATAGRID_3D#0    
  33    33    61    
  0.0    0.0    0.0    
  3.283729834116861    -1.8041000000000003e-10    3.4196000000000003e-10    
  -1.8041000000000003e-10    3.2837298339260506    1.6477000000000002e-10    
  6.248900000000001e-10    3.0115000000000004e-10    6.0158566968605305    
  0.0015052173862707965    0.002084347324818714    0.0036604772347765915    0.005825981037809648    0.007985931206623598    
  0.009558254834082063    0.010157182603525047    0.0096570639986012    0.00818459310013441    0.005991224220399183    
  0.0033567982003290253    0.0005951874436605647    0.001991921509204393    0.004177731329349101    0.005802625510420866    
  0.006792113065049948    0.007122467443486835    0.006792103860272807    0.005802635375158998    0.004177751852509956    
  0.0019919305785195893    0.0005951836396978502    0.003356798474582382    0.005991210002521883    0.008184584644137948    
  0.009657099235078225    0.01015719057312538    0.009558239544196243    0.007985919475923926    0.005826032443628493    
  0.003660496023435554    0.0020842878155083798    0.0015052173862707965    0.00208431539679758    0.0026299413591400734    
  0.004121591296961609    0.006166155261474947    0.008183971225938724    0.009616546490878642    0.010100721419880356    
  0.009532551774235905    0.008022768148653119    0.005813669822203329    0.0031926404123643988    0.00046297261072639537    
  0.002092689636959765    0.00424769411842405    0.0058506677374860205    0.006822029748531168    0.007147330001353921    
  0.006822016615071048    0.005850668362560464    0.004247695205998343    0.0020926854245070913    0.00046297470244698676    
  0.0031926405298169907    0.0058136557925496    0.008022749363830328    0.009532568619068482    0.010100708235924917    
  0.009616513773755365    0.008184011822586011    0.006166145719333696    0.004121624531332824    0.0026299376444089877    
  0.00208431539679758    0.003660459210506098    0.004121635972286461    0.005378580919862079    0.007068636709364677    
  0.008682239712825288    0.009713818074060503    0.009893305381261173    0.009132136024281081    0.007518316112828573    
  0.005288234954826837    0.002714062228288961    7.036041117968924e-05    0.002390680089682186    0.004459967141767401    
  0.005987966016569791    0.006915022268321483    0.007225359835630829    0.006915007382396872    0.005987962078406846    
  0.004459968845250117    0.0023906792479031834    7.03827243698526e-05    0.0027140801256793417    0.005288209659855915    
  0.007518306771031282    0.009132133550434317    0.009893313569815982    0.009713799558347119    0.008682229934476952    
  0.00706866402951149    0.005378568008324862    0.004121593197984181    0.003660459210506098    0.005826008718199098    
  0.006166185021308178    0.007068630558122162    0.008221537290141525    0.009224904494148563    0.009717588771553773    
  0.009464794588709774    0.008422741638285432    0.006677558569768996    0.00444572614364716    0.0019495246569816195    
  0.000561669393387511    0.0028756724251511843    0.00480403268995567    0.006220327736502089    0.007073443699759466    
  0.007360745233235746    0.007073431094529498    0.006220333945937669    0.004804039259825932    0.0028756808422857956    
  0.0005616575006633556    0.0019495271467668694    0.004445700518635045    0.006677566432761844    0.008422774783342324    
  0.009464799842824724    0.009717575288743568    0.009224901965840847    0.008221548046366576    0.007068649123408289    
  0.006166130966974602    0.005826008718199098    0.007985961557385114    0.00818399716270176    0.00868218411475158    
  0.009224923979101003    0.009575833785313658    0.00946355308193548    0.008746646044961616    0.007402414574225565    
  0.00553920548357037    0.003323102761784686    0.0009426359494670455    0.0014006997333189826    0.0035173396484669828    
  0.005269791019197968    0.006545695215230867    0.007313852962490096    0.0075680432732999755    0.007313846099876222    
  0.006545703681292993    0.005269804832891402    0.0035173486650569605    0.0014006860461282082    0.0009426286429892763    
  0.003323087063942198    0.005539193332136272    0.007402430579283784    0.008746655106301786    0.009463539904160415    
  0.00957582075818221    0.009224926928619858    0.008682219738758941    0.008183936948108766    0.007985961557385114    
  0.009558247835711263    0.009616545305305634    0.009713797388524473    0.009717569667824584    0.009463536465497592    
  0.00880631222012812    0.007672769523416114    0.006088351663273128    0.00414070279633417    0.0019771247637694334    
  0.00025711373019398834    0.0023985523916441203    0.00429848816021766    0.005843967878061055    0.0069710064663564796    
  0.007643156611798691    0.007868498038354486    0.007643140344574387    0.006970999203538783    0.0058439676946103036    
  0.004298497018662347    0.0023985224048026265    0.0002571150992413604    0.001977113197706362    0.00414067793165626    
  0.006088378856312932    0.007672753446081156    0.008806275180420037    0.009463542981984227    0.009717576083272093    
  0.009713805059154288    0.009616533113823737    0.009558247835711263    0.010157192277159634    0.010100725791857673    
  0.009893265462870419    0.009464798383346908    0.00874668304448229    0.007672779610424715    0.006254742134926395    
  0.004513804259237931    0.002539594280990574    0.00046182604285353656    0.0015955356679398134    0.0035198063528624423    
  0.005186577977902781    0.006530250236952528    0.007500383797583794    0.008084628365194106    0.008277582002310187    
  0.008084613093195775    0.007500387363387962    0.006530262012132489    0.0051865739758493725    0.0035197956082668445    
  0.0015955247557556706    0.00046180356014275314    0.0025395973211948634    0.004513814021398831    0.006254730115235429    
  0.007672748431705189    0.008746653487490388    0.009464812632325155    0.009893273423281855    0.010100669816521022    
  0.010157192277159634    0.009657090266650953    0.009532573833955579    0.00913210869537739    0.008422746794080534    
  0.007402418526184591    0.006088364946857459    0.004513799741768206    0.002717955074090342    0.0007919565186744357    
  0.001151166974680217    0.0030181264367718625    0.004709777199313879    0.006156040009276568    0.00730535986665181    
  0.008142419919465882    0.008648968495398148    0.008820841670330168    0.008648948847321071    0.008142427748559953    
  0.007305376171414369    0.006156036296718992    0.004709747748568563    0.0030181199977534915    0.001151167424763128    
  0.0007919665256984622    0.002717996280589744    0.004513814042759554    0.006088334249165111    0.007402419542892262    
  0.008422751124126219    0.009132121779791665    0.009532569775790789    0.009657090266650953    0.008184590813273043    
  0.008022775952802711    0.007518298953430412    0.006677555126165352    0.0055392195244311935    0.00414068226593026    
  0.00253959993116664    0.000791978001170804    0.0010144953985023741    0.00279112470455862    0.004452018509470638    
  0.005929312369779312    0.007175169175352912    0.00816495864562848    0.008889603891007198    0.009332699364662989    
  0.009486605976227446    0.009332686113165796    0.008889612260384311    0.008164974202597498    0.0071751771728936625    
  0.00592930427705822    0.004452015334093473    0.0027911579151801446    0.001014495539042959    0.0007919757100371531    
  0.002539596938408374    0.004140677554386573    0.005539219446146472    0.006677591031660612    0.007518341035233664    
  0.008022735218337303    0.008184590813273043    0.005991236523301807    0.0058136796178823585    0.005288213050859916    
  0.004445715498604749    0.003323099245136662    0.0019771294917199362    0.0004618081277666589    0.001151167828889807    
  0.0027911362663575775    0.004380553385290458    0.005844121176185875    0.0071302819189645854    0.008214915165448615    
  0.009082923587491042    0.009726294218728745    0.010120171190306027    0.010254942908794425    0.010120168460621075    
  0.009726287506942875    0.00908292489647882    0.00821491824380479    0.007130253681565398    0.005844120521119603    
  0.004380573961650224    0.0027911423206811834    0.0011511600028352798    0.0004618142985897605    0.0019770948032390113    
  0.0033230978714217704    0.004445725925120041    0.005288224123429048    0.005813651213122856    0.005991236523301807    
  0.00335679559165777    0.0031926740145917574    0.0027140593419066254    0.0019495433636313448    0.0009426323019417496    
  0.000257104753365903    0.001595531968490011    0.00301811820547018    0.004452016311183745    0.0058441019014690895    
  0.007125943677848114    0.00826697785540617    0.009236491227444247    0.010025551047490698    0.010611701722478733    
  0.010976553375421375    0.011098285085435942    0.010976530630231018    0.010611702735431055    0.01002555429679963    
  0.009236489820804033    0.008266954755621536    0.007125927776180634    0.0058441208680759665    0.004452023961751262    
  0.003018127504293375    0.0015955234949619505    0.00025712150902245734    0.0009426282683604809    0.0019495449187209698    
  0.0027140553433808987    0.0031926457431025916    0.00335679559165777    0.0005951851971740782    0.00046296290884684607    
  7.035695882356777e-05    0.0005616702297527513    0.001400708514618668    0.0023985471151261244    0.003519820134095161    
  0.004709770524816448    0.005929318583328812    0.0071302748399314515    0.00826697075378601    0.009299978087169418    
  0.010206458400754724    0.010942880575294424    0.011504368005448599    0.011853958920464173    0.011971314215857362    
  0.011853942518387247    0.01150437735935216    0.010942898796105051    0.01020647069573313    0.009299951427745513    
  0.008266973293933852    0.007130278416977072    0.005929309208155288    0.004709741330490664    0.00351980594976707    
  0.0023985587301054143    0.0014007024048855793    0.0005616614052163233    7.036682199093427e-05    0.0004629546383769667    
  0.0005951851971740782    0.001991918422266479    0.002092668988659529    0.002390690842415155    0.0028756802172443877    
  0.0035173432332989917    0.004298486681888162    0.005186581632413752    0.006156036564280062    0.007175170337246399    
  0.008214910303740235    0.009236486258564084    0.010206463226443708    0.011070470040028129    0.0117960067012477    
  0.012348997937978489    0.012696938380596443    0.012812745407751548    0.012696927093108977    0.01234900235875647    
  0.011796006519801313    0.011070478625503838    0.0102064491177668    0.009236488098212666    0.008214921577233431    
  0.007175172282505109    0.006156028997586954    0.005186573798724659    0.004298508154661478    0.003517350101596744    
  0.002875665180074903    0.002390666949868038    0.002092682170331605    0.001991918422266479    0.004177748106059305    
  0.004247688980442428    0.004459978709991129    0.004804036421575433    0.005269788524279057    0.005843958786144083    
  0.006530258285569474    0.007305366168335244    0.008164952661423907    0.00908291208275642    0.010025555851040266    
  0.010942889624911408    0.011796009399577801    0.012523480754290285    0.013084660235916252    0.013444195100743316    
  0.01356330717296547    0.013444174613735907    0.01308464292751089    0.01252349207579303    0.011796014206901228    
  0.01094286198594904    0.01002555762342036    0.009082926236524838    0.008164974191752742    0.007305360850983591    
  0.006530253827829502    0.00584397385783657    0.005269793510397983    0.004804031033707464    0.004459976428350134    
  0.004247703064709482    0.004177748106059305    0.005802628175325554    0.005850657652864033    0.0059879748049091065    
  0.006220342201476418    0.0065456994104165665    0.006971002832710743    0.007500400586323276    0.008142422689298769    
  0.008889592112990684    0.00972628967463096    0.010611709491841002    0.01150436912500625    0.012349001047090517    
  0.013084651441703718    0.013659413725574509    0.014030336593365696    0.014162273215797832    0.014030328925986376    
  0.013659409282760587    0.013084652912856303    0.012348996936373752    0.011504367538454357    0.010611702452831799    
  0.009726315139873074    0.008889603052229108    0.00814241624240468    0.007500390025595193    0.006971012623995657    
  0.0065457008781193305    0.006220328534143124    0.005987969672895456    0.005850675651865848    0.005802628175325554    
  0.006792107888431265    0.0068220140734801945    0.00691502705842009    0.007073443713464142    0.0073138465535359815    
  0.00764314010324023    0.008084617597822153    0.00864896570315347    0.009332692285295728    0.010120174506849863    
  0.010976541345639796    0.011853959613726019    0.01269692252836412    0.013444191115276043    0.014030340418694155    
  0.01441272795537385    0.01454641525412171    0.014412723889854514    0.01403034018826207    0.01344420084912768    
  0.01269693151835425    0.01185393541927771    0.01097654901086622    0.010120183764171838    0.009332690477305042    
  0.008648955409268952    0.008084623321537433    0.007643149804396307    0.0073138505897255976    0.007073428374331924    
  0.006915008969025081    0.006822019881940718    0.006792107888431265    0.007122460232171626    0.007147317490321324    
  0.007225366019050493    0.0073607503945874045    0.007568043403369909    0.007868491798508829    0.008277575324946891    
  0.008820840939094092    0.009486605974394489    0.010254947417920253    0.01109829890800372    0.011971307314626067    
  0.012812744970725534    0.013563297753521532    0.014162281374822248    0.014546413856227897    0.014682616303520218    
  0.014546409026921045    0.014162284989819984    0.013563318364118943    0.012812766160615479    0.011971298395763953    
  0.011098304164150216    0.010254946188808966    0.00948660849378406    0.00882083356105285    0.008277588856244493    
  0.007868508847319508    0.007568035379194602    0.007360732195933765    0.00722535659968157    0.007147335412617634    
  0.007122460232171626    0.006792106073396534    0.0068220119100744405    0.006915015958926946    0.007073442318232854    
  0.00731384631722013    0.007643147443106209    0.008084611078527915    0.00864896259995115    0.009332681519430133    
  0.010120171338654668    0.010976544219743962    0.011853955314520133    0.012696926485108619    0.013444191109677893    
  0.014030340139668739    0.014412733694096    0.014546403979232281    0.014412723284482697    0.014030327738191031    
  0.013444184267155511    0.012696937914802165    0.011853929760019933    0.010976547990104415    0.01012017570487398    
  0.009332687250908493    0.008648952257389016    0.008084622922214103    0.00764315834528851    0.007313838779830414    
  0.007073434228952968    0.006915014867845376    0.0068220269966086195    0.006792106073396534    0.005802622859192091    
  0.005850650470376313    0.005987961052800542    0.006220328934068355    0.006545696950517716    0.00697100474899918    
  0.00750038468366208    0.008142427441028487    0.008889599456688478    0.009726289466758072    0.010611709689805009    
  0.011504373881359144    0.012348998036894609    0.01308465036356377    0.013659408322909074    0.014030332492099304    
  0.014162275122558774    0.01403031974070762    0.013659412439631563    0.013084646347463787    0.012349006982183056    
  0.011504358290703436    0.010611692853322967    0.00972629886466946    0.00888960601341401    0.008142431295720755    
  0.007500390083173164    0.006971008609729928    0.006545704089776326    0.0062203239426593575    0.005987978352720228    
  0.005850675790303677    0.005802622859192091    0.0041777390887639525    0.004247692996575261    0.004459968295872605    
  0.004804034961380992    0.005269800822187152    0.005843958350069058    0.0065302541655869375    0.007305367616729995    
  0.008164977152752845    0.009082917625724832    0.010025559520145068    0.010942886454435342    0.011796015971854135    
  0.012523471081879739    0.01308465378978272    0.01344419565158578    0.01356330983031845    0.013444188611080965    
  0.013084647979808442    0.012523495398455957    0.011796021386469383    0.010942868549520495    0.010025558788188107    
  0.009082930725314237    0.00816497811572463    0.007305360195012267    0.006530244721214066    0.0058439634730407175    
  0.005269798611389272    0.004804027752675454    0.004459969885682638    0.004247707542182951    0.0041777390887639525    
  0.0019919224688051745    0.002092671146412603    0.002390687909540337    0.002875676721783444    0.003517340080689752    
  0.004298477492615136    0.0051865928401801445    0.0061560334791819875    0.007175171649951632    0.00821491467653038    
  0.009236493420469937    0.010206467245516944    0.011070463025582932    0.011796008462965565    0.012348994674930943    
  0.012696938724525788    0.01281274772936144    0.0126969303497624    0.012348999851371266    0.011796027444321327    
  0.011070462463854238    0.010206441903450924    0.009236486318731519    0.008214925340242344    0.00717517304033821    
  0.006156040941351226    0.00518658546650958    0.004298486029925622    0.003517348171143671    0.002875663720781323    
  0.002390679489926185    0.002092686234151322    0.0019919224688051745    0.0005951896562197811    0.00046297100485448976    
  7.035583958861646e-05    0.0005616739273840202    0.0014006971526626328    0.0023985419518892047    0.0035198144026378974    
  0.004709772243712133    0.005929302220788839    0.007130278824450076    0.008266982257666197    0.009299978109960791    
  0.010206461289930956    0.010942885096965891    0.011504380920321943    0.01185395582358912    0.011971315817675307    
  0.011853946558739389    0.011504362932381069    0.010942886905111807    0.010206466853567336    0.00929995680514215    
  0.008266973919258042    0.0071302892134319715    0.00592931342873331    0.004709756727815117    0.003519806670665807    
  0.0023985575326111205    0.0014006944634019744    0.0005616572707239265    7.036493839078658e-05    0.0004629542005117494    
  0.0005951896562197811    0.0033568017001206108    0.0031926763960752886    0.0027140567445519213    0.0019495213706813002    
  0.0009426308124784975    0.0002571053151422318    0.0015955274054128138    0.0030181227269164145    0.004452023034315338    
  0.005844105749631172    0.007125948678095536    0.00826697038204324    0.009236483339147753    0.010025547082527326    
  0.010611696872626971    0.01097654293309817    0.011098285745346515    0.010976527264028584    0.010611707665407179    
  0.010025559452788838    0.009236491532898444    0.00826695456365054    0.007125932444123471    0.005844123051031367    
  0.004452016664565546    0.0030181139737381632    0.0015955276225460406    0.00025711414682463174    0.0009426250730558188    
  0.0019495480017881898    0.0027140531940878856    0.003192635107736909    0.0033568017001206108    0.005991227308907933    
  0.005813685562561721    0.0052882039030504036    0.004445716686021155    0.0033231108683190436    0.0019771286557078104    
  0.00046180495813689064    0.0011511778545390064    0.0027911372189417328    0.004380566571602298    0.005844124244503134    
  0.007130287039702412    0.008214910533440173    0.009082924350473408    0.009726299027965164    0.010120177975164348    
  0.010254932436032054    0.010120162148642317    0.009726294072285114    0.00908293325050791    0.008214916339473027    
  0.007130270679478873    0.00584412105244302    0.004380568464679695    0.002791144382471945    0.0011511587433782073    
  0.0004618186722428154    0.0019771134400152477    0.0033231162513949826    0.0044457184067838275    0.005288229246914342    
  0.005813653236565272    0.005991227308907933    0.008184595765644112    0.008022776137932116    0.007518309192756286    
  0.006677550766721687    0.0055392101511454    0.004140685078932403    0.0025395864130558997    0.0007919737221025004    
  0.0010144823152412118    0.002791138067545317    0.004452018777109322    0.005929306425541003    0.0071751734119059095    
  0.008164956423168918    0.008889606720527203    0.009332707631551735    0.00948661039635046    0.009332698906757097    
  0.008889600096817298    0.008164970969484675    0.0071751768027621034    0.005929300099204195    0.004452023823119972    
  0.002791152961895431    0.0010145028425921378    0.000791972742889817    0.002539600510452208    0.004140675773611917    
  0.005539225264968846    0.006677579201190961    0.007518325040256282    0.008022738231741117    0.008184595765644112    
  0.009657094852676882    0.009532572095462884    0.009132112029897697    0.008422735843250562    0.0074024006618454595    
  0.006088367687581271    0.004513806786097906    0.0027179719782044194    0.0007919839144655941    0.0011511594398422014    
  0.0030181165993392336    0.0047097632525077    0.006156045824771945    0.0073053568859378065    0.00814242835925565    
  0.00864896005083612    0.008820841699827057    0.008648947571528055    0.008142415699149839    0.0073053667096179735    
  0.0061560477510674335    0.004709739139459854    0.003018114249251607    0.0011511697648402266    0.0007919580297713596    
  0.0027179829027586745    0.0045138007670291564    0.006088345160031782    0.007402410986233155    0.008422752928416249    
  0.009132135394230067    0.009532549325104969    0.009657094852676882    0.010157194309435843    0.010100729735211535    
  0.009893282163972016    0.009464810072764751    0.00874667350524055    0.007672762733199847    0.006254723618962725    
  0.004513809634655481    0.0025396124042466883    0.00046182869349271417    0.0015955351188568598    0.0035198140191804736    
  0.00518658751122032    0.006530249281211589    0.007500400795585373    0.00808463198579766    0.008277579171776095    
  0.00808462019101061    0.007500390381132277    0.006530258168087909    0.0051865899192221395    0.003519799516502289    
  0.0015955172454467407    0.0004618095652533105    0.002539586555523795    0.004513792210015905    0.006254733943760382    
  0.007672741371775368    0.008746647130722901    0.009464814406016377    0.009893283519941478    0.010100693776700045    
  0.010157194309435843    0.009558245355627652    0.009616558629706133    0.009713792407613112    0.00971756821694472    
  0.009463525547017952    0.008806312179860309    0.007672731095176626    0.00608833975004952    0.004140677511007527    
  0.001977120743671728    0.0002571309628187756    0.0023985495384528104    0.004298481570859128    0.005843955944936149    
  0.006971004364681352    0.00764315705108476    0.007868503844448729    0.00764313950137438    0.0069710135434241285    
  0.0058439752338091755    0.004298503494953036    0.0023985306250765568    0.0002571070788687442    0.001977113032896318    
  0.004140688162449105    0.00608837623164583    0.0076727710451011165    0.00880629389882266    0.009463548557605166    
  0.009717581800668324    0.009713805033852104    0.00961650320998625    0.009558245355627652    0.007985937938940247    
  0.008184004032920068    0.00868219921056386    0.00922490630618066    0.009575840038409932    0.009463537764512102    
  0.008746670542621052    0.007402417435313187    0.00553920769506481    0.003323103397044974    0.0009426140239614858    
  0.0014007006583459565    0.003517349595396365    0.0052697900502942105    0.006545692660709102    0.007313859641572317    
  0.007568036595916508    0.007313841484830993    0.006545694228920746    0.005269800210406755    0.003517353121763694    
  0.001400680987227479    0.0009426229226178167    0.0033230848765235677    0.005539197028774573    0.007402417706795968    
  0.008746661617977661    0.009463518276760499    0.009575854275176621    0.009224912581134972    0.008682207118257488    
  0.008183957446868709    0.007985937938940247    0.005826001143977321    0.0061661827115535445    0.007068635371208239    
  0.008221500598219479    0.00922490951693663    0.009717585650948626    0.009464818330758365    0.008422750060653444    
  0.006677585194134186    0.004445728224206545    0.001949535541442419    0.0005616771407983013    0.0028756737304744423    
  0.004804028540662225    0.006220331959169697    0.007073448149995927    0.007360742598685892    0.0070734248113996515    
  0.006220320741864935    0.00480403411660288    0.0028756643463260403    0.0005616408569589328    0.0019495249154445307    
  0.004445720060984918    0.0066775606467477395    0.00842276910352263    0.009464792009622797    0.009717547103839895    
  0.00922491401541086    0.008221526181006878    0.007068674119713061    0.006166144147794808    0.005826001143977321    
  0.0036604760393680203    0.004121635165099423    0.0053785849775317305    0.007068637174478118    0.00868224798344487    
  0.00971382952187808    0.009893284092747643    0.009132110184706345    0.007518329699701879    0.005288230600468636    
  0.002714063204089997    7.036078004174853e-05    0.0023906737113614375    0.004459964744998853    0.0059879657785113696    
  0.006915016399615875    0.0072253485492729105    0.0069150080712778094    0.005987964510967743    0.004459976059903163    
  0.0023906721937541225    7.039627701159008e-05    0.002714072309524154    0.0052881910101880425    0.007518308714639271    
  0.009132127604106446    0.00989329375195379    0.009713804287907685    0.008682179590121531    0.007068669789737148    
  0.005378577830777838    0.0041215874368671435    0.0036604760393680203    0.0020843178215974576    0.0026299812627679554    
  0.004121587101901168    0.0061661470244497255    0.008183967092002947    0.009616554056932377    0.010100701137393118    
  0.00953254721926988    0.008022746255457812    0.005813672206855129    0.003192645431453167    0.00046295434061170167    
  0.002092679826746936    0.0042476928703397195    0.005850670047640536    0.006822025273128016    0.00714732944253992    
  0.006822016115152034    0.0058506640646337595    0.004247705548031553    0.002092694605168351    0.00046297874997469374    
  0.0031926487233345574    0.005813647218273624    0.008022750266091519    0.009532573558736507    0.010100717273693592    
  0.009616514405696604    0.008183991974858865    0.006166179149075157    0.004121627200150548    0.0026299220426812663    
  0.0020843178215974576    0.0015052173862707965    0.002084347324818714    0.0036604772347765915    0.005825981037809648    
  0.007985931206623598    0.009558254834082063    0.010157182603525047    0.0096570639986012    0.00818459310013441    
  0.005991224220399183    0.0033567982003290253    0.0005951874436605647    0.001991921509204393    0.004177731329349101    
  0.005802625510420866    0.006792113065049948    0.007122467443486835    0.006792103860272807    0.005802635375158998    
  0.004177751852509956    0.0019919305785195893    0.0005951836396978502    0.003356798474582382    0.005991210002521883    
  0.008184584644137948    0.009657099235078225    0.01015719057312538    0.009558239544196243    0.007985919475923926    
  0.005826032443628493    0.003660496023435554    0.0020842878155083798    0.0015052173862707965    0.00039723940331242265    
  0.0009469846923600371    0.00247122220368157    0.004603254166883646    0.006788223192843583    0.008476695142818009    
  0.009256827592149965    0.008964363156779611    0.0076816436728459276    0.005636632237731081    0.003127097008540606    
  0.00047385455516382914    0.002032750938922384    0.0041658868621137655    0.005769419446226948    0.006750473436990833    
  0.007078580508440947    0.006750467275749754    0.005769425853523658    0.0041659029093865626    0.002032758390043372    
  0.0004738639863829791    0.003127085100542847    0.005636621296338134    0.007681631574605602    0.008964390595269904    
  0.009256828672124635    0.008476677202498157    0.006788253571449604    0.004603290202933804    0.002471213554730475    
  0.0009469558267687675    0.00039723940331242265    0.0009469704346700971    0.001472685468935924    0.002921039831547997    
  0.0049385440694959485    0.007000678036141923    0.008547170813418289    0.009219355472647692    0.00885466531993442    
  0.0075309158842536425    0.005471869326238812    0.002974375471374355    0.000349224222205613    0.0021248147908781807    
  0.004231309431825525    0.005809399708651751    0.006774854868589057    0.007097609849904237    0.0067748435801885075    
  0.00580939914693495    0.004231318971060697    0.0021248188899718246    0.0003492371927581001    0.0029743851060017802    
  0.0054718549104390635    0.007530902406374541    0.00885469082235772    0.00921936757044378    0.008547126323049818    
  0.0070006666609170685    0.004938544871931741    0.0029210682768885774    0.0014726661101794928    0.0009469704346700971    
  0.0024712113002499747    0.0029210813661185767    0.004154974697780323    0.0058491635552302525    0.007522534507276097    
  0.008702306276388013    0.009062582102484958    0.008497142830873768    0.007063580778253924    0.0049823370387872485    
  0.0025275160980401637    1.5521624073886623e-05    0.0024007970598968575    0.004421170126915012    0.005927786984633538    