#     DFTpy    
  CRYSTAL 
    
  PRIMVEC    
  2.8703932116406103    -1.5770000000000003e-10    2.9892000000000004e-10    
  -1.5770000000000003e-10    2.8703932114738206    1.4403000000000002e-10    
  5.462400000000001e-10    2.6325000000000005e-10    5.258615993759211    
  PRIMCOORD    
  4    1    
  Si    1.4351966057656205    1.4351966065267403    1.6159424553757902    
  Si    5.322100000000001e-10    -4.925500000000001e-10    1.0133655397361203    
  Si    8.163000000000001e-11    3.7199000000000013e-10    4.245250451040361    
  Si    1.4351966061959205    1.4351966054364205    3.6426735418091014    
  BEGIN_BLOCK_DATAGRID_3D    
  3d_datagrid_density    
  BEGIN_DATAGRID_3D#0    
  28    28    51    
  0.0    0.0    0.0    
  2.8703932223472317    -1.5770000058822404e-10    2.989200011149773e-10    
  -1.5770000058822404e-10    2.870393222180442    1.4403000053723467e-10    
  5.462400020374857e-10    2.6325000098192754e-10    5.258616013373949    
  0.8264561414633385    0.8123256488182372    0.7715119477117969    0.7085526370163117    0.6302786646765807    
  0.5446158940749711    0.4591105215795137    0.379727185657482    0.3103415034443127    0.2528989548927378    
  0.20791692562654748    0.17505961848277005    0.1536633520642247    0.14312952018023883    0.14312952018023886    
  0.15366335206422474    0.17505961848277019    0.20791692562654746    0.2528989548927378    0.3103415034443127    
  0.379727185657482    0.4591105215795138    0.5446158940749711    0.6302786646765807    0.7085526370163117    
  0.7715119477117969    0.8123256488182372    0.8264561414633385    0.8123256488182373    0.7985154416856874    
  0.7586291718138358    0.6971013264411521    0.6205946092503736    0.5368322836151748    0.4531731677654247    
  0.3754474543455162    0.3074560782837206    0.25111613888569584    0.2069492575301893    0.17464766184665934    
  0.15358856276203944    0.14321193577287925    0.14321193577287925    0.15358856276203944    0.1746476618466594    
  0.20694925753018925    0.25111613888569584    0.3074560782837206    0.3754474543455162    0.4531731677654248    
  0.5368322836151748    0.6205946092503736    0.6971013264411521    0.7586291718138358    0.7985154416856872    
  0.8123256488182373    0.771511947711797    0.7586291718138358    0.721425886936064    0.6640335673846581    
  0.5926266926817999    0.5143451540377275    0.43600917004545814    0.3630615797770057    0.2990881580385326    
  0.2459261418697896    0.2041122389538241    0.17342031456139329    0.15334272163708523    0.14342585500339292    
  0.14342585500339292    0.1533427216370853    0.1734203145613934    0.20411223895382402    0.2459261418697896    
  0.2990881580385326    0.3630615797770057    0.43600917004545814    0.5143451540377275    0.5926266926817999    
  0.6640335673846581    0.7214258869360639    0.7586291718138358    0.771511947711797    0.7085526370163117    
  0.6971013264411521    0.6640335673846581    0.6130042823309211    0.5494350242624774    0.47957586068589836    
  0.40942512838247114    0.3438292081061345    0.28604016465736865    0.23777468446422556    0.19959846666564715    
  0.17141202464252642    0.15287646533202826    0.14368808174857572    0.14368808174857575    0.15287646533202826    
  0.17141202464252647    0.19959846666564715    0.23777468446422556    0.28604016465736865    0.34382920810613454    
  0.4094251283824712    0.47957586068589825    0.5494350242624775    0.6130042823309211    0.6640335673846581    
  0.6971013264411521    0.7085526370163117    0.6302786646765807    0.6205946092503737    0.5926266926817999    
  0.5494350242624774    0.4955204780922556    0.43605497569571444    0.37603428481493256    0.31956261903124306    
  0.26946769481025223    0.22731321750977024    0.19370401926042577    0.16869494627414122    0.15214007040248836    
  0.14389784247653986    0.14389784247653994    0.1521400704024884    0.1686949462741413    0.1937040192604258    
  0.22731321750977024    0.2694676948102522    0.31956261903124306    0.37603428481493256    0.43605497569571444    
  0.4955204780922556    0.5494350242624774    0.5926266926817998    0.6205946092503736    0.6302786646765807    
  0.5446158940749711    0.5368322836151748    0.5143451540377275    0.47957586068589847    0.43605497569571444    
  0.3878245152477416    0.3388153592802794    0.292319842047644    0.25068456129765276    0.21529300138534704    
  0.18678624812995884    0.16537491310420666    0.1510971937325972    0.14395626588161922    0.14395626588161925    
  0.15109719373259722    0.16537491310420677    0.18678624812995878    0.21529300138534704    0.25068456129765276    
  0.292319842047644    0.3388153592802794    0.3878245152477416    0.43605497569571444    0.47957586068589847    
  0.5143451540377275    0.5368322836151748    0.5446158940749711    0.4591105215795138    0.4531731677654247    
  0.43600917004545814    0.4094251283824712    0.37603428481493256    0.33881535928027934    0.30068166193028056    
  0.2641242876045138    0.23099440888138234    0.2024758022117202    0.17922569032301172    0.1615820246619549    
  0.14972837525365806    0.1437740820482713    0.14377408204827136    0.14972837525365817    0.161582024661955    
  0.17922569032301167    0.20247580221172015    0.23099440888138234    0.2641242876045138    0.30068166193028056    
  0.3388153592802793    0.37603428481493256    0.4094251283824712    0.43600917004545814    0.4531731677654248    
  0.4591105215795138    0.37972718565748204    0.3754474543455162    0.3630615797770058    0.3438292081061345    
  0.31956261903124306    0.29231984204764394    0.26412428760451373    0.23674708267879518    0.21157470048702953    
  0.18958387727415596    0.17141391622653931    0.1574778323413386    0.14804721770399207    0.14329134119469492    
  0.14329134119469503    0.14804721770399207    0.1574778323413387    0.17141391622653931    0.18958387727415596    
  0.21157470048702953    0.23674708267879518    0.2641242876045138    0.2923198420476439    0.31956261903124306    
  0.3438292081061345    0.3630615797770057    0.3754474543455162    0.37972718565748204    0.31034150344431277    
  0.3074560782837207    0.2990881580385327    0.28604016465736876    0.2694676948102522    0.25068456129765276    
  0.23099440888138234    0.21157470048702964    0.1934111164677919    0.1772776303742678    0.16375592610722783    
  0.15327259248000336    0.1461279873164281    0.14251106024058452    0.1425110602405846    0.14612798731642818    
  0.1532725924800035    0.16375592610722786    0.1772776303742678    0.193411116467792    0.2115747004870296    
  0.23099440888138242    0.2506845612976527    0.26946769481025223    0.28604016465736876    0.29908815803853267    
  0.3074560782837207    0.31034150344431277    0.2528989548927378    0.2511161388856959    0.24592614186978964    
  0.23777468446422556    0.22731321750977018    0.2152930013853471    0.2024758022117202    0.18958387727415596    
  0.17727763037426778    0.16613946387952006    0.15665858615181064    0.14922209619631535    0.14411330489322552    
  0.14151478382885574    0.1415147838288558    0.14411330489322557    0.14922209619631535    0.15665858615181064    
  0.16613946387952006    0.1772776303742678    0.1895838772741559    0.2024758022117202    0.2152930013853471    
  0.22731321750977018    0.23777468446422556    0.24592614186978964    0.2511161388856959    0.2528989548927378    
  0.20791692562654748    0.20694925753018922    0.20411223895382402    0.1995984666656472    0.19370401926042563    
  0.18678624812995873    0.17922569032301172    0.17141391622653943    0.16375592610722786    0.15665858615181055    
  0.15049911452022693    0.14559419921421862    0.14218595522077093    0.14043940623590304    0.14043940623590312    
  0.14218595522077096    0.14559419921421865    0.15049911452022693    0.15665858615181064    0.16375592610722786    
  0.17141391622653937    0.17922569032301178    0.18678624812995873    0.19370401926042569    0.1995984666656472    
  0.20411223895382402    0.20694925753018922    0.20791692562654748    0.17505961848277013    0.17464766184665945    
  0.1734203145613934    0.1714120246425265    0.1686949462741412    0.16537491310420657    0.16158202466195495    
  0.15747783234133875    0.1532725924800034    0.14922209619631527    0.1455941992142188    0.14263087844105657    
  0.14052998049410328    0.13943853117054847    0.13943853117054852    0.14052998049410337    0.1426308784410567    
  0.14559419921421876    0.14922209619631527    0.1532725924800034    0.1574778323413387    0.1615820246619549    
  0.16537491310420657    0.1686949462741412    0.17141202464252647    0.1734203145613934    0.17464766184665942    
  0.17505961848277013    0.15366335206422457    0.15358856276203947    0.15334272163708523    0.15287646533202826    
  0.15214007040248836    0.15109719373259708    0.14972837525365804    0.14804721770399212    0.1461279873164281    
  0.14411330489322546    0.14218595522077107    0.14052998049410328    0.1393098850693466    0.13865972289125114    
  0.1386597228912512    0.13930988506934663    0.14052998049410328    0.14218595522077096    0.14411330489322546    
  0.14612798731642818    0.14804721770399207    0.14972837525365804    0.15109719373259708    0.15214007040248836    
  0.1528764653320282    0.1533427216370853    0.15358856276203944    0.15366335206422457    0.14312952018023872    
  0.1432119357728792    0.14342585500339278    0.1436880817485758    0.14389784247653986    0.14395626588161914    
  0.1437740820482713    0.1432913411946949    0.14251106024058446    0.14151478382885574    0.14043940623590312    
  0.13943853117054844    0.13865972289125114    0.13823062285075563    0.1382306228507557    0.1386597228912512    
  0.13943853117054852    0.1404394062359031    0.14151478382885574    0.14251106024058446    0.1432913411946949    
  0.14377408204827125    0.14395626588161917    0.14389784247653986    0.14368808174857578    0.14342585500339275    
  0.1432119357728792    0.14312952018023872    0.14312952018023875    0.14321193577287925    0.1434258550033928    
  0.1436880817485758    0.14389784247653986    0.14395626588161917    0.14377408204827136    0.14329134119469492    
  0.14251106024058446    0.14151478382885574    0.14043940623590312    0.13943853117054844    0.13865972289125114    
  0.13823062285075566    0.13823062285075569    0.1386597228912512    0.13943853117054847    0.14043940623590304    
  0.14151478382885574    0.14251106024058446    0.14329134119469492    0.1437740820482713    0.14395626588161917    
  0.14389784247653986    0.14368808174857578    0.1434258550033928    0.14321193577287922    0.14312952018023875    
  0.1536633520642246    0.15358856276203944    0.15334272163708518    0.15287646533202826    0.15214007040248836    
  0.15109719373259708    0.14972837525365806    0.14804721770399212    0.14612798731642815    0.14411330489322552    
  0.14218595522077107    0.14052998049410328    0.13930988506934674    0.13865972289125114    0.13865972289125117    
  0.13930988506934674    0.14052998049410337    0.14218595522077102    0.14411330489322552    0.14612798731642815    
  0.14804721770399207    0.14972837525365806    0.15109719373259708    0.15214007040248836    0.1528764653320282    
  0.1533427216370852    0.15358856276203944    0.1536633520642246    0.17505961848277013    0.17464766184665947    
  0.17342031456139342    0.1714120246425265    0.16869494627414122    0.16537491310420663    0.1615820246619549    
  0.1574778323413387    0.1532725924800034    0.14922209619631527    0.1455941992142188    0.1426308784410566    
  0.14052998049410337    0.13943853117054847    0.13943853117054858    0.14052998049410342    0.1426308784410567    
  0.14559419921421876    0.14922209619631527    0.1532725924800034    0.1574778323413387    0.16158202466195487    
  0.16537491310420657    0.16869494627414122    0.17141202464252644    0.1734203145613934    0.17464766184665942    
  0.17505961848277013    0.20791692562654757    0.20694925753018933    0.20411223895382408    0.1995984666656472    
  0.19370401926042569    0.18678624812995873    0.17922569032301167    0.17141391622653931    0.16375592610722786    
  0.15665858615181058    0.15049911452022693    0.14559419921421862    0.14218595522077096    0.14043940623590304    
  0.14043940623590312    0.14218595522077102    0.1455941992142187    0.15049911452022696    0.15665858615181058    
  0.16375592610722786    0.17141391622653943    0.1792256903230118    0.18678624812995875    0.19370401926042569    
  0.1995984666656472    0.20411223895382402    0.2069492575301893    0.20791692562654757    0.2528989548927378    
  0.2511161388856959    0.24592614186978964    0.23777468446422556    0.22731321750977018    0.2152930013853471    
  0.2024758022117202    0.18958387727415596    0.17727763037426778    0.16613946387952006    0.15665858615181064    
  0.14922209619631535    0.14411330489322552    0.14151478382885574    0.1415147838288558    0.14411330489322557    
  0.14922209619631535    0.15665858615181064    0.16613946387952006    0.1772776303742678    0.1895838772741559    
  0.2024758022117202    0.2152930013853471    0.22731321750977018    0.23777468446422556    0.24592614186978964    
  0.2511161388856959    0.2528989548927378    0.3103415034443127    0.3074560782837207    0.29908815803853267    
  0.28604016465736876    0.2694676948102522    0.2506845612976528    0.23099440888138234    0.21157470048702964    
  0.193411116467792    0.1772776303742678    0.16375592610722786    0.1532725924800034    0.1461279873164281    
  0.14251106024058452    0.14251106024058452    0.14612798731642823    0.1532725924800035    0.16375592610722786    
  0.1772776303742679    0.193411116467792    0.21157470048702964    0.2309944088813825    0.25068456129765276    
  0.26946769481025223    0.28604016465736876    0.2990881580385326    0.3074560782837207    0.3103415034443127    
  0.37972718565748204    0.3754474543455162    0.3630615797770057    0.34382920810613443    0.3195626190312431    
  0.2923198420476439    0.2641242876045138    0.23674708267879518    0.21157470048702953    0.18958387727415596    
  0.17141391622653931    0.15747783234133866    0.14804721770399207    0.1432913411946949    0.1432913411946949    
  0.14804721770399212    0.1574778323413387    0.17141391622653931    0.1895838772741559    0.2115747004870295    
  0.23674708267879518    0.2641242876045138    0.2923198420476439    0.31956261903124306    0.34382920810613443    
  0.3630615797770057    0.37544745434551624    0.37972718565748204    0.4591105215795137    0.4531731677654248    
  0.4360091700454582    0.40942512838247114    0.37603428481493256    0.33881535928027934    0.30068166193028056    
  0.2641242876045138    0.23099440888138234    0.20247580221172026    0.17922569032301167    0.16158202466195487    
  0.14972837525365806    0.14377408204827138    0.14377408204827138    0.14972837525365812    0.16158202466195495    
  0.17922569032301167    0.20247580221172026    0.23099440888138234    0.2641242876045138    0.30068166193028056    
  0.3388153592802793    0.37603428481493245    0.40942512838247114    0.43600917004545814    0.4531731677654248    
  0.4591105215795137    0.5446158940749711    0.5368322836151748    0.5143451540377275    0.47957586068589836    
  0.43605497569571444    0.3878245152477417    0.33881535928027934    0.292319842047644    0.25068456129765276    
  0.2152930013853471    0.18678624812995884    0.16537491310420666    0.15109719373259714    0.14395626588161922    
  0.14395626588161925    0.15109719373259722    0.1653749131042067    0.18678624812995875    0.2152930013853471    
  0.25068456129765276    0.292319842047644    0.33881535928027934    0.3878245152477416    0.43605497569571444    
  0.47957586068589836    0.5143451540377275    0.5368322836151748    0.5446158940749711    0.6302786646765807    
  0.6205946092503736    0.5926266926817999    0.5494350242624774    0.4955204780922556    0.43605497569571444    
  0.37603428481493256    0.31956261903124306    0.26946769481025223    0.22731321750977018    0.19370401926042577    
  0.16869494627414125    0.15214007040248834    0.14389784247653994    0.14389784247653997    0.15214007040248842    
  0.16869494627414128    0.19370401926042574    0.22731321750977018    0.2694676948102522    0.31956261903124306    
  0.37603428481493256    0.43605497569571444    0.4955204780922556    0.5494350242624773    0.5926266926817998    
  0.6205946092503736    0.6302786646765807    0.7085526370163117    0.6971013264411521    0.6640335673846581    
  0.6130042823309211    0.5494350242624774    0.47957586068589836    0.40942512838247114    0.3438292081061345    
  0.28604016465736865    0.2377746844642256    0.19959846666564715    0.17141202464252636    0.15287646533202826    
  0.14368808174857572    0.14368808174857575    0.1528764653320282    0.17141202464252647    0.19959846666564712    
  0.2377746844642256    0.28604016465736865    0.34382920810613454    0.4094251283824712    0.47957586068589825    
  0.5494350242624774    0.613004282330921    0.6640335673846581    0.6971013264411521    0.7085526370163117    
  0.771511947711797    0.7586291718138358    0.7214258869360639    0.6640335673846581    0.5926266926817999    
  0.5143451540377275    0.43600917004545814    0.3630615797770057    0.2990881580385327    0.24592614186978953    
  0.20411223895382408    0.1734203145613933    0.15334272163708523    0.1434258550033929    0.14342585500339294    
  0.15334272163708526    0.17342031456139342    0.20411223895382402    0.24592614186978953    0.29908815803853267    
  0.3630615797770057    0.43600917004545814    0.5143451540377275    0.5926266926817999    0.6640335673846581    
  0.7214258869360639    0.7586291718138358    0.771511947711797    0.8123256488182373    0.7985154416856874    
  0.7586291718138359    0.6971013264411521    0.6205946092503737    0.5368322836151748    0.4531731677654247    
  0.37544745434551624    0.3074560782837206    0.25111613888569584    0.20694925753018928    0.17464766184665936    
  0.15358856276203944    0.14321193577287925    0.14321193577287927    0.15358856276203947    0.1746476618466594    
  0.20694925753018928    0.25111613888569584    0.3074560782837206    0.3754474543455162    0.4531731677654247    
  0.5368322836151748    0.6205946092503737    0.6971013264411521    0.7586291718138359    0.7985154416856872    
  0.8123256488182373    0.8264561414633385    0.8123256488182372    0.7715119477117969    0.7085526370163117    
  0.6302786646765807    0.5446158940749711    0.4591105215795137    0.379727185657482    0.3103415034443127    
  0.2528989548927378    0.20791692562654748    0.17505961848277005    0.1536633520642247    0.14312952018023883    
  0.14312952018023886    0.15366335206422474    0.17505961848277019    0.20791692562654746    0.2528989548927378    
  0.3103415034443127    0.379727185657482    0.4591105215795138    0.5446158940749711    0.6302786646765807    
  0.7085526370163117    0.7715119477117969    0.8123256488182372    0.8264561414633385    0.8108653398212455    
  0.7977903867666862    0.7597813823674335    0.7004924578598563    0.6258073398404672    0.5430331945249459    
  0.4595302435525378    0.3813654073400626    0.31261395180803353    0.25542011598207104    0.21047823339919078    
  0.17759196545582123    0.15617351609214616    0.14563587181505327    0.1456358718150533    0.15617351609214616    
  0.17759196545582134    0.21047823339919072    0.25542011598207104    0.31261395180803353    0.3813654073400626    
  0.4595302435525379    0.5430331945249459    0.6258073398404673    0.7004924578598563    0.7597813823674334    
  0.7977903867666862    0.8108653398212455    0.7977903867666862    0.784970263473129    0.7477167548764149    
  0.6896406776228962    0.6165208737089095    0.5354996185290986    0.4537534869221234    0.37719799910290147    
  0.30981517768493233    0.25371020646729536    0.2095771319859796    0.17724467111595615    0.15616320261119393    
  0.1457827968843911    0.14578279688439114    0.15616320261119393    0.1772446711159562    0.20957713198597955    
  0.25371020646729536    0.30981517768493233    0.3771979991029015    0.45375348692212353    0.5354996185290983    
  0.6165208737089095    0.6896406776228963    0.7477167548764149    0.784970263473129    0.7977903867666862    
  0.7597813823674335    0.7477167548764149    0.71269467027098    0.6581797963905073    0.5896282917361297    
  0.5136972100710117    0.43703457045358424    0.3651255736674112    0.3016900899805113    0.24872605211881865    
  0.20692999368757845    0.17620322345595926    0.15610335445981716    0.14618294341106278    0.14618294341106278    
  0.15610335445981718    0.17620322345595935    0.2069299936875784    0.24872605211881865    0.3016900899805113    
  0.3651255736674112    0.43703457045358424    0.5136972100710117    0.5896282917361297    0.6581797963905073    
  0.7126946702709799    0.7477167548764149    0.7597813823674335    0.7004924578598561    0.6896406776228963    
  0.6581797963905073    0.609296154871959    0.5479007950898007    0.47988381278325176    0.41108577174548233    
  0.34634585599393314    0.28899542509644266    0.2408783765718217    0.20270167505292305    0.1744780384872179    
  0.1559216835635077    0.1467302581979211    0.14673025819792107    0.15592168356350772    0.17447803848721796    
  0.202701675052923    0.2408783765718217    0.28899542509644266    0.34634585599393314    0.4110857717454824    
  0.47988381278325165    0.5479007950898007    0.609296154871959    0.6581797963905072    0.6896406776228962    
  0.7004924578598561    0.6258073398404672    0.6165208737089096    0.5896282917361296    0.5479007950898007    
  0.49551599035542104    0.43739762591943615    0.378402054699921    0.32259031407547273    0.27282665106077036    
  0.2307717722666385    0.19714904474938283    0.17210481956179807    0.15553200494756356    0.14728695051955207    
  0.14728695051955215    0.1555320049475636    0.17210481956179813    0.19714904474938283    0.2307717722666385    
  0.2728266510607703    0.3225903140754727    0.37840205469992105    0.43739762591943615    0.49551599035542104    
  0.5479007950898007    0.5896282917361296    0.6165208737089095    0.6258073398404672    0.5430331945249459    
  0.5354996185290984    0.5136972100710118    0.4798838127832518    0.43739762591943615    0.3901144077440851    
  0.34184849688237673    0.29583651715702286    0.2544388671954328    0.21911192951774455    0.19058945099211863    
  0.16914981943622678    0.15485700362513327    0.14771216339234175    0.14771216339234178    0.15485700362513333    
  0.16914981943622687    0.19058945099211852    0.2191119295177445    0.2544388671954328    0.29583651715702286    
  0.3418484968823768    0.3901144077440851    0.43739762591943615    0.47988381278325176    0.5136972100710118    
  0.5354996185290984    0.5430331945249459    0.4595302435525379    0.4537534869221234    0.43703457045358424    
  0.41108577174548244    0.378402054699921    0.34184849688237673    0.30424816013634454    0.26804314908690013    
  0.2350904105546047    0.20662575315369233    0.18337142414817179    0.16571041396353037    0.15384356445592554    
  0.14788274184069888    0.14788274184069894    0.1538435644559256    0.1657104139635305    0.18337142414817179    
  0.20662575315369233    0.2350904105546047    0.26804314908690013    0.30424816013634454    0.34184849688237656    
  0.378402054699921    0.41108577174548244    0.43703457045358424    0.4537534869221236    0.4595302435525379    
  0.38136540734006263    0.37719799910290147    0.3651255736674112    0.3463458559939332    0.3225903140754727    
  0.2958365171570228    0.2680431490869001    0.24094600682265568    0.21593345068784522    0.19401351270650805    
  0.1758641219535613    0.161925647823218    0.15248435354779497    0.14771952216085626    0.14771952216085632    
  0.152484353547795    0.16192564782321806    0.17586412195356135    0.19401351270650805    0.21593345068784517    
  0.24094600682265568    0.26804314908690013    0.29583651715702275    0.3225903140754727    0.3463458559939332    
  0.36512557366741116    0.3771979991029015    0.38136540734006263    0.31261395180803364    0.30981517768493233    
  0.3016900899805114    0.28899542509644266    0.27282665106077036    0.2544388671954328    0.23509041055460472    
  0.21593345068784525    0.19794952918500036    0.18192424670143476    0.16845686406815508    0.1579906769697584    
  0.15084219584922223    0.14721720651449324    0.14721720651449327    0.15084219584922226    0.1579906769697586    
  0.16845686406815513    0.18192424670143476    0.19794952918500047    0.21593345068784525    0.23509041055460483    
  0.2544388671954328    0.27282665106077036    0.28899542509644266    0.30169008998051133    0.30981517768493233    
  0.31261395180803364    0.25542011598207104    0.2537102064672954    0.2487260521188188    0.24087837657182176    
  0.2307717722666385    0.21911192951774458    0.20662575315369233    0.19401351270650805    0.18192424670143467    
  0.17093741604188573    0.16154688252168256    0.15415167019206458    0.14905300139039804    0.14645294531104805    
  0.14645294531104808    0.1490530013903981    0.15415167019206463    0.1615468825216825    0.17093741604188573    
  0.18192424670143476    0.19401351270650793    0.2066257531536924    0.21911192951774458    0.23077177226663848    
  0.24087837657182176    0.24872605211881868    0.25371020646729536    0.25542011598207104    0.21047823339919078    
  0.20957713198597955    0.2069299936875784    0.20270167505292308    0.1971490447493827    0.1905894509921185    
  0.18337142414817184    0.1758641219535613    0.16845686406815508    0.1615468825216825    0.15551060714771203    
  0.15067437426817312    0.14729708915121015    0.1455607907848559    0.145560790784856    0.14729708915121018    
  0.15067437426817318    0.1555106071477119    0.16154688252168262    0.16845686406815508    0.1758641219535613    
  0.18337142414817184    0.19058945099211852    0.1971490447493827    0.20270167505292308    0.20692999368757836    
  0.20957713198597952    0.21047823339919078    0.17759196545582132    0.17724467111595626    0.17620322345595935    
  0.174478038487218    0.17210481956179804    0.16914981943622673    0.16571041396353045    0.16192564782321808    
  0.1579906769697584    0.15415167019206463    0.15067437426817334    0.14780761045674973    0.14576147984731458    
  0.14469432685487624    0.1446943268548763    0.14576147984731463    0.1478076104567498    0.15067437426817326    
  0.15415167019206463    0.15799067696975846    0.16192564782321808    0.16571041396353037    0.16914981943622673    
  0.17210481956179804    0.174478038487218    0.17620322345595935    0.17724467111595626    0.17759196545582132    
  0.156173516092146    0.15616320261119396    0.15610335445981713    0.1559216835635077    0.15553200494756358    
  0.15485700362513322    0.15384356445592548    0.152484353547795    0.15084219584922223    0.149053001390398    
  0.1472970891512103    0.14576147984731458    0.144617077926799    0.1440034837227    0.14400348372270003    
  0.14461707792679904    0.14576147984731458    0.14729708915121023    0.149053001390398    0.15084219584922226    
  0.152484353547795    0.15384356445592548    0.15485700362513322    0.15553200494756356    0.1559216835635077    
  0.15610335445981718    0.15616320261119396    0.156173516092146    0.14563587181505316    0.1457827968843911    
  0.14618294341106264    0.14673025819792115    0.14728695051955207    0.14771216339234167    0.14788274184069888    
  0.14771952216085618    0.14721720651449313    0.14645294531104794    0.145560790784856    0.14469432685487624    
  0.14400348372269992    0.1436180257336627    0.14361802573366278    0.14400348372269997    0.1446943268548763    
  0.14556079078485595    0.146452945311048    0.1472172065144932    0.14771952216085624    0.14788274184069883    
  0.14771216339234175    0.14728695051955207    0.14673025819792115    0.14618294341106264    0.14578279688439105    
  0.14563587181505316    0.14563587181505322    0.1457827968843911    0.14618294341106264    0.14673025819792118    
  0.1472869505195521    0.1477121633923417    0.14788274184069894    0.14771952216085626    0.1472172065144932    
  0.146452945311048    0.1455607907848559    0.14469432685487618    0.1440034837227    0.1436180257336627    
  0.14361802573366275    0.14400348372270003    0.14469432685487627    0.14556079078485587    0.14645294531104794    
  0.14721720651449313    0.14771952216085626    0.14788274184069894    0.14771216339234175    0.1472869505195521    
  0.14673025819792115    0.14618294341106264    0.14578279688439114    0.14563587181505322    0.15617351609214603    
  0.15616320261119396    0.1561033544598171    0.1559216835635077    0.15553200494756358    0.15485700362513322    
  0.15384356445592554    0.152484353547795    0.15084219584922232    0.149053001390398    0.1472970891512103    
  0.14576147984731458    0.14461707792679912    0.14400348372270003    0.14400348372270003    0.14461707792679915    
  0.1457614798473147    0.14729708915121023    0.149053001390398    0.15084219584922232    0.152484353547795    
  0.15384356445592554    0.15485700362513322    0.1555320049475636    0.1559216835635077    0.1561033544598171    
  0.15616320261119396    0.15617351609214603    0.17759196545582132    0.17724467111595626    0.17620322345595937    
  0.17447803848721805    0.1721048195617981    0.16914981943622678    0.16571041396353037    0.16192564782321806    
  0.15799067696975846    0.15415167019206458    0.15067437426817332    0.14780761045674973    0.14576147984731463    
  0.1446943268548763    0.1446943268548764    0.1457614798473147    0.14780761045674976    0.15067437426817326    