#     DFTpy    
  CRYSTAL 
    
  PRIMVEC    
  2.8015037745612306    -1.5392000000000002e-10    2.9174000000000007e-10    
  -1.5392000000000002e-10    2.8015037743984506    1.4058000000000002e-10    
  5.331300000000001e-10    2.5693000000000006e-10    5.132409209908991    
  PRIMCOORD    
  4    1    
  Si    1.4007518872272402    1.4007518879701002    1.5771598364467703    
  Si    5.194300000000001e-10    -4.807300000000001e-10    0.9890447667824502    
  Si    7.967000000000002e-11    3.630700000000001e-10    4.143364440215391    
  Si    1.4007518876472207    1.4007518869059503    3.5552493768056808    
  BEGIN_BLOCK_DATAGRID_3D    
  3d_datagrid_density    
  BEGIN_DATAGRID_3D#0    
  28    28    49    
  0.0    0.0    0.0    
  2.801503785010893    -1.5392000057412455e-10    2.917400010881958e-10    
  -1.5392000057412455e-10    2.801503784848113    1.405800005243661e-10    
  5.331300019885851e-10    2.569300009583539e-10    5.132409229052975    
  0.8678836160557644    0.8544447273617095    0.8151008347192863    0.7531377572452158    0.6745385504124044    
  0.5872288332978731    0.4992097585928592    0.4168201702847954    0.3441211578340738    0.2832541656199896    
  0.23505674711264052    0.19954497829381246    0.17630122852281527    0.16483234644026568    0.16483234644026576    
  0.17630122852281513    0.1995449782938124    0.23505674711264057    0.2832541656199896    0.34412115783407377    
  0.41682017028479545    0.49920975859285927    0.5872288332978733    0.6745385504124044    0.7531377572452157    
  0.8151008347192863    0.8544447273617095    0.8678836160557644    0.8544447273617095    0.8412206097371733    
  0.8025497796394293    0.7417523086408803    0.6647541406283846    0.5792996294347337    0.49315137641882606    
  0.4124521170971312    0.34116080765945705    0.28139824700122623    0.2340237516160081    0.1990875156583054    
  0.17620494290969266    0.16490919075626156    0.16490919075626162    0.17620494290969252    0.19908751565830535    
  0.23402375161600816    0.2813982470012262    0.341160807659457    0.4124521170971312    0.49315137641882606    
  0.5792996294347339    0.6647541406283846    0.7417523086408802    0.8025497796394293    0.8412206097371733    
  0.8544447273617095    0.8151008347192864    0.8025497796394294    0.7659512180230316    0.708657147579679    
  0.6363729379988032    0.5563075194921043    0.4755596995323779    0.3997378820741695    0.3325221245623939    
  0.275971842090185    0.2310002187229723    0.19774886725182542    0.1759254183535987    0.16513791855421034    
  0.16513791855421045    0.17592541835359865    0.1977488672518254    0.23100021872297236    0.275971842090185    
  0.3325221245623939    0.3997378820741695    0.4755596995323779    0.5563075194921044    0.6363729379988031    
  0.7086571475796789    0.7659512180230317    0.8025497796394295    0.8151008347192864    0.7531377572452158    
  0.7417523086408802    0.7086571475796788    0.6570867995611446    0.5922720158403273    0.5205734158667416    
  0.4481346219918115    0.3798212896175418    0.31892079780079297    0.2673894767047969    0.22619811101294213    
  0.195609987514602    0.1754661535836777    0.1654865295688258    0.16548652956882592    0.17546615358367756    
  0.19560998751460196    0.22619811101294213    0.2673894767047969    0.3189207978007929    0.3798212896175418    
  0.4481346219918115    0.5205734158667416    0.5922720158403272    0.6570867995611446    0.7086571475796788    
  0.7417523086408803    0.7531377572452158    0.6745385504124044    0.6647541406283843    0.636372937998803    
  0.5922720158403272    0.5369317468889574    0.47564812266454476    0.41348036612831074    0.35447857930214094    
  0.3014827579935895    0.2562992607098615    0.21992936724073342    0.1927584820890444    0.17477973987101814    
  0.16584509817132018    0.1658450981713202    0.17477973987101805    0.1927584820890444    0.21992936724073342    
  0.2562992607098615    0.3014827579935895    0.35447857930214094    0.41348036612831074    0.4756481226645449    
  0.5369317468889573    0.5922720158403272    0.636372937998803    0.6647541406283844    0.6745385504124044    
  0.5872288332978732    0.5792996294347337    0.5563075194921043    0.5205734158667416    0.47564812266454487    
  0.42568613034446984    0.374668309460241    0.32584467236958703    0.2815854166364529    0.24349534177410215    
  0.21256023164646892    0.1892668294789939    0.17375842459182694    0.16602123110432807    0.16602123110432818    
  0.17375842459182692    0.18926682947899387    0.21256023164646898    0.24349534177410215    0.2815854166364529    
  0.32584467236958703    0.374668309460241    0.42568613034446995    0.47564812266454487    0.5205734158667416    
  0.5563075194921043    0.5792996294347337    0.5872288332978732    0.49920975859285927    0.49315137641882595    
  0.4755596995323778    0.4481346219918115    0.4134803661283108    0.3746683094602411    0.3346889615034803    
  0.29604457105494747    0.2606274149014504    0.22979503009361832    0.20447022378940896    0.18520939618664287    
  0.1722869812367795    0.16580955748663098    0.16580955748663107    0.17228698123677944    0.18520939618664278    
  0.20447022378940902    0.22979503009361832    0.2606274149014504    0.29604457105494747    0.33468896150348026    
  0.3746683094602412    0.41348036612831074    0.44813462199181137    0.4755596995323778    0.49315137641882595    
  0.49920975859285927    0.4168201702847955    0.4124521170971312    0.39973788207416944    0.37982128961754197    
  0.35447857930214105    0.32584467236958703    0.29604457105494747    0.266900287198148    0.23983661548270788    
  0.21593995166404084    0.19603366511373807    0.1807058440741107    0.17032707016059676    0.16509623435511742    
  0.16509623435511744    0.17032707016059676    0.1807058440741106    0.19603366511373807    0.21593995166404084    
  0.23983661548270785    0.266900287198148    0.29604457105494747    0.32584467236958714    0.35447857930214094    
  0.3798212896175419    0.39973788207416944    0.4124521170971312    0.4168201702847955    0.3441211578340739    
  0.3411608076594571    0.3325221245623939    0.31892079780079297    0.30148275799358965    0.28158541663645303    
  0.2606274149014504    0.23983661548270788    0.22021211689582296    0.20257710746035337    0.18763427984102912    
  0.17596037587129007    0.16797261020898055    0.16392249030723569    0.16392249030723574    0.1679726102089805    
  0.17596037587129007    0.18763427984102915    0.20257710746035337    0.220212116895823    0.23983661548270788    
  0.2606274149014505    0.28158541663645315    0.30148275799358965    0.3189207978007929    0.33252212456239405    
  0.3411608076594571    0.3441211578340739    0.28325416561998973    0.2813982470012262    0.2759718420901849    
  0.2673894767047969    0.2562992607098616    0.2434953417741022    0.22979503009361826    0.21593995166404065    
  0.20257710746035335    0.19030282717664151    0.17969243379583277    0.1712686515388704    0.16543981756239692    
  0.16246561873422152    0.16246561873422152    0.16543981756239692    0.1712686515388704    0.17969243379583275    
  0.19030282717664151    0.20257710746035335    0.21593995166404065    0.2297950300936182    0.2434953417741023    
  0.2562992607098616    0.26738947670479674    0.27597184209018494    0.2813982470012262    0.28325416561998973    
  0.23505674711264057    0.23402375161600816    0.2310002187229723    0.22619811101294213    0.21992936724073356    
  0.21256023164646898    0.20447022378940907    0.19603366511373815    0.18763427984102915    0.17969243379583277    
  0.17266247037709362    0.16698225702086922    0.1630057243351668    0.1609634943128264    0.16096349431282644    
  0.16300572433516677    0.16698225702086927    0.17266247037709362    0.17969243379583277    0.18763427984102904    
  0.19603366511373815    0.20447022378940907    0.21256023164646906    0.21992936724073356    0.2261981110129421    
  0.23100021872297244    0.23402375161600822    0.23505674711264057    0.19954497829381246    0.1990875156583055    
  0.1977488672518254    0.195609987514602    0.1927584820890445    0.18926682947899398    0.18520939618664276    
  0.1807058440741107    0.17596037587128993    0.17126865153887041    0.16698225702086927    0.16344572010098238    
  0.16093752258937874    0.15964019931346388    0.15964019931346396    0.16093752258937863    0.1634457201009825    
  0.16698225702086927    0.17126865153887041    0.17596037587128996    0.1807058440741107    0.1852093961866428    
  0.1892668294789941    0.19275848208904448    0.19560998751460193    0.1977488672518255    0.1990875156583055    
  0.19954497829381246    0.17630122852281527    0.17620494290969255    0.17592541835359854    0.17546615358367768    
  0.17477973987101814    0.17375842459182692    0.1722869812367794    0.17032707016059664    0.16797261020898047    
  0.16543981756239687    0.16300572433516672    0.1609375225893786    0.15944559390907262    0.1586668474871001    
  0.15866684748710022    0.15944559390907267    0.16093752258937874    0.16300572433516672    0.16543981756239692    
  0.16797261020898047    0.17032707016059664    0.17228698123677946    0.17375842459182703    0.1747797398710182    
  0.17546615358367754    0.17592541835359862    0.17620494290969257    0.17630122852281527    0.16483234644026573    
  0.16490919075626154    0.1651379185542103    0.1654865295688259    0.16584509817132015    0.1660212311043281    
  0.1658095574866309    0.1650962343551173    0.1639224903072357    0.16246561873422147    0.16096349431282628    
  0.15964019931346377    0.15866684748710008    0.15815356672765496    0.15815356672765485    0.1586668474871001    
  0.15964019931346377    0.16096349431282628    0.16246561873422144    0.16392249030723574    0.16509623435511725    
  0.16580955748663087    0.16602123110432818    0.1658450981713201    0.16548652956882576    0.16513791855421042    
  0.16490919075626154    0.16483234644026573    0.1648323464402657    0.16490919075626162    0.1651379185542103    
  0.1654865295688259    0.16584509817132015    0.1660212311043281    0.16580955748663082    0.1650962343551174    
  0.16392249030723557    0.16246561873422144    0.16096349431282628    0.15964019931346377    0.1586668474871001    
  0.15815356672765504    0.15815356672765496    0.1586668474871001    0.15964019931346377    0.16096349431282633    
  0.16246561873422144    0.1639224903072356    0.1650962343551174    0.16580955748663087    0.1660212311043282    
  0.1658450981713202    0.16548652956882584    0.16513791855421037    0.1649091907562616    0.1648323464402657    
  0.17630122852281524    0.1762049429096926    0.17592541835359854    0.17546615358367762    0.1747797398710181    
  0.17375842459182692    0.17228698123677944    0.17032707016059667    0.16797261020898044    0.16543981756239692    
  0.1630057243351668    0.1609375225893786    0.15944559390907267    0.1586668474871001    0.1586668474871001    
  0.15944559390907267    0.16093752258937863    0.1630057243351668    0.16543981756239692    0.16797261020898047    
  0.1703270701605967    0.17228698123677946    0.173758424591827    0.1747797398710181    0.17546615358367762    
  0.17592541835359862    0.17620494290969263    0.17630122852281524    0.19954497829381249    0.19908751565830543    
  0.19774886725182536    0.19560998751460204    0.19275848208904445    0.18926682947899398    0.18520939618664278    
  0.18070584407411072    0.17596037587128993    0.17126865153887041    0.16698225702086927    0.16344572010098238    
  0.16093752258937863    0.15964019931346404    0.15964019931346404    0.16093752258937863    0.1634457201009825    
  0.16698225702086927    0.17126865153887041    0.17596037587128993    0.1807058440741107    0.18520939618664276    
  0.1892668294789941    0.1927584820890445    0.19560998751460193    0.19774886725182544    0.19908751565830546    
  0.19954497829381249    0.2350567471126406    0.23402375161600825    0.23100021872297236    0.22619811101294218    
  0.2199293672407335    0.21256023164646898    0.20447022378940907    0.19603366511373807    0.18763427984102904    
  0.17969243379583283    0.17266247037709362    0.16698225702086922    0.16300572433516672    0.1609634943128264    
  0.1609634943128264    0.16300572433516672    0.16698225702086927    0.17266247037709362    0.17969243379583283    
  0.18763427984102904    0.19603366511373807    0.2044702237894091    0.21256023164646912    0.21992936724073356    
  0.22619811101294204    0.23100021872297244    0.2340237516160083    0.2350567471126406    0.28325416561998973    
  0.2813982470012262    0.2759718420901849    0.2673894767047969    0.2562992607098616    0.2434953417741022    
  0.22979503009361826    0.21593995166404065    0.20257710746035335    0.19030282717664151    0.17969243379583277    
  0.1712686515388704    0.16543981756239692    0.16246561873422152    0.16246561873422152    0.16543981756239692    
  0.1712686515388704    0.17969243379583275    0.19030282717664151    0.20257710746035335    0.21593995166404065    
  0.2297950300936182    0.2434953417741023    0.2562992607098616    0.26738947670479674    0.27597184209018494    
  0.2813982470012262    0.28325416561998973    0.3441211578340739    0.34116080765945717    0.3325221245623939    
  0.31892079780079297    0.30148275799358965    0.2815854166364529    0.2606274149014505    0.23983661548270788    
  0.220212116895823    0.2025771074603534    0.18763427984102918    0.17596037587129007    0.16797261020898055    
  0.16392249030723569    0.16392249030723574    0.16797261020898047    0.17596037587129007    0.18763427984102915    
  0.2025771074603534    0.22021211689582293    0.23983661548270788    0.2606274149014505    0.28158541663645303    
  0.30148275799358965    0.3189207978007929    0.33252212456239405    0.3411608076594571    0.3441211578340739    
  0.4168201702847954    0.41245211709713114    0.39973788207416944    0.37982128961754197    0.35447857930214094    
  0.32584467236958703    0.29604457105494747    0.266900287198148    0.23983661548270785    0.21593995166404084    
  0.19603366511373807    0.1807058440741107    0.1703270701605968    0.16509623435511742    0.16509623435511744    
  0.17032707016059673    0.1807058440741106    0.19603366511373807    0.21593995166404084    0.23983661548270785    
  0.266900287198148    0.29604457105494747    0.3258446723695873    0.35447857930214094    0.3798212896175419    
  0.39973788207416944    0.4124521170971312    0.4168201702847954    0.4992097585928592    0.4931513764188259    
  0.47555969953237776    0.44813462199181137    0.4134803661283108    0.3746683094602411    0.33468896150348026    
  0.29604457105494747    0.26062741490145036    0.22979503009361812    0.20447022378940896    0.18520939618664284    
  0.17228698123677946    0.165809557486631    0.16580955748663104    0.17228698123677938    0.18520939618664287    
  0.20447022378940902    0.22979503009361818    0.26062741490145036    0.29604457105494747    0.33468896150348026    
  0.3746683094602412    0.41348036612831085    0.44813462199181137    0.4755596995323778    0.4931513764188259    
  0.4992097585928592    0.5872288332978732    0.5792996294347337    0.5563075194921042    0.5205734158667416    
  0.47564812266454487    0.42568613034446984    0.374668309460241    0.32584467236958703    0.28158541663645303    
  0.24349534177410215    0.21256023164646892    0.1892668294789939    0.17375842459182694    0.16602123110432807    
  0.1660212311043282    0.17375842459182692    0.1892668294789939    0.21256023164646903    0.24349534177410215    
  0.28158541663645303    0.32584467236958703    0.374668309460241    0.42568613034446995    0.47564812266454487    
  0.5205734158667416    0.5563075194921043    0.5792996294347337    0.5872288332978732    0.6745385504124044    
  0.6647541406283844    0.6363729379988029    0.5922720158403272    0.5369317468889573    0.47564812266454476    
  0.41348036612831074    0.3544785793021409    0.3014827579935894    0.2562992607098615    0.21992936724073336    
  0.19275848208904436    0.17477973987101814    0.16584509817132015    0.1658450981713202    0.17477973987101802    
  0.19275848208904436    0.21992936724073336    0.2562992607098615    0.3014827579935894    0.3544785793021409    
  0.41348036612831074    0.47564812266454487    0.5369317468889573    0.5922720158403272    0.6363729379988029    
  0.6647541406283844    0.6745385504124044    0.7531377572452158    0.7417523086408802    0.7086571475796788    
  0.6570867995611446    0.5922720158403272    0.5205734158667416    0.4481346219918115    0.3798212896175419    
  0.31892079780079297    0.26738947670479685    0.22619811101294204    0.19560998751460193    0.1754661535836777    
  0.1654865295688258    0.16548652956882592    0.17546615358367762    0.1956099875146019    0.2261981110129421    
  0.2673894767047969    0.3189207978007929    0.3798212896175419    0.4481346219918115    0.5205734158667417    
  0.5922720158403272    0.6570867995611446    0.7086571475796789    0.7417523086408803    0.7531377572452158    
  0.8151008347192863    0.8025497796394293    0.7659512180230316    0.7086571475796789    0.6363729379988031    
  0.5563075194921043    0.4755596995323779    0.39973788207416944    0.3325221245623939    0.275971842090185    
  0.2310002187229723    0.19774886725182542    0.17592541835359868    0.16513791855421037    0.16513791855421042    
  0.17592541835359854    0.1977488672518254    0.23100021872297238    0.275971842090185    0.3325221245623939    
  0.39973788207416944    0.4755596995323779    0.5563075194921044    0.6363729379988031    0.7086571475796789    
  0.7659512180230317    0.8025497796394294    0.8151008347192863    0.8544447273617095    0.8412206097371733    
  0.8025497796394293    0.7417523086408802    0.6647541406283846    0.5792996294347337    0.49315137641882606    
  0.41245211709713114    0.34116080765945694    0.2813982470012262    0.2340237516160081    0.19908751565830543    
  0.17620494290969266    0.16490919075626156    0.16490919075626165    0.17620494290969252    0.19908751565830538    
  0.23402375161600816    0.2813982470012262    0.341160807659457    0.41245211709713114    0.49315137641882606    
  0.5792996294347339    0.6647541406283846    0.7417523086408802    0.8025497796394294    0.8412206097371733    
  0.8544447273617095    0.8678836160557644    0.8544447273617095    0.8151008347192863    0.7531377572452158    
  0.6745385504124044    0.5872288332978731    0.4992097585928592    0.4168201702847954    0.3441211578340738    
  0.2832541656199896    0.23505674711264052    0.19954497829381246    0.17630122852281527    0.16483234644026568    
  0.16483234644026576    0.17630122852281513    0.1995449782938124    0.23505674711264057    0.2832541656199896    
  0.34412115783407377    0.41682017028479545    0.49920975859285927    0.5872288332978733    0.6745385504124044    
  0.7531377572452157    0.8151008347192863    0.8544447273617095    0.8678836160557644    0.8469751074282246    
  0.8347797901633314    0.7988009051323137    0.7413859318303715    0.6674116961602384    0.5839689473457708    
  0.4987180501370205    0.4180724816967278    0.3463525163121967    0.2859649889901257    0.23796000243675278    
  0.20250970613187258    0.17928893681714236    0.16783353263354672    0.1678335326335468    0.17928893681714222    
  0.20250970613187252    0.23796000243675278    0.2859649889901257    0.3463525163121967    0.4180724816967278    
  0.4987180501370205    0.5839689473457708    0.6674116961602382    0.7413859318303715    0.7988009051323137    
  0.8347797901633314    0.8469751074282246    0.8347797901633314    0.822736349144374    0.7872599123360295    
  0.7307802381239238    0.6581764341585997    0.5764038064131071    0.4929003978680947    0.41387363885707323    
  0.3435219407989977    0.2842159819358355    0.2370199724938801    0.20213710462249568    0.17927339071133652    
  0.167989475183804    0.16798947518380408    0.17927339071133638    0.20213710462249562    0.23701997249388018    
  0.2842159819358355    0.3435219407989977    0.4138736388570733    0.4929003978680947    0.5764038064131072    
  0.6581764341585996    0.7307802381239237    0.7872599123360294    0.8227363491443741    0.8347797901633314    
  0.7988009051323139    0.7872599123360294    0.7533940508004611    0.699796939175795    0.6312876509766603    
  0.5544075898528124    0.4759726803336361    0.40162906947712146    0.3352445454035404    0.27908802639422503    
  0.23425723878738983    0.20103785813403174    0.17922247158864268    0.16844245230861857    0.16844245230861865    
  0.1792224715886426    0.20103785813403174    0.23425723878738985    0.27908802639422503    0.3352445454035404    
  0.40162906947712146    0.4759726803336361    0.5544075898528126    0.6312876509766603    0.699796939175795    
  0.7533940508004611    0.7872599123360294    0.7988009051323139    0.7413859318303716    0.7307802381239237    
  0.6997969391757949    0.6510935593677415    0.5892294539320269    0.520055318271087    0.44948334147817764    
  0.3823816070940933    0.3221604768220281    0.2709354533680708    0.22983481978924653    0.19925168076341307    
  0.1791025097244053    0.16912475258910584    0.16912475258910595    0.17910250972440517    0.19925168076341307    
  0.22983481978924653    0.2709354533680708    0.32216047682202803    0.38238160709409336    0.4494833414781776    
  0.5200553182710871    0.5892294539320269    0.6510935593677415    0.6997969391757949    0.7307802381239238    
  0.7413859318303716    0.6674116961602382    0.6581764341585995    0.6312876509766602    0.5892294539320269    
  0.5360226042295175    0.47660344920873643    0.41584748115229964    0.35777607833852354    0.30529577193631297    
  0.2603269745629194    0.22400016487858931    0.19681141539035793    0.17881625089484957    0.16987831659355562    
  0.16987831659355562    0.17881625089484954    0.19681141539035793    0.22400016487858934    0.2603269745629194    
  0.30529577193631297    0.35777607833852354    0.4158474811522997    0.4766034492087366    0.5360226042295175    
  0.5892294539320269    0.6312876509766602    0.6581764341585996    0.6674116961602382    0.5839689473457708    
  0.5764038064131071    0.5544075898528124    0.520055318271087    0.4766034492087366    0.427962031091387    
  0.37796721053106264    0.3298238800896483    0.28593375395564397    0.24798335223290086    0.217060281992788    
  0.19373856962924477    0.17820880219108362    0.17046490674851947    0.17046490674851955    0.1782088021910836    
  0.19373856962924477    0.2170602819927881    0.2479833522329008    0.28593375395564397    0.3298238800896483    
  0.37796721053106264    0.4279620310913871    0.4766034492087365    0.520055318271087    0.5544075898528125    
  0.5764038064131071    0.5839689473457708    0.4987180501370205    0.4929003978680946    0.4759726803336359    
  0.4494833414781776    0.41584748115229975    0.3779672105310627    0.33872033283872827    0.3005647844986984    
  0.26541048102962717    0.23467530492183997    0.2093570620028934    0.19007379804305846    0.17713273402058127    
  0.17064755023366143    0.17064755023366154    0.17713273402058122    0.1900737980430584    0.2093570620028934    
  0.23467530492183997    0.26541048102962717    0.3005647844986984    0.33872033283872827    0.3779672105310628    
  0.4158474811522997    0.4494833414781775    0.475972680333636    0.4929003978680947    0.4987180501370205    
  0.41807248169672784    0.41387363885707323    0.4016290694771215    0.3823816070940934    0.35777607833852365    
  0.3298238800896484    0.3005647844986984    0.2717879481498983    0.24493307282058002    0.2211300845939653    
  0.2012510375024588    0.18592141982081986    0.1755335570756606    0.17029637213043133    0.17029637213043136    
  0.1755335570756606    0.1859214198208198    0.20125103750245882    0.2211300845939653    0.24493307282057997    
  0.2717879481498983    0.3005647844986984    0.32982388008964847    0.3577760783385236    0.3823816070940934    
  0.4016290694771215    0.4138736388570733    0.41807248169672784    0.3463525163121968    0.34352194079899784    
  0.3352445454035403    0.3221604768220282    0.3052957719363131    0.2859337539556442    0.26541048102962717    
  0.2449330728205799    0.2255133148115604    0.20800127615330777    0.1931246068450473    0.1814785607086587    
  0.17349603780123227    0.16944346524680104    0.16944346524680107    0.17349603780123207    0.1814785607086587    
  0.1931246068450473    0.20800127615330777    0.22551331481156045    0.2449330728205799    0.2654104810296273    
  0.28593375395564424    0.3052957719363131    0.3221604768220281    0.3352445454035404    0.3435219407989978    
  0.3463525163121968    0.2859649889901257    0.28421598193583547    0.2790880263942249    0.27093545336807073    
  0.2603269745629195    0.247983352232901    0.2346753049218399    0.22113008459396521    0.2080012761533078    
  0.19589601406136165    0.18539652224867847    0.1770324884890389    0.17122597062423495    0.16825575211268978    
  0.16825575211268984    0.1712259706242349    0.1770324884890389    0.18539652224867853    0.19589601406136165    
  0.2080012761533078    0.22113008459396521    0.2346753049218399    0.24798335223290094    0.26032697456291953    
  0.27093545336807073    0.2790880263942249    0.2842159819358354    0.2859649889901257    0.2379600024367528    
  0.23701997249388015    0.23425723878738983    0.22983481978924655    0.22400016487858945    0.21706028199278807    
  0.20935706200289347    0.2012510375024589    0.19312460684504734    0.18539652224867847    0.1785171817998263    
  0.17292603845930662    0.1689902274121802    0.16696073791036944    0.16696073791036944    0.16899022741218012    
  0.17292603845930662    0.1785171817998263    0.18539652224867847    0.19312460684504726    0.20125103750245887    
  0.20935706200289347    0.2170602819927882    0.2240001648785894    0.22983481978924653    0.2342572387873899    
  0.23701997249388024    0.2379600024367528    0.2025097061318726    0.20213710462249576    0.20103785813403174    
  0.1992516807634131    0.19681141539035804    0.19373856962924488    0.1900737980430583    0.18592141982081986    
  0.18147856070865856    0.17703248848903888    0.17292603845930668    0.16950307638970283    0.1670538786695538    
  0.1657793484719878    0.16577934847198786    0.1670538786695538    0.16950307638970283    0.17292603845930662    
  0.17703248848903888    0.18147856070865856    0.18592141982081986    0.1900737980430584    0.193738569629245    
  0.19681141539035804    0.19925168076341304    0.2010378581340318    0.20213710462249573    0.2025097061318726    
  0.17928893681714236    0.17927339071133644    0.1792224715886425    0.17910250972440525    0.1788162508948496    
  0.17820880219108365    0.17713273402058127    0.1755335570756605    0.17349603780123207    0.17122597062423478    
  0.16899022741218012    0.1670538786695538    0.16563649769287733    0.1648897258960584    0.16488972589605844    
  0.16563649769287733    0.1670538786695538    0.16899022741218012    0.1712259706242349    0.17349603780123207    
  0.1755335570756605    0.17713273402058125    0.17820880219108376    0.17881625089484962    0.17910250972440508    
  0.1792224715886426    0.17927339071133647    0.17928893681714236    0.16783353263354675    0.167989475183804    
  0.1684424523086185    0.1691247525891059    0.16987831659355557    0.17046490674851952    0.17064755023366135    
  0.1702963721304312    0.16944346524680093    0.16825575211268975    0.16696073791036925    0.16577934847198758    
  0.16488972589605835    0.16441399226710457    0.16441399226710465    0.16488972589605835    0.16577934847198758    
  0.16696073791036925    0.1682557521126897    0.16944346524680098    0.17029637213043117    0.1706475502336613    
  0.17046490674851955    0.1698783165935556    0.16912475258910578    0.1684424523086186    0.167989475183804    
  0.16783353263354675    0.16783353263354678    0.16798947518380405    0.1684424523086185    0.1691247525891059    
  0.16987831659355562    0.17046490674851955    0.1706475502336613    0.17029637213043133    0.1694434652468008    
  0.1682557521126897    0.16696073791036936    0.1657793484719876    0.1648897258960584    0.16441399226710465    
  0.16441399226710465    0.16488972589605835    0.1657793484719876    0.16696073791036936    0.1682557521126897    
  0.1694434652468009    0.1702963721304313    0.17064755023366135    0.17046490674851955    0.16987831659355565    
  0.16912475258910584    0.16844245230861857    0.16798947518380405    0.16783353263354678    0.17928893681714234    
  0.17927339071133647    0.1792224715886425    0.17910250972440525    0.17881625089484954    0.17820880219108362    
  0.17713273402058127    0.17553355707566054    0.17349603780123213    0.17122597062423495    0.16899022741218012    
  0.1670538786695538    0.16563649769287733    0.16488972589605827    0.16488972589605835    0.1656364976928774    
  0.16705387866955382    0.16899022741218012    0.1712259706242349    0.17349603780123213    0.17553355707566054    
  0.1771327340205813    0.17820880219108376    0.1788162508948496    0.17910250972440517    0.1792224715886426    
  0.1792733907113365    0.17928893681714234    0.2025097061318726    0.2021371046224957    0.20103785813403172    
  0.19925168076341312    0.19681141539035804    0.19373856962924485    0.19007379804305838    0.18592141982081992    
  0.18147856070865856    0.1770324884890389    0.17292603845930668    0.16950307638970294    0.1670538786695538    
  0.1657793484719878    0.16577934847198775    0.1670538786695538    0.16950307638970283    0.17292603845930662    
  0.17703248848903894    0.18147856070865856    0.18592141982081986    0.19007379804305835    0.193738569629245    