#     DFTpy    
  CRYSTAL 
    
  PRIMVEC    
  4.661518575704351    -2.5611000000000006e-10    4.854400000000001e-10    
  -2.5611000000000006e-10    4.6615185754334805    2.339100000000001e-10    
  8.870900000000003e-10    4.2751000000000006e-10    8.539992373864951    
  PRIMCOORD    
  4    1    
  Si    2.3307592877633607    2.3307592889994306    2.6242905475302805    
  Si    8.643100000000001e-10    -7.999000000000001e-10    1.6457056365314602    
  Si    1.3256000000000003e-10    6.041200000000001e-10    6.894286732489542    
  Si    2.3307592884621804    2.3307592872287506    5.915701831897971    
  BEGIN_BLOCK_DATAGRID_3D    
  3d_datagrid_density    
  BEGIN_DATAGRID_3D#0    
  46    46    81    
  0.0    0.0    0.0    
  4.661518593091904    -2.5611000095529523e-10    4.854400018107006e-10    
  -2.5611000095529523e-10    4.661518592821034    2.3391000087248883e-10    
  8.870900033088628e-10    4.2751000159462054e-10    8.539992405719286    
  0.14707432434642215    0.14534998624626486    0.14033104679882386    0.1324456192205063    0.12231326243003277    
  0.11065208855423685    0.09819750523236669    0.08563249706538241    0.07352792618327054    0.06230240253811422    
  0.052212967695285856    0.04337595459810076    0.03580456247647807    0.02944617694741141    0.02420855443859177    
  0.01997436547697148    0.016611306996703178    0.0139846991527681    0.011972298967672651    0.010474868800820722    
  0.009417689139889015    0.008745791981258627    0.00842038609386817    0.00842038609386817    0.008745791981258596    
  0.009417689139888977    0.01047486880082073    0.011972298967672651    0.013984699152768114    0.016611306996703202    
  0.019974365476971522    0.024208554438591743    0.02944617694741138    0.03580456247647808    0.043375954598100744    
  0.05221296769528587    0.06230240253811422    0.07352792618327056    0.08563249706538244    0.09819750523236669    
  0.11065208855423685    0.12231326243003277    0.1324456192205063    0.14033104679882383    0.1453499862462648    
  0.14707432434642215    0.14534998624626486    0.14365049606608124    0.13870352233479138    0.13093010355439683    
  0.1209397642558448    0.10943925290738808    0.09715268824438336    0.08475311118362076    0.07280380923116431    
  0.06171855652217623    0.051751882558183554    0.04301918228635649    0.03553379152393424    0.029244186731412897    
  0.024060096158709156    0.01986671584439592    0.016534312438686007    0.013930423648263265    0.011934554703490741    
  0.010448821339594743    0.00939954998458851    0.0087325338005677    0.008409458368461376    0.00840945836846135    
  0.008732533800567724    0.009399549984588501    0.010448821339594752    0.011934554703490741    0.013930423648263286    
  0.01653431243868605    0.01986671584439596    0.02406009615870912    0.02924418673141286    0.03553379152393421    
  0.04301918228635648    0.05175188255818352    0.06171855652217623    0.0728038092311643    0.08475311118362076    
  0.09715268824438335    0.10943925290738808    0.12093976425584484    0.13093010355439685    0.13870352233479136    
  0.1436504960660812    0.14534998624626486    0.14033104679882388    0.13870352233479133    0.1339650235834537    
  0.1265162114250286    0.11693768430649759    0.1059033950317311    0.09410481647103604    0.08218611569834414    
  0.07068842268735911    0.06001122598113575    0.05040161240765518    0.0419723275792235    0.034737341786917966    
  0.028648490005665852    0.02362120320663306    0.01954780121627144    0.01630578733207849    0.013769032921652187    
  0.01182212593798456    0.010371138437646647    0.009345426419382121    0.008692973224948216    0.00837685146556723    
  0.008376851465567214    0.008692973224948239    0.009345426419382078    0.010371138437646647    0.01182212593798456    
  0.013769032921652201    0.016305787332078516    0.019547801216271476    0.02362120320663303    0.028648490005665835    
  0.03473734178691799    0.041972327579223506    0.05040161240765519    0.06001122598113575    0.07068842268735909    
  0.08218611569834416    0.09410481647103601    0.10590339503173109    0.11693768430649765    0.12651621142502859    
  0.13396502358345366    0.13870352233479136    0.14033104679882388    0.13244561922050635    0.13093010355439685    
  0.12651621142502856    0.11957323685763017    0.11063720721140696    0.1003314277194768    0.08929670659396269    
  0.07813197493014093    0.06734312523923117    0.05730653175919571    0.04825722347389873    0.04030406602720951    
  0.03346273226724384    0.027690840461112008    0.022912646243827054    0.019031016123830163    0.015934175863449508    
  0.013505659514195398    0.011638051370406436    0.010243673970090676    0.009256565041647395    0.008628046613824956    
  0.008323356013025049    0.008323356013025038    0.008628046613824953    0.009256565041647404    0.010243673970090638    
  0.011638051370406431    0.01350565951419541    0.015934175863449553    0.019031016123830225    0.022912646243827033    
  0.027690840461112    0.03346273226724384    0.040304066027209484    0.04825722347389866    0.057306531759195735    
  0.0673431252392312    0.07813197493014098    0.08929670659396266    0.10033142771947677    0.11063720721140696    
  0.11957323685763017    0.12651621142502853    0.13093010355439683    0.13244561922050635    0.12231326243003277    
  0.1209397642558448    0.11693768430649759    0.11063720721140695    0.10251875066534893    0.0931422115312179    
  0.0830844115310264    0.0728862533336542    0.06300744759434142    0.05379344825831051    0.04546322562379665    
  0.038121210188898254    0.031786419488660324    0.026424620145763696    0.0219710670727311    0.01834111536290931    
  0.015435824377400454    0.013150810496515002    0.011389009224409646    0.010070791699564163    0.009136004953471758    
  0.008540043458932622    0.00825089980898129    0.008250899808981273    0.008540043458932636    0.009136004953471758    
  0.010070791699564154    0.011389009224409639    0.013150810496515024    0.015435824377400468    0.01834111536290934    
  0.02197106707273106    0.026424620145763685    0.031786419488660345    0.03812121018889825    0.04546322562379665    
  0.0537934482583105    0.06300744759434143    0.0728862533336542    0.0830844115310264    0.09314221153121788    
  0.10251875066534893    0.11063720721140699    0.11693768430649755    0.12093976425584477    0.12231326243003277    
  0.11065208855423683    0.10943925290738805    0.1059033950317311    0.1003314277194768    0.093142211531218    
  0.08482511581920012    0.07588491541165537    0.06679585580748489    0.057963304109411765    0.04969562023212207    
  0.04219267123533235    0.0355544524759975    0.02980502892328148    0.024920058012208247    0.02084675610917245    
  0.017513522068966694    0.014835210249471159    0.012721129131001738    0.011086280291689468    0.009860249308157723    
  0.008989230921950074    0.008433030385979446    0.008162841648836008    0.008162841648836025    0.00843303038597944    
  0.008989230921950045    0.00986024930815772    0.011086280291689461    0.012721129131001768    0.014835210249471176    
  0.017513522068966732    0.020846756109172433    0.024920058012208247    0.029805028923281497    0.03555445247599747    
  0.04219267123533233    0.04969562023212205    0.057963304109411765    0.0667958558074849    0.07588491541165536    
  0.08482511581920012    0.09314221153121795    0.10033142771947681    0.10590339503173116    0.1094392529073881    
  0.11065208855423683    0.09819750523236671    0.09715268824438336    0.09410481647103598    0.08929670659396266    
  0.08308441153102637    0.07588491541165536    0.06812807972404272    0.060217491534415815    0.05249968025404819    
  0.04524220867740185    0.03862401410574231    0.03274072339755635    0.02762232709194313    0.023254819928773474    
  0.019597031801425146    0.016589910292797164    0.014162261650474652    0.012237969896301944    0.010745078199053864    
  0.009622875293927458    0.008823965289744601    0.008312678938387642    0.008063816909718077    0.008063816909718045    
  0.00831267893838765    0.008823965289744598    0.009622875293927434    0.010745078199053851    0.012237969896301956    
  0.01416226165047467    0.016589910292797213    0.01959703180142512    0.023254819928773474    0.027622327091943153    
  0.03274072339755631    0.03862401410574228    0.04524220867740185    0.05249968025404819    0.06021749153441582    
  0.06812807972404272    0.07588491541165535    0.08308441153102641    0.08929670659396265    0.09410481647103598    
  0.09715268824438343    0.09819750523236671    0.08563249706538244    0.08475311118362076    0.08218611569834415    
  0.07813197493014093    0.0728862533336542    0.06679585580748483    0.06021749153441579    0.05348494030843933    
  0.04688582855484123    0.04064634929932066    0.03492392913716746    0.02980935661084654    0.025337870037888007    
  0.02150463471109817    0.018278655558601392    0.015612311281059775    0.01344795291361007    0.011724161605091902    
  0.010382164593329997    0.009370834710227679    0.008648985254918617    0.008185535709371404    0.0079592755217261    
  0.007959275521726083    0.008185535709371422    0.008648985254918588    0.009370834710227652    0.010382164593330004    
  0.011724161605091914    0.013447952913610083    0.015612311281059828    0.018278655558601375    0.021504634711098182    
  0.025337870037888007    0.029809356610846518    0.03492392913716744    0.04064634929932066    0.04688582855484123    
  0.053484940308439366    0.06021749153441575    0.06679585580748482    0.0728862533336542    0.07813197493014097    
  0.08218611569834419    0.08475311118362078    0.08563249706538244    0.07352792618327056    0.07280380923116433    
  0.07068842268735911    0.0673431252392312    0.06300744759434142    0.05796330410941175    0.05249968025404819    
  0.04688582855484125    0.041354746381622544    0.03609371738893872    0.0312390453256119    0.026875371309195113    
  0.023040924649190525    0.01973763812213338    0.016942726345853972    0.0146186626786261    0.012720460933452983    
  0.011200678692357476    0.010013035891584417    0.009115426970056111    0.008472600633368896    0.008058103428327875    
  0.007854918445764374    0.007854918445764374    0.00805810342832788    0.008472600633368872    0.009115426970056099    
  0.010013035891584405    0.011200678692357493    0.012720460933452988    0.01461866267862614    0.01694272634585396    
  0.01973763812213338    0.023040924649190535    0.0268753713091951    0.031239045325611895    0.03609371738893872    
  0.04135474638162255    0.04688582855484125    0.05249968025404817    0.05796330410941174    0.06300744759434145    
  0.06734312523923122    0.07068842268735907    0.07280380923116431    0.07352792618327056    0.062302402538114254    
  0.061718556522176275    0.06001122598113577    0.05730653175919572    0.05379344825831051    0.04969562023212206    
  0.04524220867740185    0.040646349299320685    0.036093717388938705    0.03173713903377423    0.02769268072478653    
  0.02403692537636284    0.020808047383106484    0.01801205022026029    0.01563255549766449    0.013640854105732245    
  0.012003275570863947    0.010684795100069033    0.009650237700280383    0.008865710865137362    0.00830164082855356    
  0.00793611366430561    0.007756116050854696    0.00775611605085469    0.00793611366430564    0.008301640828553543    
  0.008865710865137343    0.009650237700280383    0.010684795100069056    0.01200327557086394    0.013640854105732292    
  0.015632555497664468    0.01801205022026029    0.020808047383106498    0.02403692537636281    0.027692680724786513    
  0.03173713903377423    0.03609371738893872    0.04064634929932068    0.04524220867740185    0.04969562023212207    
  0.05379344825831051    0.05730653175919571    0.06001122598113577    0.061718556522176275    0.062302402538114254    
  0.0522129676952859    0.05175188255818353    0.05040161240765517    0.04825722347389867    0.045463225623796635    
  0.04219267123533234    0.03862401410574226    0.03492392913716743    0.031239045325611864    0.027692680724786516    
  0.024381656997160932    0.021372642454511707    0.018701052557969278    0.016374919585240472    0.014383084588408429    
  0.012704523289384618    0.011315104922977959    0.010189998438762301    0.009303301021355397    0.008628441957446173    
  0.008141285434741546    0.007824151413844786    0.007667361251797606    0.007667361251797578    0.007824151413844804    
  0.008141285434741546    0.00862844195744618    0.009303301021355377    0.010189998438762294    0.011315104922977966    
  0.012704523289384652    0.014383084588408429    0.016374919585240472    0.018701052557969305    0.02137264245451169    
  0.024381656997160914    0.027692680724786506    0.031239045325611888    0.03492392913716743    0.03862401410574225    
  0.04219267123533232    0.04546322562379667    0.04825722347389866    0.05040161240765517    0.05175188255818353    
  0.0522129676952859    0.04337595459810081    0.043019182286356476    0.04197232757922352    0.040304066027209505    
  0.038121210188898254    0.03555445247599751    0.03274072339755634    0.029809356610846535    0.026875371309195088    
  0.024036925376362834    0.021372642454511707    0.018938172921807543    0.01676459913487541    0.014860976014940594    
  0.013220758338669921    0.01182951996659194    0.01067060027119416    0.009726820641050326    0.008979583962029986    
  0.008408769134523956    0.007995418018113896    0.007725571836272775    0.007591876454047352    0.00759187645404734    
  0.007725571836272751    0.007995418018113896    0.008408769134523967    0.008979583962029986    0.009726820641050316    
  0.010670600271194142    0.011829519966591975    0.013220758338669933    0.014860976014940616    0.016764599134875414    
  0.018938172921807526    0.021372642454511696    0.024036925376362824    0.026875371309195088    0.029809356610846553    
  0.03274072339755633    0.035554452475997526    0.03812121018889827    0.040304066027209505    0.04197232757922353    
  0.04301918228635649    0.04337595459810081    0.03580456247647809    0.035533791523934245    0.034737341786918036    
  0.03346273226724389    0.031786419488660324    0.029805028923281487    0.027622327091943198    0.025337870037888042    
  0.023040924649190525    0.020808047383106498    0.018701052557969295    0.01676459913487543    0.01502506057104241    
  0.013492214756739163    0.01216365867828908    0.01103034463923115    0.010080953031393041    0.009303533912939414    
  0.008684996195020781    0.008210854809927405    0.007866997408772964    0.007642568696713578    0.007531475223410252    
  0.007531475223410252    0.007642568696713531    0.007866997408772976    0.008210854809927393    0.008684996195020781    
  0.009303533912939425    0.010080953031393041    0.01103034463923118    0.012163658678289068    0.01349221475673917    
  0.01502506057104241    0.016764599134875414    0.0187010525579693    0.020808047383106498    0.023040924649190535    
  0.025337870037888042    0.027622327091943146    0.029805028923281504    0.03178641948866034    0.033462732267243896    
  0.034737341786918    0.03553379152393422    0.03580456247647809    0.02944617694741141    0.029244186731412897    
  0.028648490005665852    0.027690840461112018    0.026424620145763734    0.024920058012208247    0.02325481992877348    
  0.02150463471109819    0.019737638122133333    0.018012050220260294    0.016374919585240445    0.014860976014940581    
  0.013492214756739175    0.012278889763873866    0.011221919294908128    0.010316193352218022    0.009553815303284178    
  0.008926117233360011    0.008424058426398253    0.00803799104194691    0.0077581803052559975    0.0075762798336090195    
  0.007486653732614712    0.007486653732614665    0.007576279833608926    0.007758180305255974    0.008037991041946888    
  0.008424058426398253    0.008926117233359999    0.009553815303284153    0.010316193352218068    0.01122191929490814    
  0.012278889763873877    0.013492214756739188    0.014860976014940557    0.016374919585240455    0.0180120502202603    
  0.019737638122133357    0.021504634711098206    0.023254819928773457    0.02492005801220821    0.026424620145763696    
  0.027690840461112035    0.028648490005665862    0.029244186731412918    0.02944617694741141    0.02420855443859172    
  0.02406009615870915    0.023621203206633013    0.022912646243827016    0.02197106707273107    0.02084675610917242    
  0.019597031801425118    0.018278655558601403    0.01694272634585395    0.015632555497664468    0.014383084588408441    
  0.013220758338669921    0.012163658678289063    0.011221919294908128    0.01039850815939835    0.009690742082249288    
  0.009092677030563375    0.008597599176813004    0.008199368311254366    0.007892242193872004    0.0076701725262203575    
  0.007526848314859073    0.007456789930048737    0.007456789930048737    0.007526848314859026    0.007670172526220311    
  0.00789224219387198    0.008199368311254356    0.008597599176813017    0.009092677030563375    0.009690742082249322    
  0.010398508159398384    0.011221919294908187    0.012163658678289068    0.013220758338669916    0.014383084588408453    
  0.01563255549766448    0.016942726345853972    0.01827865555860142    0.0195970318014251    0.020846756109172436    
  0.021971067072731103    0.022912646243827012    0.023621203206633013    0.02406009615870916    0.02420855443859172    
  0.019974365476971494    0.019866715844395897    0.01954780121627144    0.019031016123830156    0.01834111536290928    
  0.017513522068966687    0.016589910292797168    0.015612311281059764    0.014618662678626047    0.013640854105732228    
  0.012704523289384605    0.011829519966591916    0.011030344639231127    0.010316193352217999    0.00969074208224924    
  0.009152513190105791    0.008696636476112586    0.008317558075262329    0.008010999524643068    0.007773891826403808    
  0.007602891360387017    0.007493395088318924    0.007440346684007681    0.007440346684007657    0.007493395088318901    
  0.007602891360387064    0.007773891826403761    0.008010999524643068    0.008317558075262329    0.00869663647611255    
  0.009152513190105804    0.009690742082249288    0.010316193352218034    0.011030344639231133    0.011829519966591899    
  0.0127045232893846    0.013640854105732216    0.014618662678626071    0.015612311281059782    0.016589910292797147    
  0.017513522068966687    0.01834111536290925    0.01903101612383016    0.019547801216271463    0.019866715844395862    
  0.019974365476971494    0.016611306996703157    0.016534312438685965    0.016305787332078502    0.015934175863449505    
  0.01543582437740043    0.014835210249471138    0.014162261650474637    0.013447952913610091    0.012720460933452924    
  0.012003275570863906    0.011315104922977937    0.010670600271194165    0.010080953031393041    0.009553815303284106    
  0.009092677030563306    0.008696636476112608    0.008361593297474242    0.008082708682712774    0.00785651675450365    
  0.007681114508169666    0.0075546485012585145    0.007473972818047821    0.007435080986420664    0.007435080986420664    
  0.007473972818047798    0.007554648501258538    0.00768111450816969    0.00785651675450365    0.008082708682712774    
  0.008361593297474242    0.008696636476112633    0.009092677030563318    0.009553815303284178    0.010080953031393017    
  0.010670600271194172    0.011315104922977937    0.01200327557086391    0.012720460933452941    0.013447952913610107    
  0.014162261650474616    0.01483521024947112    0.015435824377400412    0.015934175863449484    0.016305787332078544    
  0.01653431243868594    0.016611306996703157    0.013984699152768131    0.013930423648263312    0.013769032921652187    
  0.013505659514195432    0.013150810496515015    0.012721129131001775    0.012237969896302    0.011724161605091927    
  0.011200678692357482    0.010684795100069033    0.010189998438762312    0.009726820641050345    0.009303533912939449    
  0.00892611723335994    0.008597599176813029    0.008317558075262365    0.008082708682712774    0.007888686411536087    
  0.007731926456307943    0.0076102819463315504    0.007522205924073346    0.007465703817691491    0.007438337872799608    
  0.007438337872799679    0.007465703817691514    0.00752220592407337    0.007610281946331574    0.007731926456307943    
  0.007888686411536063    0.00808270868271275    0.008317558075262412    0.008597599176813017    0.008926117233359987    
  0.009303533912939425    0.009726820641050338    0.010189998438762289    0.010684795100069044    0.01120067869235753    
  0.011724161605091944    0.012237969896301968    0.012721129131001768    0.013150810496515036    0.01350565951419542    
  0.013769032921652219    0.013930423648263265    0.013984699152768131    0.011972298967672641    0.011934554703490724    
  0.011822125937984509    0.011638051370406416    0.01138900922440961    0.011086280291689468    0.01074507819905384    
  0.010382164593329968    0.01001303589158437    0.009650237700280366    0.009303301021355372    0.008979583962029952    
  0.008684996195020759    0.008424058426398194    0.008199368311254332    0.008010999524643068    0.00785651675450365    
  0.007731926456307943    0.007633126596196677    0.0075569704941919015    0.007501441595811758    0.007465236569977418    
  0.007447413544942909    0.0074474135449428625    0.007465236569977324    0.007501441595811828    0.007556970494191855    
  0.007633126596196677    0.007731926456307943    0.007856516754503627    0.008010999524643068    0.008199368311254356    
  0.008424058426398241    0.008684996195020746    0.008979583962029952    0.009303301021355377    0.009650237700280366    
  0.010013035891584393    0.010382164593329983    0.010745078199053822    0.011086280291689453    0.011389009224409621    
  0.011638051370406402    0.011822125937984542    0.011934554703490715    0.011972298967672641    0.010474868800820738    
  0.01044882133959479    0.010371138437646662    0.010243673970090673    0.010070791699564176    0.00986024930815775    
  0.009622875293927463    0.009370834710227685    0.009115426970056077    0.00886571086513735    0.008628441957446185    
  0.008408769134523979    0.00821085480992738    0.008037991041946888    0.00789224219387198    0.0077738918264038314    
  0.0076811145081697365    0.007610281946331574    0.007556970494191878    0.007517223553683035    0.007488411819509729    
  0.007469340145053111    0.007459764971698333    0.0074597649716983796    0.007469340145053064    0.007488411819509729    
  0.007517223553683012    0.007556970494191878    0.007610281946331574    0.00768111450816969    0.007773891826403878    
  0.00789224219387198    0.008037991041946947    0.00821085480992738    0.008408769134523967    0.008628441957446173    
  0.008865710865137362    0.009115426970056094    0.009370834710227708    0.009622875293927437    0.009860249308157742    
  0.010070791699564176    0.010243673970090664    0.010371138437646688    0.010448821339594787    0.010474868800820738    
  0.009417689139888987    0.009399549984588465    0.009345426419382064    0.009256565041647383    0.009136004953471723    
  0.00898923092195006    0.008823965289744572    0.008648985254918617    0.00847260063336886    0.008301640828553537    
  0.008141285434741522    0.007995418018113896    0.007866997408772964    0.007758180305255963    0.007670172526220264    
  0.00760289136038704    0.0075546485012585145    0.00752220592407337    0.007501441595811734    0.007488411819509729    
  0.007480222440104286    0.007475262537549363    0.007472874102374544    0.007472874102374497    0.00747526253754941    
  0.007480222440104286    0.007488411819509635    0.007501441595811734    0.007522205924073346    0.007554648501258491    
  0.007602891360387064    0.007670172526220287    0.0077581803052559975    0.00786699740877294    0.007995418018113909    
  0.00814128543474151    0.008301640828553537    0.008472600633368872    0.008648985254918633    0.008823965289744565    
  0.008989230921950054    0.009136004953471746    0.009256565041647354    0.009345426419382089    0.009399549984588458    
  0.009417689139888987    0.008745791981258596    0.00873253380056767    0.008692973224948188    0.00862804661382493    
  0.00854004345893258    0.008433030385979413    0.008312678938387637    0.008185535709371404    0.008058103428327851    
  0.007936113664305598    0.007824151413844732    0.007725571836272704    0.007642568696713543    0.0075762798336089145    
  0.007526848314859003    0.0074933950883189476    0.0074739728180478445    0.007465703817691561    0.007465236569977324    
  0.007469340145053064    0.00747526253754941    0.00748074507297353    0.007484010521902055    0.007484010521902148    
  0.007480745072973436    0.007475262537549457    0.007469340145053111    0.007465236569977324    0.007465703817691561    
  0.0074739728180478445    0.007493395088318994    0.007526848314859003    0.007576279833608996    0.00764256869671352    
  0.007725571836272728    0.007824151413844745    0.007936113664305588    0.008058103428327868    0.008185535709371443    
  0.00831267893838762    0.008433030385979402    0.008540043458932596    0.008628046613824918    0.008692973224948221    
  0.008732533800567656    0.008745791981258596    0.00842038609386819    0.008409458368461381    0.008376851465567178    
  0.008323356013025082    0.008250899808981294    0.008162841648835994    0.008063816909718082    0.007959275521726076    
  0.007854918445764357    0.007756116050854666    0.007667361251797589    0.007591876454047316    0.007531475223410276    
  0.0074866537326146185    0.00745678993004869    0.007440346684007728    0.007435080986420641    0.007438337872799679    
  0.007447413544942956    0.007459764971698333    0.007472874102374497    0.0074840105219021015    0.007490471525374142    
  0.007490471525374095    0.0074840105219021015    0.007472874102374544    0.007459764971698333    0.007447413544942909    
  0.007438337872799655    0.007435080986420664    0.007440346684007728    0.00745678993004869    0.007486653732614689    
  0.007531475223410288    0.007591876454047316    0.007667361251797578    0.0077561160508546785    0.007854918445764374    
  0.007959275521726122    0.008063816909718064    0.008162841648835973    0.008250899808981325    0.008323356013025071    
  0.008376851465567221    0.008409458368461414    0.00842038609386819    0.008420386093868196    0.008409458368461381    
  0.008376851465567188    0.00832335601302506    0.00825089980898127    0.008162841648835985    0.008063816909718071    
  0.007959275521726088    0.007854918445764362    0.007756116050854685    0.007667361251797601    0.007591876454047328    
  0.007531475223410276    0.007486653732614654    0.00745678993004869    0.007440346684007704    0.007435080986420641    
  0.007438337872799632    0.007447413544942956    0.007459764971698333    0.00747287410237445    0.007484010521902148    
  0.007490471525374142    0.007490471525374095    0.0074840105219021015    0.00747287410237445    0.007459764971698286    
  0.007447413544942956    0.007438337872799632    0.007435080986420641    0.007440346684007728    0.007456789930048737    
  0.007486653732614701    0.007531475223410276    0.00759187645404734    0.007667361251797595    0.007756116050854696    
  0.007854918445764386    0.007959275521726105    0.008063816909718071    0.008162841648835973    0.008250899808981296    
  0.00832335601302506    0.008376851465567225    0.008409458368461407    0.008420386093868196    0.008745791981258582    
  0.00873253380056767    0.008692973224948199    0.008628046613824922    0.008540043458932577    0.008433030385979408    
  0.00831267893838765    0.008185535709371422    0.008058103428327858    0.007936113664305588    0.007824151413844745    
  0.007725571836272716    0.007642568696713543    0.0075762798336089145    0.007526848314859026    0.007493395088318924    
  0.007473972818047821    0.007465703817691514    0.007465236569977371    0.007469340145053064    0.007475262537549363    
  0.007480745072973483    0.007484010521902148    0.007484010521902148    0.007480745072973436    0.007475262537549457    
  0.007469340145053064    0.007465236569977371    0.007465703817691514    0.007473972818047798    0.007493395088318924    
  0.007526848314859003    0.007576279833608973    0.00764256869671352    0.007725571836272728    0.007824151413844745    
  0.007936113664305593    0.008058103428327886    0.008185535709371432    0.008312678938387628    0.00843303038597939    
  0.008540043458932575    0.008628046613824934    0.008692973224948207    0.008732533800567637    0.008745791981258582    
  0.009417689139888975    0.009399549984588473    0.00934542641938208    0.009256565041647395    0.00913600495347172    
  0.00898923092195004    0.008823965289744589    0.008648985254918614    0.008472600633368854    0.008301640828553525    
  0.008141285434741534    0.007995418018113909    0.007866997408772964    0.007758180305255951    0.00767017252622024    
  0.007602891360387017    0.007554648501258491    0.007522205924073346    0.007501441595811828    0.0074884118195097755    
  0.007480222440104286    0.007475262537549457    0.007472874102374497    0.007472874102374544    0.00747526253754941    
  0.007480222440104286    0.007488411819509682    0.007501441595811828    0.007522205924073346    0.007554648501258444    
  0.007602891360387064    0.007670172526220287    0.0077581803052559975    0.00786699740877294    0.007995418018113909    
  0.0081412854347415    0.008301640828553525    0.008472600633368877    0.008648985254918643    0.008823965289744563    
  0.008989230921950036    0.009136004953471746    0.009256565041647366    0.009345426419382092    0.009399549984588463    