#     DFTpy    
  CRYSTAL 
    
  PRIMVEC    
  3.2148403970374804    -1.7663000000000001e-10    3.3479000000000004e-10    
  -1.7663000000000001e-10    3.2148403968506805    1.6132000000000004e-10    
  6.1178e-10    2.9484000000000004e-10    5.889649913010311    
  PRIMCOORD    
  4    1    
  Si    1.6074201984574905    1.6074201993099504    1.8098555500208804    
  Si    5.960700000000001e-10    -5.516600000000001e-10    1.1349694045044603    
  Si    9.142000000000002e-11    4.166300000000001e-10    4.754680505165201    
  Si    1.6074201989394301    1.6074201980887906    4.0797943668261905    
  BEGIN_BLOCK_DATAGRID_3D    
  3d_datagrid_density    
  BEGIN_DATAGRID_3D#0    
  31    31    61    
  0.0    0.0    0.0    
  3.2148404090288962    -1.766300006588333e-10    3.3479000124877316e-10    
  -1.766300006588333e-10    3.2148404088420968    1.613200006017267e-10    
  6.117800022819511e-10    2.9484000109975884e-10    5.889649934978817    
  0.6169914857617661    0.6064695632748183    0.5760702160473493    0.52913629193046    0.4706733451708434    
  0.4064702478039612    0.3420573557922144    0.28185112222100783    0.22873195235783217    0.18407078658007214    
  0.14806599964278733    0.1202099815558932    0.09971314224776523    0.0857765846077939    0.07772607695084474    
  0.0750985062330268    0.07772607695084477    0.0857765846077939    0.09971314224776523    0.1202099815558932    
  0.14806599964278733    0.18407078658007214    0.22873195235783217    0.28185112222100783    0.3420573557922144    
  0.4064702478039612    0.4706733451708433    0.5291362919304599    0.5760702160473493    0.6064695632748183    
  0.6169914857617661    0.6064695632748182    0.5961617785119819    0.5663884163237791    0.5204394774456913    
  0.46322579612307485    0.40040431749443084    0.3373592507766204    0.2783819252792068    0.22627781985343393    
  0.18240048859403538    0.14697323207885107    0.11953058786512497    0.09932203373980383    0.08557598957467753    
  0.07763431897394919    0.0750421694835455    0.07763431897394925    0.08557598957467753    0.09932203373980386    
  0.11953058786512501    0.14697323207885105    0.18240048859403535    0.22627781985343393    0.2783819252792068    
  0.3373592507766203    0.40040431749443084    0.46322579612307474    0.5204394774456912    0.566388416323779    
  0.5961617785119819    0.6064695632748182    0.5760702160473493    0.5663884163237791    0.5384377484741962    
  0.49533853752282236    0.4417157366940279    0.3828477332296603    0.3237120657712398    0.2682559707990637    
  0.21907733204743063    0.17747748726795864    0.14374345187381643    0.11752264044718737    0.09817109300552068    
  0.08499300795677785    0.07737601243521865    0.07488950955575141    0.07737601243521863    0.08499300795677786    
  0.09817109300552068    0.11752264044718738    0.14374345187381643    0.1774774872679586    0.21907733204743063    
  0.2682559707990636    0.32371206577123973    0.38284773322966037    0.44171573669402786    0.49533853752282214    
  0.5384377484741962    0.5663884163237791    0.5760702160473493    0.52913629193046    0.5204394774456914    
  0.49533853752282236    0.4566483544752252    0.4085210328883941    0.3556568707366338    0.30244544881754815    
  0.2523479841592973    0.20766558797206824    0.16961462432350005    0.13855929042243106    0.11429799002663704    
  0.09633436363582182    0.08408081101527697    0.0769931512796924    0.07467889264349285    0.07699315127969242    
  0.08408081101527697    0.09633436363582182    0.11429799002663704    0.13855929042243104    0.16961462432350008    
  0.20766558797206824    0.25234798415929727    0.30244544881754815    0.3556568707366339    0.40852103288839403    
  0.4566483544752252    0.49533853752282236    0.5204394774456914    0.52913629193046    0.4706733451708434    
  0.46322579612307496    0.4417157366940279    0.4085210328883942    0.36716389403564986    0.3216337902046861    
  0.2756426277227412    0.23210912330604738    0.19299884776435652    0.15941718971731772    0.13179464995136625    
  0.11008383492932382    0.09394697675334844    0.0829176929706607    0.07653250813207532    0.07444690699896528    
  0.07653250813207532    0.0829176929706607    0.09394697675334844    0.11008383492932385    0.13179464995136622    
  0.15941718971731772    0.19299884776435652    0.23210912330604733    0.2756426277227412    0.32163379020468613    
  0.36716389403564975    0.40852103288839414    0.441715736694028    0.46322579612307496    0.4706733451708434    
  0.40647024780396107    0.40040431749443084    0.38284773322966037    0.3556568707366338    0.3216337902046861    
  0.28400055791005496    0.24577730174779405    0.20934696345506393    0.17633957049700252    0.14773237869330327    
  0.1239960040417003    0.10521467423667676    0.09119670656765003    0.08159442190095133    0.07602921807352218    
  0.07421052767376289    0.07602921807352213    0.08159442190095136    0.09119670656765003    0.10521467423667673    
  0.12399600404170023    0.14773237869330325    0.17633957049700252    0.20934696345506387    0.24577730174779405    
  0.284000557910055    0.32163379020468597    0.35565687073663377    0.38284773322966037    0.40040431749443084    
  0.40647024780396107    0.34205735579221436    0.33735925077662043    0.32371206577123973    0.30244544881754815    
  0.2756426277227412    0.24577730174779405    0.21521573760695412    0.18584592005688788    0.1589828651363536    
  0.13546436334147186    0.1157663910067687    0.10006618724429024    0.08829135656241624    0.08020218429304667    
  0.07550554745763231    0.07396922576510723    0.07550554745763234    0.08020218429304667    0.08829135656241624    
  0.1000661872442903    0.11576639100676867    0.13546436334147188    0.1589828651363536    0.18584592005688785    
  0.21521573760695412    0.24577730174779405    0.27564262772274106    0.30244544881754803    0.3237120657712397    
  0.3373592507766203    0.34205735579221436    0.2818511222210077    0.2783819252792069    0.2682559707990637    
  0.2523479841592973    0.23210912330604738    0.20934696345506393    0.18584592005688794    0.16305559690382762    
  0.14200462593697086    0.12338225555107846    0.10763013924383567    0.09497079920340747    0.08541688710906109    
  0.07882281803622797    0.07498104078482115    0.07372185151816417    0.07498104078482118    0.078822818036228    
  0.08541688710906109    0.09497079920340748    0.1076301392438356    0.12338225555107855    0.1420046259369708    
  0.1630555969038276    0.18584592005688794    0.20934696345506396    0.2321091233060473    0.25234798415929727    
  0.2682559707990637    0.27838192527920685    0.2818511222210077    0.22873195235783217    0.22627781985343412    
  0.2190773320474307    0.20766558797206827    0.19299884776435658    0.1763395704970025    0.1589828651363536    
  0.14200462593697083    0.12618002083561594    0.11204447781639797    0.09996761453843711    0.09016879012373794    
  0.08270928789181958    0.07752130221430717    0.07448006339878845    0.07347966675559899    0.0744800633987885    
  0.07752130221430717    0.08270928789181953    0.09016879012373794    0.09996761453843704    0.112044477816398    
  0.1261800208356159    0.14200462593697075    0.1589828651363536    0.17633957049700252    0.19299884776435658    
  0.20766558797206824    0.21907733204743063    0.22627781985343404    0.22873195235783217    0.18407078658007214    
  0.18240048859403543    0.17747748726795864    0.16961462432350005    0.1594171897173177    0.1477323786933033    
  0.13546436334147194    0.12338225555107846    0.11204447781639794    0.10183705791944513    0.09303356568235521    
  0.08581302615221495    0.08025273984409696    0.0763423725501457    0.07402892411347531    0.07326387457877341    
  0.07402892411347525    0.0763423725501457    0.08025273984409696    0.08581302615221495    0.09303356568235512    
  0.1018370579194452    0.11204447781639787    0.12338225555107846    0.13546436334147194    0.14773237869330327    
  0.1594171897173177    0.16961462432349997    0.1774774872679587    0.18240048859403543    0.18407078658007214    
  0.14806599964278733    0.14697323207885113    0.1437434518738164    0.13855929042243104    0.13179464995136625    
  0.12399600404170026    0.11576639100676876    0.10763013924383578    0.09996761453843715    0.09303356568235525    
  0.0870042193108032    0.08200205686670313    0.07809717106961014    0.07531292962734637    0.07364695098793032    
  0.07309246119380582    0.07364695098793032    0.07531292962734633    0.07809717106961019    0.08200205686670313    
  0.08700421931080306    0.09303356568235521    0.09996761453843708    0.10763013924383572    0.11576639100676876    
  0.1239960040417003    0.13179464995136622    0.138559290422431    0.14374345187381637    0.14697323207885113    
  0.14806599964278733    0.12020998155589317    0.11953058786512506    0.11752264044718741    0.11429799002663707    
  0.1100838349293238    0.10521467423667676    0.10006618724429037    0.09497079920340748    0.09016879012373794    
  0.08581302615221495    0.08200205686670328    0.07880646146121566    0.07627717132454033    0.07444772728986901    
  0.07334005148826886    0.07296891393370489    0.07334005148826891    0.07444772728986909    0.07627717132454033    
  0.07880646146121566    0.08200205686670309    0.08581302615221495    0.09016879012373794    0.09497079920340744    
  0.10006618724429037    0.10521467423667685    0.11008383492932375    0.114297990026637    0.11752264044718738    
  0.11953058786512501    0.12020998155589317    0.09971314224776517    0.0993220337398039    0.09817109300552077    
  0.09633436363582186    0.09394697675334847    0.09119670656764997    0.08829135656241628    0.08541688710906106    
  0.08270928789181958    0.08025273984409692    0.07809717106961032    0.07627717132454027    0.07482136560500074    
  0.07375524492339529    0.07310243130521514    0.07288221234488901    0.07310243130521514    0.07375524492339533    
  0.07482136560500074    0.07627717132454023    0.07809717106961014    0.08025273984409696    0.08270928789181949    
  0.08541688710906097    0.08829135656241628    0.09119670656765003    0.09394697675334841    0.09633436363582185    
  0.0981710930055208    0.0993220337398038    0.09971314224776517    0.08577658460779378    0.0855759895746776    
  0.08499300795677785    0.08408081101527695    0.08291769297066066    0.08159442190095138    0.08020218429304667    
  0.07882281803622795    0.07752130221430721    0.0763423725501457    0.07531292962734643    0.07444772728986905    
  0.07375524492339533    0.0732438963970612    0.07292674072647257    0.07281871650338752    0.07292674072647257    
  0.0732438963970612    0.07375524492339533    0.07444772728986901    0.07531292962734627    0.07634237255014566    
  0.07752130221430727    0.07882281803622788    0.08020218429304667    0.08159442190095138    0.08291769297066066    
  0.08408081101527694    0.08499300795677786    0.08557598957467757    0.08577658460779378    0.07772607695084474    
  0.0776343189739493    0.0773760124352187    0.07699315127969242    0.07653250813207535    0.07602921807352218    
  0.07550554745763238    0.07498104078482119    0.0744800633987884    0.0740289241134754    0.07364695098793032    
  0.07334005148826896    0.0731024313052152    0.07292674072647252    0.07281450740717268    0.07277522831850657    
  0.07281450740717274    0.07292674072647261    0.0731024313052152    0.07334005148826896    0.07364695098793024    
  0.07402892411347531    0.07448006339878836    0.07498104078482118    0.07550554745763238    0.07602921807352223    
  0.07653250813207535    0.07699315127969239    0.0773760124352187    0.07763431897394928    0.07772607695084474    
  0.07509850623302677    0.07504216948354549    0.07488950955575142    0.07467889264349277    0.07444690699896525    
  0.0742105276737628    0.07396922576510727    0.07372185151816413    0.07347966675559899    0.07326387457877336    
  0.07309246119380577    0.07296891393370485    0.07288221234488901    0.07281871650338746    0.07277522831850657    
  0.07275903542861319    0.07277522831850657    0.07281871650338756    0.07288221234488901    0.07296891393370485    
  0.07309246119380568    0.07326387457877345    0.07347966675559893    0.07372185151816407    0.07396922576510727    
  0.07421052767376289    0.0744469069989652    0.07467889264349274    0.07488950955575141    0.07504216948354547    
  0.07509850623302677    0.07772607695084471    0.07763431897394929    0.07737601243521866    0.07699315127969245    
  0.07653250813207528    0.07602921807352218    0.07550554745763237    0.07498104078482125    0.0744800633987884    
  0.07402892411347525    0.07364695098793032    0.07334005148826896    0.07310243130521514    0.07292674072647247    
  0.07281450740717259    0.07277522831850661    0.07281450740717255    0.07292674072647247    0.07310243130521514    
  0.07334005148826891    0.07364695098793024    0.07402892411347531    0.0744800633987884    0.07498104078482118    
  0.07550554745763237    0.07602921807352218    0.0765325081320753    0.07699315127969238    0.07737601243521867    
  0.0776343189739493    0.07772607695084471    0.08577658460779383    0.08557598957467756    0.08499300795677785    
  0.08408081101527701    0.08291769297066068    0.08159442190095133    0.08020218429304667    0.07882281803622797    
  0.07752130221430731    0.07634237255014575    0.07531292962734637    0.07444772728986901    0.07375524492339529    
  0.07324389639706116    0.07292674072647247    0.07281871650338752    0.07292674072647257    0.0732438963970612    
  0.07375524492339529    0.07444772728986895    0.07531292962734633    0.0763423725501457    0.07752130221430721    
  0.0788228180362279    0.08020218429304667    0.08159442190095141    0.08291769297066068    0.08408081101527698    
  0.08499300795677782    0.08557598957467755    0.08577658460779383    0.09971314224776517    0.0993220337398039    
  0.09817109300552077    0.09633436363582186    0.09394697675334847    0.09119670656764997    0.08829135656241628    
  0.08541688710906106    0.08270928789181958    0.08025273984409692    0.07809717106961032    0.07627717132454027    
  0.07482136560500074    0.07375524492339529    0.07310243130521514    0.07288221234488901    0.07310243130521514    
  0.07375524492339533    0.07482136560500074    0.07627717132454023    0.07809717106961014    0.08025273984409696    
  0.08270928789181949    0.08541688710906097    0.08829135656241628    0.09119670656765003    0.09394697675334841    
  0.09633436363582185    0.0981710930055208    0.0993220337398038    0.09971314224776517    0.12020998155589313    
  0.11953058786512506    0.11752264044718741    0.114297990026637    0.11008383492932375    0.10521467423667676    
  0.10006618724429034    0.09497079920340748    0.09016879012373785    0.08581302615221495    0.08200205686670319    
  0.0788064614612157    0.07627717132454037    0.07444772728986909    0.07334005148826891    0.07296891393370489    
  0.07334005148826886    0.07444772728986909    0.07627717132454037    0.07880646146121566    0.08200205686670313    
  0.08581302615221495    0.0901687901237379    0.09497079920340744    0.10006618724429034    0.1052146742366768    
  0.1100838349293238    0.114297990026637    0.11752264044718738    0.11953058786512501    0.12020998155589313    
  0.14806599964278733    0.14697323207885113    0.14374345187381643    0.13855929042243104    0.13179464995136628    
  0.12399600404170026    0.11576639100676873    0.10763013924383574    0.09996761453843714    0.09303356568235521    
  0.08700421931080315    0.08200205686670313    0.07809717106961019    0.07531292962734647    0.07364695098793032    
  0.07309246119380577    0.07364695098793032    0.07531292962734643    0.07809717106961014    0.08200205686670313    
  0.08700421931080306    0.09303356568235525    0.09996761453843711    0.10763013924383572    0.11576639100676873    
  0.12399600404170033    0.13179464995136622    0.138559290422431    0.14374345187381646    0.14697323207885105    
  0.14806599964278733    0.18407078658007217    0.18240048859403543    0.17747748726795864    0.16961462432350005    
  0.15941718971731772    0.14773237869330322    0.13546436334147194    0.12338225555107851    0.11204447781639794    
  0.10183705791944513    0.09303356568235521    0.08581302615221495    0.08025273984409692    0.07634237255014575    
  0.07402892411347525    0.07326387457877341    0.07402892411347525    0.07634237255014575    0.08025273984409692    
  0.08581302615221495    0.09303356568235512    0.10183705791944515    0.11204447781639797    0.12338225555107846    
  0.13546436334147194    0.14773237869330333    0.1594171897173177    0.16961462432349994    0.1774774872679586    
  0.1824004885940354    0.18407078658007217    0.22873195235783217    0.22627781985343404    0.21907733204743068    
  0.20766558797206827    0.19299884776435658    0.17633957049700247    0.15898286513635362    0.14200462593697075    
  0.1261800208356159    0.11204447781639792    0.09996761453843718    0.0901687901237379    0.08270928789181949    
  0.07752130221430727    0.0744800633987884    0.07347966675559899    0.0744800633987884    0.07752130221430717    
  0.08270928789181949    0.09016879012373794    0.09996761453843708    0.11204447781639797    0.12618002083561594    
  0.14200462593697072    0.15898286513635362    0.17633957049700252    0.19299884776435647    0.20766558797206827    
  0.21907733204743063    0.22627781985343404    0.22873195235783217    0.28185112222100783    0.2783819252792069    
  0.2682559707990637    0.25234798415929727    0.23210912330604733    0.20934696345506393    0.18584592005688794    
  0.16305559690382765    0.1420046259369708    0.12338225555107853    0.10763013924383577    0.09497079920340748    
  0.08541688710906106    0.07882281803622795    0.07498104078482118    0.07372185151816417    0.07498104078482122    
  0.07882281803622795    0.08541688710906106    0.09497079920340751    0.1076301392438357    0.12338225555107851    
  0.14200462593697075    0.16305559690382762    0.18584592005688794    0.20934696345506393    0.2321091233060473    
  0.2523479841592972    0.2682559707990636    0.2783819252792068    0.28185112222100783    0.34205735579221436    
  0.33735925077662043    0.32371206577123973    0.30244544881754815    0.2756426277227412    0.24577730174779405    
  0.21521573760695412    0.18584592005688788    0.1589828651363536    0.13546436334147186    0.1157663910067687    
  0.10006618724429024    0.08829135656241624    0.08020218429304667    0.07550554745763231    0.07396922576510723    
  0.07550554745763234    0.08020218429304667    0.08829135656241624    0.1000661872442903    0.11576639100676867    
  0.13546436334147188    0.1589828651363536    0.18584592005688785    0.21521573760695412    0.24577730174779405    
  0.27564262772274106    0.30244544881754803    0.3237120657712397    0.3373592507766203    0.34205735579221436    
  0.406470247803961    0.40040431749443084    0.3828477332296604    0.3556568707366338    0.32163379020468613    
  0.2840005579100549    0.24577730174779405    0.20934696345506387    0.17633957049700255    0.14773237869330322    
  0.1239960040417003    0.10521467423667671    0.09119670656765003    0.08159442190095138    0.07602921807352209    
  0.07421052767376289    0.07602921807352213    0.08159442190095138    0.09119670656765003    0.10521467423667673    
  0.12399600404170023    0.1477323786933033    0.1763395704970025    0.20934696345506382    0.24577730174779405    
  0.28400055791005496    0.3216337902046861    0.35565687073663377    0.3828477332296604    0.40040431749443084    
  0.406470247803961    0.4706733451708434    0.46322579612307496    0.441715736694028    0.4085210328883942    
  0.36716389403564986    0.32163379020468613    0.2756426277227412    0.23210912330604738    0.19299884776435652    
  0.15941718971731772    0.13179464995136628    0.11008383492932385    0.09394697675334847    0.08291769297066066    
  0.07653250813207535    0.07444690699896525    0.07653250813207535    0.08291769297066066    0.09394697675334847    
  0.11008383492932382    0.13179464995136622    0.15941718971731775    0.19299884776435652    0.2321091233060473    
  0.2756426277227412    0.3216337902046861    0.3671638940356497    0.4085210328883941    0.441715736694028    
  0.46322579612307496    0.4706733451708434    0.5291362919304601    0.5204394774456914    0.49533853752282236    
  0.4566483544752252    0.4085210328883942    0.3556568707366338    0.30244544881754815    0.25234798415929727    
  0.20766558797206816    0.16961462432350005    0.13855929042243106    0.11429799002663701    0.09633436363582185    
  0.08408081101527695    0.07699315127969235    0.07467889264349284    0.07699315127969236    0.08408081101527698    
  0.09633436363582185    0.11429799002663704    0.13855929042243098    0.16961462432350008    0.20766558797206822    
  0.25234798415929716    0.30244544881754815    0.3556568707366338    0.4085210328883941    0.45664835447522517    
  0.49533853752282236    0.5204394774456914    0.5291362919304601    0.5760702160473493    0.5663884163237791    
  0.5384377484741961    0.49533853752282236    0.441715736694028    0.38284773322966037    0.3237120657712398    
  0.2682559707990637    0.21907733204743063    0.1774774872679587    0.14374345187381646    0.11752264044718738    
  0.09817109300552068    0.08499300795677785    0.07737601243521866    0.07488950955575137    0.07737601243521869    
  0.08499300795677786    0.09817109300552068    0.11752264044718741    0.14374345187381637    0.1774774872679586    
  0.21907733204743063    0.2682559707990637    0.3237120657712398    0.38284773322966037    0.4417157366940279    
  0.49533853752282236    0.5384377484741962    0.5663884163237791    0.5760702160473493    0.606469563274818    
  0.5961617785119819    0.566388416323779    0.5204394774456912    0.46322579612307485    0.40040431749443084    
  0.33735925077662027    0.27838192527920685    0.22627781985343393    0.18240048859403535    0.14697323207885107    
  0.11953058786512501    0.09932203373980383    0.08557598957467757    0.07763431897394922    0.07504216948354549    
  0.07763431897394925    0.08557598957467762    0.09932203373980383    0.11953058786512501    0.14697323207885107    
  0.18240048859403535    0.22627781985343398    0.2783819252792068    0.33735925077662027    0.40040431749443084    
  0.46322579612307485    0.5204394774456912    0.566388416323779    0.5961617785119819    0.606469563274818    
  0.6169914857617661    0.6064695632748183    0.5760702160473493    0.52913629193046    0.4706733451708434    
  0.4064702478039612    0.3420573557922144    0.28185112222100783    0.22873195235783217    0.18407078658007214    
  0.14806599964278733    0.1202099815558932    0.09971314224776523    0.0857765846077939    0.07772607695084474    
  0.0750985062330268    0.07772607695084477    0.0857765846077939    0.09971314224776523    0.1202099815558932    
  0.14806599964278733    0.18407078658007214    0.22873195235783217    0.28185112222100783    0.3420573557922144    
  0.4064702478039612    0.4706733451708433    0.5291362919304599    0.5760702160473493    0.6064695632748183    
  0.6169914857617661    0.6165344573602494    0.6061880688652432    0.5762502985930703    0.5299070479133713    
  0.47199758319160595    0.408199610924097    0.3440017311827193    0.2838305695133901    0.23061032280717533    
  0.18577530278414253    0.14958608043166122    0.12157276001721651    0.10095284462055318    0.08692126738445756    
  0.07880541833274445    0.07615376087547295    0.07880541833274449    0.08692126738445756    0.10095284462055318    
  0.12157276001721651    0.1495860804316612    0.1857753027841425    0.23061032280717533    0.28383056951339003    
  0.3440017311827193    0.40819961092409696    0.4719975831916058    0.5299070479133712    0.5762502985930703    
  0.6061880688652432    0.6165344573602494    0.6061880688652432    0.5960479827270433    0.5667148963327656    
  0.5213271547062004    0.46463500963319637    0.4021887273211017    0.3393341362165168    0.28037532723277003    
  0.2281625974913626    0.18411131890037064    0.14850334657887174    0.12090727706333157    0.10057785364843766    
  0.08673744202738799    0.07873040564265045    0.07611409999643398    0.07873040564265048    0.086737442027388    
  0.10057785364843767    0.12090727706333164    0.14850334657887168    0.1841113189003706    0.2281625974913626    
  0.28037532723277    0.3393341362165168    0.4021887273211017    0.46463500963319637    0.5213271547062003    
  0.5667148963327655    0.5960479827270433    0.6061880688652432    0.5762502985930703    0.5667148963327655    
  0.5391469671224591    0.4965302778889844    0.44334501610219285    0.3847746739082112    0.3257667807193206    
  0.2702876804726875    0.22098249249913954    0.1792100182198392    0.14530596979187657    0.11894213582174341    
  0.09947527444194719    0.08620421855372541    0.07852161645314987    0.07601073045732892    0.07852161645314987    
  0.08620421855372543    0.0994752744419472    0.11894213582174344    0.14530596979187654    0.1792100182198392    
  0.22098249249913954    0.27028768047268736    0.3257667807193206    0.38477467390821124    0.44334501610219273    
  0.4965302778889844    0.5391469671224592    0.5667148963327656    0.5762502985930703    0.5299070479133712    
  0.5213271547062005    0.4965302778889844    0.4582175171959681    0.410419105309204    0.3577559864407343    
  0.3045973461451445    0.25443023353063954    0.20960488592345303    0.17138840181079024    0.14018010961625085    
  0.11579024943002654    0.09771819671651702    0.0853729798142019    0.07821920918935943    0.07588026363407611    
  0.07821920918935948    0.08537297981420192    0.09771819671651702    0.11579024943002654    0.14018010961625085    
  0.17138840181079024    0.20960488592345303    0.25443023353063954    0.3045973461451445    0.3577559864407343    
  0.410419105309204    0.458217517195968    0.4965302778889844    0.5213271547062004    0.5299070479133712    
  0.47199758319160595    0.4646350096331964    0.44334501610219285    0.4104191053092041    0.36928440809752827    
  0.32386759700638057    0.277868085842858    0.2342341039719996    0.1949791054573269    0.16125006042981835    
  0.13349800794830619    0.11167560439207272    0.09543778360338052    0.08431851206811147    0.07786733178959829    
  0.07575707525242208    0.07786733178959826    0.0843185120681115    0.09543778360338052    0.11167560439207272    
  0.13349800794830616    0.16125006042981838    0.19497910545732688    0.23423410397199954    0.277868085842858    
  0.3238675970063806    0.3692844080975282    0.410419105309204    0.44334501610219285    0.4646350096331964    
  0.47199758319160595    0.40819961092409685    0.4021887273211018    0.3847746739082113    0.3577559864407343    
  0.32386759700638057    0.2862852008620016    0.2480216518111685    0.21148809602211194    0.17835614890681567    
  0.14963310506240327    0.12579681074210577    0.10692328863382936    0.09281374624550873    0.08312577462855558    
  0.07749725423317426    0.07565501868935089    0.07749725423317426    0.08312577462855558    0.09281374624550873    
  0.10692328863382936    0.1257968107421057    0.14963310506240324    0.17835614890681567    0.21148809602211185    
  0.2480216518111685    0.28628520086200165    0.32386759700638046    0.3577559864407342    0.38477467390821124    
  0.4021887273211017    0.40819961092409685    0.3440017311827193    0.33933413621651687    0.3257667807193206    
  0.30459734614514444    0.2778680858428579    0.2480216518111684    0.21741962337028387    0.18797188914576055    
  0.16102395229182398    0.1374310584297249    0.11766652571406465    0.10189605922214694    0.09004320089203663    
  0.08187810133735776    0.07712546118523546    0.07556850659832501    0.07712546118523546    0.08187810133735776    
  0.09004320089203663    0.10189605922214696    0.11766652571406462    0.13743105842972494    0.16102395229182398    
  0.18797188914576052    0.21741962337028387    0.2480216518111684    0.2778680858428579    0.3045973461451444    
  0.3257667807193205    0.3393341362165168    0.3440017311827193    0.28383056951339003    0.28037532723277003    
  0.2702876804726875    0.2544302335306396    0.2342341039719996    0.21148809602211188    0.18797188914576057    
  0.16514734842609624    0.14406037343288497    0.1254068351776069    0.10962096998587728    0.09691519382985862    
  0.08730232631408695    0.08064908329762657    0.0767640852735896    0.07548919167374299    0.07676408527358959    
  0.08064908329762659    0.08730232631408695    0.09691519382985866    0.10962096998587721    0.12540683517760692    
  0.14406037343288494    0.16514734842609616    0.18797188914576057    0.211488096022112    0.2342341039719995    
  0.25443023353063954    0.2702876804726875    0.28037532723277003    0.28383056951339003    0.23061032280717533    
  0.22816259749136275    0.22098249249913962    0.20960488592345308    0.19497910545732697    0.17835614890681561    
  0.161023952291824    0.14406037343288494    0.12824620646822887    0.11411697982720699    0.1020354376303919    
  0.0922152596270226    0.08472119694479409    0.07949694746580334    0.07642956842417813    0.07541985688984393    
  0.07642956842417817    0.0794969474658034    0.08472119694479403    0.0922152596270226    0.1020354376303918    
  0.11411697982720699    0.12824620646822885    0.14406037343288486    0.161023952291824    0.17835614890681564    
  0.19497910545732697    0.20960488592345297    0.22098249249913962    0.22816259749136275    0.23061032280717533    
  0.1857753027841425    0.18411131890037072    0.17921001821983928    0.1713884018107902    0.16125006042981835    