#     DFTpy    
  CRYSTAL 
    
  PRIMVEC    
  4.317071390307471    -2.3719000000000004e-10    4.495700000000001e-10    
  -2.3719000000000004e-10    4.317071390056621    2.1663000000000006e-10    
  8.215400000000002e-10    3.959200000000001e-10    7.908958454613851    
  PRIMCOORD    
  4    1    
  Si    2.1585356950714902    2.1585356962162208    2.4303774528851907    
  Si    8.004400000000001e-10    -7.408000000000001e-10    1.5241017717631302    
  Si    1.2277000000000003e-10    5.594800000000001e-10    6.384856678364702    
  Si    2.1585356957186703    2.1585356945763805    5.478581006880881    
  BEGIN_BLOCK_DATAGRID_3D    
  3d_datagrid_density    
  BEGIN_DATAGRID_3D#0    
  46    46    76    
  0.0    0.0    0.0    
  4.317071406410229    -2.3719000088472326e-10    4.495700016769047e-10    
  -2.3719000088472326e-10    4.31707140615938    2.1663000080803408e-10    
  8.215400030643601e-10    3.9592000147678924e-10    7.908958484114417    
  0.20781302703365442    0.20553645386817013    0.1988757973994606    0.18832596494422174    0.17465866883450495    
  0.15882179658650192    0.14180425377222058    0.12451320685180069    0.10770155304176783    0.09194537975357647    
  0.07764506201988469    0.06503043243854438    0.05417237949308151    0.045011939918278836    0.03740696879378126    
  0.031181673881683705    0.026161709682413    0.022188347943536704    0.01911883558286246    0.01682530736159519    
  0.015199078970614559    0.014157842061609168    0.013649356524133054    0.013649356524133018    0.01415784206160917    
  0.01519907897061453    0.016825307361595186    0.01911883558286246    0.022188347943536732    0.026161709682413003    
  0.031181673881683736    0.03740696879378128    0.04501193991827885    0.054172379493081485    0.06503043243854435    
  0.07764506201988468    0.09194537975357647    0.10770155304176787    0.12451320685180073    0.14180425377222058    
  0.15882179658650186    0.17465866883450484    0.18832596494422174    0.19887579739946054    0.20553645386817013    
  0.20781302703365442    0.20553645386817007    0.20329205760958735    0.19672458472066326    0.18631964788788996    
  0.17283571404776343    0.15720602874425205    0.1404056653627183    0.12332999443417342    0.10672243600921458    
  0.09115184326544587    0.077013717054555    0.06453570203025405    0.0537892642354482    0.044718211174910524    
  0.03718421794981693    0.03101516573630293    0.026039536100577017    0.02210055776524049    0.019056949309853115    
  0.016782181771634392    0.015168833680402111    0.014135633590530312    0.013631013792920855    0.013631013792920829    
  0.014135633590530307    0.01516883368040207    0.016782181771634368    0.019056949309853115    0.022100557765240492    
  0.02603953610057698    0.03101516573630294    0.037184217949816974    0.04471821117491058    0.05378926423544815    
  0.06453570203025402    0.07701371705455501    0.09115184326544587    0.1067224360092146    0.12332999443417343    
  0.14040566536271828    0.157206028744252    0.17283571404776335    0.1863196478878899    0.19672458472066326    
  0.20329205760958732    0.20553645386817007    0.1988757973994606    0.19672458472066323    0.1904272133213708    
  0.18044294096012686    0.16749237960662275    0.152466515220724    0.13630011408963866    0.11985394631617606    
  0.10384359926751448    0.08881674967439976    0.07515465861733742    0.06307848640284033    0.052661130204901305    
  0.04385412309718777    0.03652994929619516    0.03052701049890465    0.02568202131886868    0.021844048413106762    
  0.018876295845912765    0.01665631590343379    0.015080505703944112    0.014070698035130665    0.01357732317880214    
  0.013577323178802102    0.014070698035130662    0.015080505703944078    0.016656315903433767    0.018876295845912765    
  0.021844048413106807    0.025682021318868643    0.0305270104989047    0.036529949296195185    0.04385412309718778    
  0.052661130204901284    0.06307848640284035    0.07515465861733742    0.08881674967439976    0.10384359926751448    
  0.11985394631617609    0.13630011408963869    0.152466515220724    0.16749237960662267    0.18044294096012686    
  0.19042721332137083    0.19672458472066326    0.1988757973994606    0.18832596494422169    0.18631964788789    
  0.18044294096012686    0.17111566488456376    0.15900094832498055    0.14492445696006503    0.1297576055640043    
  0.11430618082133072    0.0992414662118429    0.08507762382459116    0.0721734512806282    0.06073961725756254    
  0.05085055831148714    0.04246896589931721    0.035483401328136    0.02974827828865891    0.025113227918701245    
  0.021436857118781266    0.018589947645096513    0.01645695495698507    0.014940621520585597    0.013967845340031938    
  0.013492268917815952    0.013492268917815917    0.01396784534003193    0.014940621520585569    0.016456954956985053    
  0.018589947645096513    0.021436857118781318    0.02511322791870124    0.02974827828865892    0.035483401328136016    
  0.04246896589931723    0.05085055831148711    0.060739617257562495    0.07217345128062817    0.08507762382459116    
  0.09924146621184286    0.11430618082133075    0.12975760556400434    0.14492445696006498    0.1590009483249805    
  0.17111566488456367    0.18044294096012686    0.18631964788789004    0.18832596494422169    0.1746586688345049    
  0.1728357140477634    0.1674923796066228    0.15900094832498052    0.14795391757967466    0.13509489711805578    
  0.12121413175543068    0.10704609327898462    0.09320452492224743    0.08016035986203195    0.06824351471322328    
  0.05765074064245657    0.048457310841932014    0.04063863967955812    0.03410242273409924    0.028722733127860025    
  0.0243656787733404    0.02090261849368234    0.018214807417673336    0.0161962221577648    0.01475816450940645    
  0.013834204872025031    0.013382128175891342    0.013382128175891307    0.013834204872025031    0.014758164509406426    
  0.016196222157764766    0.018214807417673336    0.020902618493682367    0.024365678773340414    0.02872273312786006    
  0.03410242273409925    0.04063863967955817    0.048457310841931986    0.05765074064245655    0.06824351471322329    
  0.08016035986203195    0.09320452492224747    0.10704609327898468    0.1212141317554307    0.13509489711805575    
  0.1479539175796746    0.15900094832498055    0.1674923796066228    0.1728357140477634    0.1746586688345049    
  0.15882179658650186    0.157206028744252    0.15246651522072405    0.14492445696006506    0.1350948971180558    
  0.12362944106304355    0.11122560839520229    0.09853551999966165    0.08610642600083225    0.07435961442346206    
  0.0635918927087222    0.053983533447567934    0.045609428284733654    0.03845768562237444    0.03245612784505615    
  0.027500230072735415    0.023474748261677968    0.020266109643963446    0.01776828439748279    0.015886748052084024    
  0.014542902176498184    0.013677989755985583    0.013254440930070126    0.013254440930070091    0.013677989755985559    
  0.014542902176498156    0.01588674805208399    0.017768284397482802    0.020266109643963495    0.023474748261677992    
  0.02750023007273544    0.03245612784505617    0.038457685622374484    0.04560942828473367    0.053983533447567913    
  0.06359189270872218    0.07435961442346206    0.0861064260008323    0.09853551999966169    0.11122560839520229    
  0.12362944106304355    0.13509489711805572    0.14492445696006503    0.15246651522072402    0.157206028744252    
  0.15882179658650186    0.14180425377222064    0.14040566536271837    0.13630011408963869    0.12975760556400434    
  0.12121413175543075    0.11122560839520229    0.1003916614229336    0.08927675034802929    0.07835729628856777    
  0.0680019109539579    0.0584722455282944    0.04993054929548524    0.04245002787004727    0.03603045637712647    
  0.030619229326543648    0.026133301464734176    0.022476776436702026    0.01955226700479298    0.017267678312378947    
  0.0155410173993313    0.01430446862412062    0.013507274741345904    0.013116594329501133    0.013116594329501121    
  0.013507274741345904    0.014304468624120591    0.015541017399331277    0.017267678312378954    0.019552267004792998    
  0.022476776436702033    0.026133301464734228    0.030619229326543675    0.036030456377126506    0.04245002787004723    
  0.0499305492954852    0.0584722455282944    0.0680019109539579    0.0783572962885678    0.08927675034802933    
  0.10039166142293354    0.11122560839520226    0.12121413175543073    0.12975760556400429    0.13630011408963874    
  0.14040566536271834    0.14180425377222064    0.12451320685180069    0.12332999443417342    0.11985394631617606    
  0.11430618082133072    0.10704609327898472    0.0985355199996616    0.08927675034802925    0.07974651667390414    
  0.07035024168240468    0.061403779252003    0.05313346046840487    0.04568296459241078    0.03912271559044567    
  0.03346262249287075    0.02866804090004916    0.024676141255702135    0.0214097127345274    0.01878743990883042    
  0.01673130903647954    0.01517196327151959    0.01405230192713143    0.01332938001002372    0.012974897558320929    
  0.012974897558320911    0.013329380010023708    0.014052301927131413    0.015171963271519585    0.01673130903647954    
  0.018787439908830462    0.021409712734527443    0.024676141255702166    0.028668040900049183    0.0334626224928708    
  0.039122715590445646    0.04568296459241075    0.05313346046840486    0.06140377925200297    0.07035024168240471    
  0.07974651667390416    0.08927675034802927    0.09853551999966165    0.10704609327898462    0.11430618082133072    
  0.11985394631617606    0.12332999443417342    0.12451320685180069    0.10770155304176773    0.10672243600921456    
  0.10384359926751444    0.09924146621184286    0.09320452492224746    0.0861064260008323    0.07835729628856777    
  0.07035024168240467    0.062422772925051793    0.054840205762056116    0.04779490046121361    0.04141227980632193    
  0.03575913192191291    0.030853614977501814    0.026676612506489263    0.023183178237784482    0.020313039408978557    
  0.01799987526902256    0.016179094009883804    0.014793430406119776    0.013795955311483414    0.013151070842900016    
  0.012834728197982825    0.0128347281979828    0.013151070842899982    0.013795955311483402    0.014793430406119742    
  0.016179094009883814    0.017999875269022584    0.02031303940897858    0.023183178237784482    0.02667661250648928    
  0.030853614977501855    0.035759131921912886    0.04141227980632189    0.0477949004612136    0.054840205762056116    
  0.062422772925051793    0.07035024168240467    0.07835729628856777    0.08610642600083229    0.09320452492224744    
  0.09924146621184286    0.10384359926751444    0.10672243600921456    0.10770155304176773    0.09194537975357643    
  0.09115184326544591    0.08881674967439968    0.08507762382459116    0.08016035986203199    0.07435961442346209    
  0.0680019109539579    0.061403779252003    0.05484020576205613    0.04852988908366837    0.04263375307815684    
  0.037259932239090104    0.03247080259371033    0.028290449643322328    0.024712107789106742    0.02170558519374021    
  0.01922511907309738    0.017217775127021873    0.015631298333185384    0.014419618503981893    0.013545176978457588    
  0.0129791287392858    0.012701370873548341    0.01270137087354833    0.012979128739285788    0.013545176978457576    
  0.014419618503981893    0.015631298333185384    0.017217775127021898    0.01922511907309737    0.021705585193740235    
  0.024712107789106742    0.028290449643322377    0.032470802593710296    0.037259932239090084    0.04263375307815684    
  0.04852988908366837    0.0548402057620561    0.06140377925200304    0.0680019109539579    0.07435961442346209    
  0.08016035986203196    0.08507762382459111    0.08881674967439974    0.09115184326544584    0.09194537975357643    
  0.07764506201988465    0.07701371705455501    0.07515465861733737    0.07217345128062821    0.06824351471322336    
  0.06359189270872224    0.05847224552829438    0.053133460468404836    0.04779490046121364    0.042633753078156846    
  0.03778287987419601    0.03333448768484026    0.029345666013684973    0.02584365644030402    0.022830338128801232    
  0.02028675831049985    0.018179032065178877    0.01646587117502251    0.01510609242862832    0.014063681198143574    
  0.013309427159601548    0.012820533573813277    0.012580543765346217    0.012580543765346217    0.012820533573813254    
  0.013309427159601548    0.01406368119814354    0.01510609242862832    0.0164658711750225    0.018179032065178867    
  0.020286758310499864    0.022830338128801232    0.025843656440304077    0.029345666013684938    0.03333448768484023    
  0.03778287987419601    0.042633753078156846    0.04779490046121361    0.05313346046840486    0.05847224552829435    
  0.06359189270872222    0.06824351471322332    0.07217345128062817    0.07515465861733742    0.077013717054555    
  0.07764506201988465    0.06503043243854435    0.06453570203025401    0.0630784864028403    0.06073961725756251    
  0.05765074064245657    0.0539835334475679    0.04993054929548518    0.045682964592410745    0.04141227980632193    
  0.03725993223909008    0.03333448768484027    0.02971368787758261    0.026448342240468003    0.023565917827008228    
  0.021073219935060502    0.018959200550985995    0.017199460217194273    0.015762713605072254    0.014617438726108604    
  0.013736223876707842    0.013096884782347348    0.012681821328054975    0.012477932702656468    0.012477932702656434    
  0.01268182132805494    0.013096884782347338    0.013736223876707783    0.014617438726108604    0.015762713605072278    
  0.017199460217194238    0.018959200550986034    0.02107321993506055    0.023565917827008263    0.02644834224046799    
  0.029713687877582575    0.03333448768484027    0.03725993223909008    0.041412279806321915    0.04568296459241078    
  0.04993054929548517    0.05398353344756789    0.057650740642456524    0.06073961725756246    0.0630784864028403    
  0.06453570203025398    0.06503043243854435    0.05417237949308152    0.05378926423544826    0.05266113020490129    
  0.05085055831148715    0.04845731084193207    0.04560942828473375    0.04245002787004725    0.03912271559044568    
  0.035759131921912886    0.032470802593710324    0.029345666013684938    0.026448342240468003    0.02382243588289988    
  0.02149309042647642    0.0194689653034359    0.017744286294083873    0.01630225028203813    0.015120075909739334    
  0.014174299315176817    0.013444302127325397    0.0129132883283942    0.012567847060082737    0.012397932482987335    
  0.01239793248298731    0.01256784706008275    0.012913288328394189    0.013444302127325385    0.014174299315176817    
  0.015120075909739275    0.016302250282038105    0.017744286294083932    0.019468965303435934    0.021493090426476454    
  0.02382243588289989    0.02644834224046798    0.02934566601368493    0.032470802593710324    0.03575913192191293    
  0.03912271559044568    0.04245002787004726    0.04560942828473369    0.04845731084193204    0.050850558311487146    
  0.05266113020490132    0.05378926423544825    0.05417237949308152    0.04501193991827887    0.04471821117491057    
  0.04385412309718777    0.04246896589931729    0.0406386396795582    0.0384576856223745    0.03603045637712651    
  0.03346262249287075    0.030853614977501838    0.028290449643322335    0.025843656440304088    0.023565917827008263    
  0.021493090426476513    0.019646335198393303    0.01803417762111906    0.016654377573877006    0.015496314346104368    
  0.014544295300609002    0.013781184025831814    0.01319118172203912    0.012761114198494126    0.012480647757516991    
  0.012342393516271127    0.01234239351627108    0.012480647757517015    0.012761114198494149    0.013191181722039072    
  0.013781184025831814    0.014544295300609002    0.015496314346104368    0.016654377573877017    0.018034177621119085    
  0.019646335198393303    0.021493090426476465    0.02356591782700824    0.025843656440304053    0.028290449643322346    
  0.030853614977501824    0.03346262249287078    0.03603045637712654    0.0384576856223745    0.04063863967955816    
  0.04246896589931724    0.043854123097187794    0.04471821117491056    0.04501193991827887    0.03740696879378127    
  0.03718421794981697    0.03652994929619521    0.035483401328136044    0.03410242273409925    0.03245612784505617    
  0.03061922932654364    0.028668040900049183    0.02667661250648927    0.024712107789106753    0.022830338128801232    
  0.02107321993506055    0.019468965303435958    0.01803417762111906    0.01677631158217198    0.015695559031630283    
  0.014786253971695192    0.0140383774035203    0.01343949420273149    0.012976917249547549    0.012639566723078923    
  0.012419080346862937    0.01231010918385805    0.012310109183857956    0.012419080346862912    0.012639566723078923    
  0.012976917249547526    0.01343949420273149    0.014038377403520323    0.014786253971695215    0.015695559031630297    
  0.016776311582172028    0.018034177621119085    0.019468965303435923    0.021073219935060526    0.022830338128801222    
  0.024712107789106742    0.02667661250648927    0.028668040900049218    0.03061922932654364    0.032456127845056165    
  0.034102422734099226    0.035483401328136    0.03652994929619521    0.037184217949816974    0.03740696879378127    
  0.031181673881683653    0.031015165736302922    0.03052701049890466    0.029748278288658878    0.02872273312786004    
  0.027500230072735447    0.026133301464734186    0.024676141255702153    0.023183178237784523    0.021705585193740218    
  0.020286758310499885    0.01895920055098608    0.017744286294083932    0.016654377573877017    0.01569555903163032    
  0.01486950973434676    0.014174135309793431    0.013603624607058266    0.013148974142225529    0.012799578670137719    
  0.01254552478214295    0.01237948694087438    0.012297299767442312    0.012297299767442288    0.012379486940874334    
  0.012545524782143021    0.012799578670137719    0.013148974142225529    0.013603624607058266    0.014174135309793385    
  0.014869509734346783    0.015695559031630297    0.01665437757387704    0.017744286294083943    0.018959200550986034    
  0.02028675831049984    0.021705585193740218    0.023183178237784548    0.024676141255702187    0.026133301464734197    
  0.027500230072735447    0.028722733127860015    0.029748278288658836    0.03052701049890466    0.031015165736302946    
  0.031181673881683653    0.02616170968241298    0.026039536100576927    0.02568202131886861    0.025113227918701218    
  0.024365678773340414    0.02347474826167795    0.022476776436702022    0.021409712734527377    0.020313039408978568    
  0.019225119073097378    0.018179032065178832    0.017199460217194238    0.016302250282038164    0.015496314346104332    
  0.014786253971695168    0.014174135309793338    0.013659778435040624    0.01324007870729555    0.0129086127574553    
  0.012656582055537508    0.012475028514486548    0.012357075417190097    0.012298838844708712    0.012298838844708712    
  0.012357075417190168    0.012475028514486548    0.012656582055537484    0.0129086127574553    0.013240078707295528    
  0.013659778435040577    0.014174135309793385    0.014786253971695168    0.015496314346104368    0.01630225028203818    
  0.01719946021719425    0.018179032065178832    0.019225119073097378    0.020313039408978585    0.02140971273452741    
  0.022476776436701998    0.023474748261677947    0.024365678773340425    0.025113227918701155    0.02568202131886861    
  0.026039536100576955    0.02616170968241298    0.022188347943536673    0.02210055776524051    0.021844048413106727    
  0.021436857118781277    0.020902618493682374    0.02026610964396347    0.019552267004792956    0.01878743990883036    
  0.01799987526902255    0.01721777512702185    0.0164658711750225    0.015762713605072268    0.015120075909739312    
  0.014544295300608967    0.014038377403520276    0.013603624607058195    0.013240078707295504    0.01294590350499606    
  0.012716634188420752    0.012545404010460011    0.012424484296801038    0.01234729676162586    0.012309631630665641    
  0.012309631630665641    0.012347296761625907    0.012424484296800991    0.012545404010460035    0.012716634188420776    
  0.01294590350499606    0.013240078707295504    0.01360362460705822    0.014038377403520276    0.01454429530060898    
  0.015120075909739322    0.015762713605072233    0.01646587117502245    0.01721777512702185    0.01799987526902255    
  0.018787439908830438    0.019552267004792977    0.02026610964396346    0.020902618493682346    0.02143685711878124    
  0.02184404841310673    0.022100557765240524    0.022188347943536673    0.019118835582862443    0.01905694930985314    
  0.018876295845912737    0.018589947645096562    0.018214807417673375    0.017768284397482847    0.01726767831237899    
  0.01673130903647952    0.016179094009883797    0.01563129833318539    0.01510609242862832    0.014617438726108592    
  0.014174299315176817    0.013781184025831814    0.01343949420273149    0.013148974142225482    0.01290861275745523    
  0.012716634188420799    0.01256986971861787    0.012463367668566577    0.01239094073459016    0.012346518109605065    
  0.012325501736820763    0.012325501736820716    0.012346518109605112    0.01239094073459016    0.012463367668566623    
  0.01256986971861787    0.012716634188420799    0.012908612757455253    0.013148974142225506    0.013439494202731514    
  0.01378118402583179    0.01417429931517684    0.014617438726108592    0.015106092428628285    0.01563129833318539    
  0.01617909400988382    0.016731309036479555    0.017267678312378996    0.017768284397482837    0.018214807417673375    
  0.018589947645096506    0.018876295845912727    0.019056949309853164    0.019118835582862443    0.01682530736159516    
  0.016782181771634364    0.01665631590343377    0.01645695495698507    0.016196222157764773    0.015886748052084013    
  0.015541017399331277    0.01517196327151955    0.014793430406119764    0.014419618503981893    0.014063681198143564    
  0.013736223876707795    0.01344430212732542    0.013191181722039095    0.012976917249547526    0.012799578670137719    
  0.012656582055537508    0.012545404010460011    0.012463367668566577    0.012406955541993968    0.012371506184496912    
  0.012351793407377151    0.012343259267835499    0.012343259267835499    0.012351793407377198    0.012371506184496865    
  0.012406955541993968    0.012463367668566577    0.012545404010460035    0.012656582055537508    0.012799578670137696    
  0.012976917249547549    0.013191181722039095    0.013444302127325431    0.013736223876707808    0.014063681198143527    
  0.014419618503981893    0.014793430406119789    0.01517196327151955    0.015541017399331277    0.015886748052084013    
  0.016196222157764773    0.01645695495698504    0.016656315903433753    0.01678218177163437    0.01682530736159516    
  0.015199078970614484    0.015168833680402005    0.015080505703944104    0.01494062152058556    0.014758164509406464    
  0.014542902176498146    0.014304468624120614    0.014052301927131413    0.013795955311483407    0.013545176978457588    
  0.013309427159601607    0.013096884782347372    0.012913288328394258    0.012761114198494196    0.012639566723078923    
  0.012545524782142927    0.012475028514486617    0.012424484296801132    0.01239094073459016    0.012371506184496865    
  0.012362652556859102    0.012360199346022949    0.012360191847731086    0.01236019184773104    0.012360199346022949    
  0.012362652556859055    0.012371506184496865    0.01239094073459016    0.012424484296801179    0.012475028514486642    
  0.012545524782142927    0.0126395667230789    0.01276111419849422    0.012913288328394258    0.013096884782347372    
  0.013309427159601548    0.013545176978457588    0.01379595531148342    0.01405230192713144    0.014304468624120591    
  0.01454290217649817    0.014758164509406455    0.014940621520585522    0.015080505703944069    0.015168833680402003    
  0.015199078970614484    0.014157842061609135    0.014135633590530298    0.014070698035130641    0.013967845340031962    
  0.01383420487202502    0.013677989755985595    0.013507274741345932    0.013329380010023666    0.013151070842900004    
  0.012979128739285776    0.012820533573813277    0.012681821328054928    0.012567847060082796    0.012480647757516944    
  0.012419080346862912    0.01237948694087431    0.012357075417190097    0.012347296761625907    0.012346518109605065    
  0.012351793407377151    0.012360199346022949    0.01236850642131012    0.012373631742817892    0.012373631742817892    
  0.01236850642131012    0.012360199346022949    0.012351793407377198    0.012346518109605065    0.01234729676162586    
  0.012357075417190097    0.012379486940874356    0.012419080346862937    0.012480647757517015    0.012567847060082819    
  0.012681821328054918    0.012820533573813207    0.012979128739285776    0.013151070842900021    0.013329380010023708    
  0.01350727474134594    0.013677989755985583    0.013834204872025024    0.01396784534003195    0.014070698035130629    
  0.014135633590530307    0.014157842061609135    0.013649356524132995    0.013631013792920806    0.013577323178802114    
  0.013492268917815976    0.013382128175891307    0.0132544409300701    0.013116594329501139    0.012974897558320916    
  0.012834728197982778    0.012701370873548317    0.012580543765346227    0.012477932702656446    0.012397932482987394    
  0.012342393516271127    0.012310109183858026    0.012297299767442194    0.012298838844708641    0.012309631630665735    
  0.012325501736820763    0.012343259267835499    0.01236019184773104    0.012373631742817892    0.012381123630539587    
  0.012381123630539587    0.012373631742817892    0.012360191847730946    0.012343259267835499    0.012325501736820763    
  0.012309631630665735    0.012298838844708618    0.012297299767442288    0.01231010918385805    0.012342393516271102    
  0.012397932482987357    0.012477932702656458    0.012580543765346158    0.01270137087354833    0.01283472819798279    
  0.012974897558320951    0.013116594329501121    0.013254440930070097    0.01338212817589129    0.013492268917815929    
  0.013577323178802128    0.013631013792920794    0.013649356524132995    0.013649356524132992    0.013631013792920808    
  0.013577323178802137    0.013492268917815964    0.013382128175891324    0.013254440930070086    0.013116594329501127    
  0.012974897558320904    0.012834728197982766    0.01270137087354833    0.012580543765346217    0.012477932702656434    
  0.012397932482987394    0.012342393516271102    0.012310109183857979    0.012297299767442219    0.012298838844708641    
  0.012309631630665735    0.012325501736820763    0.012343259267835499    0.012360191847730993    0.012373631742817892    
  0.012381123630539679    0.012381123630539632    0.012373631742817939    0.012360191847730993    0.012343259267835499    
  0.012325501736820763    0.012309631630665735    0.012298838844708618    0.012297299767442265    0.012310109183858026    
  0.01234239351627108    0.012397932482987357    0.012477932702656458    0.01258054376534618    0.01270137087354833    
  0.01283472819798279    0.012974897558320911    0.013116594329501127    0.013254440930070086    0.013382128175891336    
  0.013492268917815926    0.013577323178802126    0.013631013792920806    0.013649356524132992    0.014157842061609121    
  0.014135633590530295    0.014070698035130636    0.013967845340031976    0.013834204872025016    0.0136779897559856    
  0.01350727474134594    0.013329380010023666    0.013151070842899999    0.012979128739285776    0.012820533573813277    
  0.012681821328054928    0.012567847060082796    0.012480647757517015    0.01241908034686289    0.012379486940874334    
  0.012357075417190121    0.012347296761626    0.012346518109605159    0.012351793407377198    0.012360199346022949    
  0.012368506421310073    0.012373631742817892    0.012373631742817892    0.01236850642131012    0.012360199346022949    
  0.012351793407377245    0.012346518109605112    0.012347296761626    0.012357075417190144    0.012379486940874403    
  0.012419080346862912    0.012480647757517015    0.012567847060082796    0.012681821328054928    0.012820533573813242    
  0.012979128739285776    0.013151070842900034    0.013329380010023695    0.013507274741345974    0.013677989755985588    
  0.013834204872025004    0.013967845340031919    0.014070698035130638    0.01413563359053029    0.014157842061609121    
  0.015199078970614482    0.015168833680402005    0.015080505703944083    0.014940621520585564    0.014758164509406464    
  0.014542902176498174    0.014304468624120626    0.014052301927131436    0.013795955311483431    0.013545176978457599    
  0.013309427159601617    0.013096884782347372    0.01291328832839427    0.012761114198494196    0.012639566723078853    
  0.012545524782142927    0.012475028514486548    0.012424484296801132    0.012390940734590067    0.012371506184496959    
  0.012362652556859102    0.012360199346022902    0.012360191847731086    0.01236019184773104    0.012360199346022949    
  0.012362652556859055    0.012371506184496912    0.012390940734590067    0.012424484296801132    0.012475028514486595    
  0.01254552478214295    0.0126395667230789    0.012761114198494196    0.012913288328394282    0.013096884782347384    
  0.013309427159601536    0.013545176978457599    0.013795955311483461    0.01405230192713146    0.014304468624120614    
  0.014542902176498156    0.014758164509406438    0.014940621520585525    0.015080505703944065    0.015168833680402031    
  0.015199078970614482    0.01682530736159516    0.016782181771634402    0.016656315903433767    0.01645695495698508    
  0.016196222157764784    0.015886748052083996    0.015541017399331265    0.01517196327151955    0.014793430406119771    