#     DFTpy    
  CRYSTAL 
    
  PRIMVEC    
  4.38596082738685    -2.4097000000000005e-10    4.5675000000000005e-10    
  -2.4097000000000005e-10    4.385960827131991    2.2008000000000006e-10    
  8.346500000000002e-10    4.0224000000000005e-10    8.035165238464073    
  PRIMCOORD    
  4    1    
  Si    2.1929804136098605    2.1929804147728604    2.4691600718142106    
  Si    8.132100000000002e-10    -7.526200000000002e-10    1.5484225447167903    
  Si    1.2473000000000002e-10    5.684100000000001e-10    6.4867426891896605    
  Si    2.1929804142673706    2.1929804131068504    5.566005171884301    
  BEGIN_BLOCK_DATAGRID_3D    
  3d_datagrid_density    
  BEGIN_DATAGRID_3D#0    
  46    46    76    
  0.0    0.0    0.0    
  4.385960843746568    -2.409700008988227e-10    4.5675000170368626e-10    
  -2.409700008988227e-10    4.385960843491709    2.2008000082090265e-10    
  8.346500031132606e-10    4.0224000150036294e-10    8.035165268435392    
  0.19386538690162664    0.19172126015952748    0.18544737112884113    0.17550848573721167    0.16263164758525303    
  0.14771394745608243    0.1316965713606202    0.1154472208368462    0.09968570338046341    0.08495552969328521    
  0.0716225807054134    0.059885445857159325    0.04979581939602834    0.041291975293647296    0.03424158528469543    
  0.02848268703394305    0.023851996151708917    0.020197536628571457    0.017381266417554057    0.01528044247605184    
  0.01379231418749041    0.012840053513027725    0.01237518247713694    0.012375182477136936    0.01284005351302767    
  0.01379231418749041    0.01528044247605181    0.017381266417554057    0.02019753662857149    0.02385199615170887    
  0.028482687033943094    0.03424158528469544    0.04129197529364728    0.04979581939602833    0.059885445857159325    
  0.07162258070541336    0.08495552969328521    0.09968570338046345    0.11544722083684619    0.13169657136062013    
  0.1477139474560824    0.162631647585253    0.17550848573721173    0.18544737112884124    0.19172126015952756    
  0.19386538690162664    0.1917212601595276    0.1896055929284741    0.18341486310636096    0.17360734010443016    
  0.16089993166054167    0.14617723160366553    0.13036723378221352    0.11432525578611656    0.09876055354280408    
  0.0842085907712489    0.07103023243614172    0.05942234663229426    0.049437867204767186    0.04101824088306247    
  0.03403489730499837    0.028329154433414758    0.023740145557584955    0.02011767126698025    0.01732523463697819    
  0.015241598452446912    0.013765356606262331    0.01282063680688251    0.01235945418035886    0.012359454180358848    
  0.012820636806882465    0.013765356606262356    0.015241598452446867    0.01732523463697818    0.020117671266980296    
  0.02374014555758492    0.028329154433414768    0.03403489730499836    0.04101824088306247    0.04943786720476718    
  0.059422346632294294    0.07103023243614172    0.0842085907712489    0.0987605535428041    0.11432525578611656    
  0.1303672337822135    0.14617723160366553    0.16089993166054165    0.17360734010443019    0.18341486310636107    
  0.18960559292847412    0.1917212601595276    0.1854473711288412    0.183414863106361    0.1774671554959412    
  0.1680435619741996    0.1558312948554704    0.14167825211412577    0.1264737525864975    0.11103702880894673    
  0.09604685906568129    0.08201562503627104    0.06928978953838652    0.05806112205003773    0.04838583867079476    
  0.04021423566789554    0.03342840713522432    0.027879127061695298    0.023412620316850322    0.01988397731876542    
  0.017161316624602414    0.015127880695358373    0.013686260587740065    0.01276344567989458    0.01231295585987478    
  0.012312955859874745    0.012763445679894531    0.01368626058774009    0.015127880695358356    0.017161316624602414    
  0.019883977318765452    0.023412620316850333    0.027879127061695323    0.03342840713522431    0.04021423566789553    
  0.04838583867079475    0.05806112205003779    0.06928978953838653    0.08201562503627104    0.09604685906568129    
  0.11103702880894668    0.12647375258649746    0.14167825211412577    0.15583129485547037    0.1680435619741996    
  0.17746715549594128    0.18341486310636101    0.1854473711288412    0.17550848573721167    0.17360734010443005    
  0.1680435619741995    0.15922650850092823    0.14779621195421386    0.1345421385988584    0.12029227031520144    
  0.10580924951561711    0.09172479725812728    0.07851608667148567    0.06650754563650192    0.0558826680352978    
  0.04670185125368088    0.038928127506505456    0.032459492486516243    0.027161253355702845    0.02289088768861128    
  0.01951210280941454    0.01690057713746928    0.014946838212661115    0.013559966715208331    0.012671648677583875    
  0.012237945483452846    0.012237945483452878    0.012671648677583858    0.01355996671520834    0.01494683821266109    
  0.016900577137469276    0.019512102809414605    0.022890887688611257    0.027161253355702866    0.032459492486516243    
  0.03892812750650547    0.04670185125368088    0.05588266803529785    0.06650754563650195    0.07851608667148567    
  0.0917247972581273    0.10580924951561708    0.12029227031520141    0.13454213859885833    0.14779621195421383    
  0.15922650850092823    0.1680435619741996    0.1736073401044301    0.17550848573721167    0.16263164758525298    
  0.1608999316605416    0.15583129485547031    0.14779621195421389    0.1373733083659308    0.1252760582958675    
  0.11225324251360375    0.09899549614655132    0.08607580338277411    0.07392801665581336    0.06284927722298604    
  0.05301197572398634    0.04448017266756394    0.037231185021144496    0.031181862412275847    0.026215505155422685    
  0.022204123544537727    0.019022918805083538    0.016557714610786114    0.014708722811707174    0.013393619802042714    
  0.012550374562726141    0.01213854275064896    0.012138542750648943    0.012550374562726094    0.013393619802042725    
  0.014708722811707183    0.016557714610786117    0.019022918805083583    0.022204123544537678    0.02621550515542271    
  0.03118186241227583    0.03723118502114449    0.04448017266756393    0.05301197572398636    0.06284927722298604    
  0.07392801665581339    0.08607580338277417    0.09899549614655132    0.11225324251360375    0.12527605829586744    
  0.13737330836593084    0.1477962119542139    0.15583129485547037    0.16089993166054162    0.16263164758525298    
  0.14771394745608235    0.14617723160366544    0.14167825211412577    0.1345421385988584    0.12527605829586752    
  0.11450551269857567    0.10288850262579949    0.09103441778572532    0.07945122871637329    0.06852547190251122    
  0.058524170452444006    0.04960630064302099    0.04183789873324407    0.03520994705161765    0.029658805085005183    
  0.025087430534085766    0.021384498213286196    0.01843884163118384    0.016148371161055535    0.014424695423608094    
  0.013195536199843401    0.012406246049136307    0.012020568610874912    0.01202056861087493    0.012406246049136264    
  0.013195536199843417    0.014424695423608103    0.01614837116105553    0.01843884163118387    0.02138449821328619    
  0.0250874305340858    0.029658805085005145    0.03520994705161762    0.04183789873324408    0.049606300643021004    
  0.05852417045244397    0.06852547190251122    0.07945122871637335    0.09103441778572531    0.10288850262579949    
  0.11450551269857565    0.12527605829586747    0.13454213859885839    0.1416782521141258    0.14617723160366553    
  0.14771394745608235    0.13169657136062016    0.13036723378221346    0.12647375258649748    0.12029227031520141    
  0.11225324251360375    0.10288850262579946    0.09276040565358734    0.08239389551127625    0.07223038959156206    
  0.06260843796989185    0.0537640998123054    0.04584130387137665    0.03890582668207442    0.03296025052148705    
  0.0279593135508384    0.023825687426346304    0.020465635855842275    0.01778285021389224    0.015688426604890178    
  0.014106203255859633    0.012974557123443944    0.012246675243093972    0.011890799186851353    0.011890799186851353    
  0.012246675243093955    0.01297455712344395    0.014106203255859628    0.01568842660489018    0.017782850213892292    
  0.020465635855842233    0.023825687426346342    0.02795931355083839    0.03296025052148705    0.038905826682074436    
  0.04584130387137668    0.05376409981230539    0.06260843796989185    0.07223038959156206    0.08239389551127628    
  0.0927604056535873    0.10288850262579946    0.11225324251360375    0.12029227031520141    0.12647375258649746    
  0.13036723378221352    0.13169657136062016    0.11544722083684619    0.11432525578611662    0.11103702880894673    
  0.10580924951561711    0.09899549614655138    0.09103441778572532    0.0823938955112763    0.07351607643924653    
  0.06477760689042962    0.056470485636118166    0.04880031084079709    0.04189510733528592    0.03581827865768091    
  0.03058136298941042    0.02615526936960076    0.022481228235905617    0.019482938953229806    0.01707926498586147    
  0.015194723437713295    0.013765327427256087    0.012739884464784157    0.012079232785623048    0.011756059709627557    
  0.011756059709627568    0.01207923278562303    0.01273988446478417    0.013765327427256087    0.015194723437713295    
  0.017079264985861493    0.019482938953229806    0.022481228235905627    0.026155269369600727    0.030581362989410426    
  0.03581827865768091    0.04189510733528594    0.04880031084079707    0.056470485636118166    0.06477760689042962    
  0.07351607643924651    0.08239389551127628    0.09103441778572527    0.09899549614655138    0.10580924951561711    
  0.11103702880894675    0.11432525578611663    0.11544722083684619    0.09968570338046341    0.09876055354280402    
  0.09604685906568126    0.09172479725812732    0.08607580338277414    0.07945122871637327    0.07223038959156208    
  0.06477760689042959    0.05740843936603258    0.05037081457987228    0.04384116555413144    0.03793151204360233    
  0.032701296239340795    0.028168387806826335    0.024317134477672822    0.021105333557687827    0.018473102209939123    
  0.016354022379162194    0.014685552907724848    0.013415115364274253    0.012501080283700403    0.011911308107769886    
  0.011622676574077409    0.011622676574077414    0.011911308107769868    0.01250108028370044    0.013415115364274265    
  0.014685552907724848    0.016354022379162222    0.018473102209939116    0.021105333557687858    0.02431713447767279    
  0.02816838780682633    0.03270129623934079    0.03793151204360236    0.04384116555413143    0.05037081457987228    
  0.057408439366032585    0.0647776068904296    0.07223038959156207    0.07945122871637327    0.08607580338277414    
  0.0917247972581273    0.09604685906568129    0.09876055354280408    0.09968570338046341    0.08495552969328526    
  0.0842085907712488    0.08201562503627104    0.07851608667148571    0.07392801665581339    0.0685254719025113    
  0.06260843796989186    0.05647048563611813    0.050370814579872254    0.04451627483871861    0.039055910867428184    
  0.034086245443854184    0.029661718619706602    0.025804099647945784    0.02250816932737938    0.0197457135063432    
  0.017471605452058062    0.015633137681597124    0.014179754728803753    0.013069075045156699    0.012267794311937936    
  0.011749967378879666    0.011496394668567493    0.011496394668567493    0.011749967378879636    0.012267794311937946    
  0.013069075045156699    0.014179754728803753    0.01563313768159718    0.01747160545205808    0.019745713506343243    
  0.022508169327379344    0.02580409964794579    0.02966171861970661    0.034086245443854205    0.03905591086742815    
  0.04451627483871861    0.05037081457987227    0.05647048563611816    0.06260843796989189    0.06852547190251128    
  0.07392801665581336    0.07851608667148569    0.08201562503627106    0.08420859077124887    0.08495552969328526    
  0.07162258070541334    0.0710302324361417    0.06928978953838658    0.06650754563650198    0.06284927722298607    
  0.05852417045244402    0.05376409981230539    0.048800310840797056    0.04384116555413144    0.03905591086742822    
  0.03456838068970932    0.030460520675611728    0.0267810701114878    0.023553386847034844    0.020779507569519153    
  0.018442248370378816    0.01650915612563814    0.01493987997854539    0.013694631173697987    0.012739802460686485    
  0.012049034950036392    0.011601730029271683    0.011382437331660304    0.011382437331660339    0.011601730029271694    
  0.012049034950036404    0.012739802460686497    0.013694631173697987    0.014939879978545402    0.016509156125638115    
  0.01844224837037884    0.020779507569519146    0.02355338684703486    0.02678107011148781    0.030460520675611762    
  0.03456838068970932    0.039055910867428226    0.04384116555413145    0.048800310840797056    0.05376409981230538    
  0.058524170452444    0.06284927722298606    0.06650754563650195    0.06928978953838656    0.07103023243614175    
  0.07162258070541334    0.05988544585715936    0.05942234663229425    0.05806112205003777    0.0558826680352979    
  0.053011975723986395    0.04960630064302099    0.045841303871376644    0.04189510733528593    0.037931512043602324    
  0.034086245443854225    0.03046052067561174    0.027122885344035206    0.024115863540720768    0.021462224664875056    
  0.01916812676215977    0.017224370700162594    0.01560890538759026    0.01429217317340954    0.013243775036578143    
  0.012437373934324845    0.011852164196219579    0.011472086375395641    0.011285333103386452    0.011285333103386476    
  0.011472086375395653    0.011852164196219601    0.012437373934324845    0.013243775036578143    0.014292173173409587    
  0.01560890538759025    0.017224370700162594    0.01916812676215977    0.02146222466487509    0.024115863540720768    
  0.027122885344035248    0.030460520675611717    0.034086245443854225    0.037931512043602365    0.041895107335285946    
  0.045841303871376665    0.04960630064302097    0.053011975723986395    0.05588266803529783    0.05806112205003777    
  0.05942234663229429    0.05988544585715936    0.0497958193960283    0.04943786720476715    0.048385838670794774    
  0.04670185125368088    0.04448017266756391    0.041837898733244054    0.038905826682074394    0.0358182786576809    
  0.0327012962393408    0.029661718619706595    0.0267810701114878    0.024115863540720768    0.021702124899137185    
  0.01956025422875326    0.017697852533903033    0.016110955015012918    0.014785659397328598    0.01370147385413837    
  0.012835863581535573    0.012168236439442882    0.01168200306050679    0.011364848618130549    0.011208430953692882    
  0.011208430953692904    0.01136484861813049    0.0116820030605068    0.012168236439442882    0.012835863581535573    
  0.013701473854138394    0.014785659397328598    0.016110955015012907    0.017697852533902998    0.01956025422875328    
  0.02170212489913721    0.024115863540720758    0.02678107011148775    0.029661718619706595    0.0327012962393408    
  0.035818278657680926    0.03890582668207439    0.041837898733244    0.044480172667563884    0.04670185125368083    
  0.0483858386707948    0.04943786720476715    0.0497958193960283    0.041291975293647316    0.0410182408830625    
  0.04021423566789558    0.03892812750650546    0.037231185021144544    0.03520994705161765    0.03296025052148705    
  0.030581362989410468    0.02816838780682635    0.025804099647945798    0.023553386847034844    0.0214622246648751    
  0.019560254228753234    0.017864473534560537    0.016382116491739644    0.015112308910521758    0.014047196525828226    
  0.013173481872631511    0.012474855694139428    0.011935026503232646    0.011540423134609358    0.011281638842380067    
  0.011153356544285052    0.0111533565442851    0.011281638842379997    0.011540423134609382    0.011935026503232646    
  0.012474855694139428    0.013173481872631558    0.014047196525828157    0.015112308910521746    0.016382116491739644    
  0.017864473534560547    0.01956025422875327    0.021462224664875115    0.023553386847034834    0.025804099647945798    
  0.028168387806826366    0.030581362989410468    0.032960250521487065    0.035209947051617584    0.03723118502114452    
  0.03892812750650546    0.04021423566789558    0.04101824088306248    0.041291975293647316    0.03424158528469546    
  0.03403489730499834    0.03342840713522432    0.03245949248651625    0.03118186241227588    0.029658805085005156    
  0.0279593135508384    0.02615526936960074    0.024317134477672815    0.02250816932737938    0.02077950756951919    
  0.01916812676215976    0.017697852533902998    0.016382116491739644    0.015226946578597139    0.014233082061771695    
  0.013396816944121145    0.012710129001635876    0.012161356920486182    0.011737353288465665    0.011426638224612594    
  0.011221811382569832    0.011119730931955086    0.01111973093195511    0.011221811382569785    0.011426638224612594    
  0.011737353288465641    0.012161356920486182    0.012710129001635923    0.013396816944121155    0.01423308206177166    
  0.015226946578597139    0.01638211649173963    0.017697852533903012    0.01916812676215982    0.02077950756951914    
  0.02250816932737938    0.024317134477672815    0.02615526936960074    0.02795931355083839    0.029658805085005104    
  0.031181862412275857    0.03245949248651625    0.03342840713522433    0.034034897304998334    0.03424158528469546    
  0.028482687033943084    0.028329154433414775    0.02787912706169534    0.027161253355702866    0.026215505155422692    
  0.02508743053408581    0.023825687426346318    0.02248122823590564    0.02110533355768785    0.019745713506343226    
  0.018442248370378826    0.017224370700162594    0.016110955015012918    0.015112308910521793    0.014233082061771695    
  0.013474613410640749    0.012835650908155149    0.012311672560691904    0.011894408164058241    0.011573196900965995    
  0.011338117288618778    0.01118286867795351    0.01110525949167956    0.011105259491679582    0.011182868677953487    
  0.011338117288618825    0.011573196900965995    0.011894408164058241    0.01231167256069195    0.012835650908155173    
  0.013474613410640726    0.014233082061771672    0.015112308910521793    0.016110955015012952    0.017224370700162583    
  0.01844224837037878    0.019745713506343226    0.021105333557687865    0.022481228235905645    0.023825687426346304    
  0.02508743053408576    0.02621550515542268    0.027161253355702873    0.027879127061695364    0.028329154433414792    
  0.028482687033943084    0.023851996151708896    0.023740145557584937    0.023412620316850378    0.022890887688611264    
  0.02220412354453776    0.021384498213286137    0.020465635855842216    0.019482938953229834    0.018473102209939123    
  0.01747160545205808    0.016509156125638105    0.015608905387590284    0.01478565939732854    0.014047196525828145    
  0.013396816944121145    0.012835650908155126    0.012363438227087258    0.011977703768768883    0.011672753058228536    
  0.011440248856615754    0.01127168997932046    0.011161133663338102    0.01110606369464527    0.011106063694645316    
  0.011161133663338126    0.011271689979320484    0.011440248856615777    0.011672753058228536    0.01197770376876893    
  0.012363438227087188    0.012835650908155102    0.013396816944121145    0.01404719652582818    0.01478565939732854    
  0.015608905387590284    0.016509156125638066    0.01747160545205808    0.018473102209939134    0.01948293895322985    
  0.02046563585584222    0.021384498213286113    0.022204123544537747    0.02289088768861128    0.023412620316850374    
  0.023740145557584916    0.023851996151708896    0.02019753662857145    0.020117671266980264    0.019883977318765445    
  0.01951210280941455    0.019022918805083527    0.01843884163118381    0.01778285021389225    0.017079264985861504    
  0.01635402237916221    0.01563313768159716    0.014939879978545425    0.0142921731734096    0.013701473854138406    
  0.013173481872631511    0.012710129001635876    0.012311672560691926    0.011977703768768977    0.01170669721953377    
  0.011494968840793467    0.01133649601398596    0.011224271791632068    0.011152360187261075    0.011117139567247912    
  0.011117139567247865    0.011152360187261075    0.011224271791632068    0.01133649601398596    0.011494968840793443    
  0.01170669721953384    0.011977703768768977    0.012311672560691926    0.012710129001635876    0.01317348187263157    
  0.013701473854138406    0.0142921731734096    0.014939879978545402    0.01563313768159716    0.016354022379162204    
  0.017079264985861497    0.017782850213892257    0.018438841631183773    0.019022918805083496    0.01951210280941448    
  0.01988397731876546    0.020117671266980244    0.02019753662857145    0.017381266417554057    0.017325234636978153    
  0.01716131662460238    0.01690057713746925    0.016557714610786083    0.016148371161055494    0.015688426604890147    
  0.015194723437713312    0.014685552907724808    0.014179754728803742    0.013694631173697965    0.013243775036578096    
  0.01283586358153556    0.012474855694139392    0.012161356920486182    0.011894408164058241    0.011672753058228489    
  0.01149496884079335    0.011358682002230534    0.011259837452368223    0.011192921888530615    0.011152175575876729    
  0.011133028075512573    0.011133028075512573    0.011152175575876729    0.011192921888530709    0.011259837452368223    
  0.011358682002230534    0.011494968840793396    0.011672753058228513    0.011894408164058241    0.01216135692048616    
  0.012474855694139416    0.012835863581535585    0.01324377503657813    0.01369463117369793    0.014179754728803742    
  0.01468555290772483    0.015194723437713324    0.015688426604890154    0.01614837116105544    0.016557714610786065    
  0.01690057713746922    0.017161316624602397    0.017325234636978135    0.017381266417554057    0.015280442476051852    
  0.015241598452446905    0.015127880695358349    0.014946838212661108    0.014708722811707186    0.01442469542360808    
  0.014106203255859623    0.013765327427256082    0.013415115364274229    0.01306907504515671    0.012739802460686485    
  0.012437373934324845    0.01216823643944286    0.011935026503232624    0.011737353288465665    0.011573196900966042    
  0.011440248856615823    0.01133649601398596    0.011259837452368223    0.01120726537894154    0.01117448824248423    
  0.011156492396973609    0.01114880667213839    0.01114880667213839    0.011156492396973562    0.011174488242484277    
  0.01120726537894154    0.011259837452368223    0.011336496013985937    0.011440248856615823    0.011573196900966018    
  0.011737353288465618    0.011935026503232624    0.012168236439442882    0.012437373934324869    0.012739802460686463    
  0.013069075045156716    0.013415115364274253    0.013765327427256105    0.014106203255859628    0.01442469542360801    
  0.014708722811707146    0.014946838212661042    0.015127880695358375    0.015241598452446884    0.015280442476051852    
  0.013792314187490414    0.013765356606262304    0.013686260587740078    0.013559966715208345    0.013393619802042744    
  0.013195536199843353    0.012974557123443916    0.012739884464784187    0.012501080283700393    0.012267794311937929    
  0.012049034950036404    0.011852164196219626    0.011682003060506778    0.011540423134609335    0.011426638224612571    
  0.011338117288618802    0.011271689979320553    0.011224271791632115    0.011192921888530662    0.01117448824248423    
  0.011165402749808732    0.011161986279787536    0.011161156412267677    0.011161156412267677    0.011161986279787536    
  0.011165402749808732    0.011174488242484184    0.011192921888530662    0.011224271791632115    0.01127168997932053    
  0.01133811728861885    0.011426638224612547    0.011540423134609358    0.0116820030605068    0.011852164196219614    
  0.012049034950036345    0.012267794311937929    0.012501080283700427    0.01273988446478421    0.012974557123443921    
  0.013195536199843306    0.013393619802042725    0.013559966715208309    0.013686260587740065    0.013765356606262304    
  0.013792314187490414    0.01284005351302772    0.01282063680688251    0.01276344567989458    0.01267164867758386    
  0.012550374562726127    0.012406246049136292    0.01224667524309392    0.012079232785623048    0.011911308107769868    
  0.011749967378879613    0.011601730029271694    0.011472086375395618    0.011364848618130467    0.01128163884238002    
  0.011221811382569832    0.011182868677953463    0.011161133663338173    0.011152360187261075    0.011152175575876729    
  0.011156492396973562    0.011161986279787536    0.011166468592753458    0.011168876005813356    0.01116887600581331    
  0.011166468592753505    0.011161986279787582    0.011156492396973609    0.011152175575876729    0.011152360187261075    
  0.011161133663338173    0.011182868677953463    0.011221811382569832    0.011281638842379997    0.011364848618130478    
  0.011472086375395641    0.011601730029271624    0.011749967378879613    0.01191130810776991    0.01207923278562309    
  0.012246675243093915    0.012406246049136234    0.0125503745627261    0.012671648677583807    0.012763445679894587    
  0.012820636806882457    0.01284005351302772    0.01237518247713697    0.012359454180358826    0.01231295585987477    
  0.012237945483452854    0.012138542750648974    0.012020568610874896    0.01189079918685137    0.011756059709627597    
  0.011622676574077397    0.011496394668567516    0.01138243733166035    0.011285333103386511    0.011208430953692882    
  0.0111533565442851    0.01111973093195511    0.01110525949167956    0.011106063694645316    0.011117139567247865    
  0.011133028075512665    0.01114880667213839    0.011161156412267677    0.011168876005813356    0.01117236796800305    
  0.011172367968003097    0.01116887600581331    0.011161156412267677    0.011148806672138344    0.011133028075512712    
  0.011117139567247912    0.011106063694645363    0.011105259491679582    0.011119730931955063    0.011153356544285146    
  0.011208430953692929    0.011285333103386499    0.011382437331660304    0.011496394668567516    0.011622676574077432    
  0.011756059709627627    0.011890799186851346    0.012020568610874836    0.012138542750648934    0.012237945483452814    
  0.012312955859874809    0.01235945418035881    0.01237518247713697    0.012375182477136966    0.012359454180358845    
  0.01231295585987476    0.012237945483452854    0.012138542750648972    0.012020568610874874    0.011890799186851358    
  0.011756059709627622    0.011622676574077404    0.011496394668567505    0.01138243733166035    0.011285333103386511    
  0.011208430953692882    0.0111533565442851    0.011119730931955063    0.011105259491679535    0.011106063694645292    
  0.011117139567247865    0.011133028075512618    0.01114880667213839    0.011161156412267677    0.011168876005813403    
  0.011172367968003097    0.01117236796800305    0.01116887600581331    0.011161156412267724    0.01114880667213839    
  0.011133028075512618    0.011117139567247865    0.011106063694645316    0.011105259491679535    0.011119730931955016    
  0.011153356544285146    0.011208430953692929    0.011285333103386499    0.011382437331660304    0.011496394668567505    
  0.011622676574077421    0.011756059709627622    0.01189079918685134    0.012020568610874815    0.012138542750648936    
  0.01223794548345282    0.012312955859874786    0.012359454180358817    0.012375182477136966    0.012840053513027694    
  0.012820636806882507    0.01276344567989458    0.01267164867758387    0.012550374562726094    0.012406246049136298    
  0.01224667524309392    0.012079232785623048    0.01191130810776988    0.011749967378879613    0.011601730029271671    
  0.01147208637539563    0.011364848618130455    0.01128163884238002    0.011221811382569856    0.011182868677953463    
  0.011161133663338126    0.011152360187261028    0.011152175575876729    0.011156492396973609    0.011161986279787536    
  0.011166468592753505    0.01116887600581331    0.01116887600581331    0.011166468592753458    0.011161986279787582    
  0.011156492396973562    0.011152175575876729    0.011152360187261075    0.011161133663338242    0.011182868677953463    
  0.011221811382569785    0.01128163884238002    0.011364848618130478    0.01147208637539563    0.011601730029271659    
  0.011749967378879601    0.011911308107769886    0.012079232785623072    0.012246675243093908    0.012406246049136234    
  0.01255037456272607    0.012671648677583802    0.01276344567989458    0.012820636806882446    0.012840053513027694    
  0.013792314187490407    0.013765356606262309    0.013686260587740074    0.013559966715208323    0.013393619802042747    
  0.013195536199843379    0.012974557123443916    0.01273988446478417    0.012501080283700386    0.012267794311937946    
  0.012049034950036381    0.011852164196219638    0.011682003060506754    0.011540423134609335    0.011426638224612594    
  0.011338117288618802    0.01127168997932053    0.011224271791632068    0.011192921888530662    0.011174488242484184    
  0.011165402749808732    0.011161986279787536    0.011161156412267677    0.011161156412267677    0.011161986279787489    
  0.011165402749808779    0.01117448824248423    0.011192921888530662    0.011224271791632162    0.011271689979320506    
  0.01133811728861885    0.011426638224612547    0.011540423134609358    0.0116820030605068    0.011852164196219614    
  0.012049034950036357    0.012267794311937946    0.012501080283700432    0.012739884464784192    0.012974557123443904    
  0.01319553619984334    0.013393619802042697    0.01355996671520828    0.013686260587740069    0.013765356606262304    
  0.013792314187490407    0.01528044247605184    0.015241598452446912    0.015127880695358364    0.014946838212661094    