#     DFTpy    
  CRYSTAL 
    
  PRIMVEC    
  3.559287582434351    -1.9555000000000006e-10    3.706600000000001e-10    
  -1.9555000000000006e-10    3.5592875822275305    1.7860000000000006e-10    
  6.773300000000001e-10    3.2643000000000003e-10    6.520683832261421    
  PRIMCOORD    
  4    1    
  Si    1.7796437911493705    1.7796437920931605    2.0037686446659806    
  Si    6.599400000000001e-10    -6.107600000000002e-10    1.2565732692727902    
  Si    1.0122000000000003e-10    4.6127000000000005e-10    5.264110559290041    
  Si    1.7796437916829406    1.7796437907411604    4.516915191843282    
  BEGIN_BLOCK_DATAGRID_3D    
  3d_datagrid_density    
  BEGIN_DATAGRID_3D#0    
  37    37    65    
  0.0    0.0    0.0    
  3.559287595710561    -1.955500007294053e-10    3.7066000138256895e-10    
  -1.955500007294053e-10    3.5592875955037413    1.7860000066618144e-10    
  6.77330002526454e-10    3.264300012175902e-10    6.520683856583696    
  0.4453649702891155    0.4390464970168043    0.4208050337819064    0.3925799570470446    0.35705581053699254    
  0.3171594556062824    0.2756925224113834    0.23508960014174596    0.19724202131410404    0.16339307974181555    
  0.13415481998870488    0.10964613748942018    0.08967545765192723    0.07388427139828642    0.06183078935668281    
  0.053048194245938395    0.04710747402668752    0.04367697852937201    0.04255551400752653    0.04367697852937203    
  0.04710747402668752    0.05304819424593838    0.06183078935668281    0.07388427139828643    0.08967545765192723    
  0.10964613748942013    0.13415481998870488    0.1633930797418155    0.19724202131410404    0.23508960014174596    
  0.2756925224113834    0.31715945560628234    0.35705581053699254    0.3925799570470446    0.4208050337819064    
  0.4390464970168043    0.4453649702891155    0.4390464970168043    0.43283997025451915    0.41492059640813217    
  0.3871901236455134    0.35228059881339696    0.3130618828221466    0.2722825866846295    0.23233389261954837    
  0.19507649090547421    0.16173668290745707    0.132921636655427    0.10875396675578088    0.08905035724612692    
  0.07346209272570442    0.061557277747737574    0.052878534282078796    0.047005271827311665    0.043612465867762726    
  0.04250309416774647    0.04361246586776273    0.04700527182731165    0.052878534282078817    0.061557277747737574    
  0.07346209272570445    0.08905035724612693    0.10875396675578093    0.132921636655427    0.16173668290745702    
  0.19507649090547421    0.2323338926195483    0.27228258668462946    0.3130618828221466    0.352280598813397    
  0.3871901236455134    0.41492059640813217    0.43283997025451915    0.4390464970168043    0.4208050337819065    
  0.41492059640813217    0.3979277161471233    0.3716195338108373    0.33847712806798774    0.30120705916147483    
  0.2624063967495956    0.22434223941482698    0.18878743560995176    0.1569192218139694    0.12933015190730798    
  0.10615264523514119    0.08722611977611681    0.07222917273829135    0.0607579244924085    0.05238214684165231    
  0.04670571584097142    0.04342291077370765    0.04234884143123328    0.043422910773707635    0.046705715840971426    
  0.05238214684165232    0.0607579244924085    0.07222917273829133    0.08722611977611684    0.10615264523514122    
  0.12933015190730798    0.1569192218139694    0.18878743560995176    0.22434223941482698    0.2624063967495956    
  0.3012070591614748    0.33847712806798774    0.3716195338108373    0.3979277161471233    0.4149205964081322    
  0.4208050337819065    0.3925799570470446    0.3871901236455134    0.37161953381083734    0.3474939820046115    
  0.31706338840709547    0.28278579838172396    0.2470283275806692    0.2118693621158505    0.17894712659775563    
  0.14936242236030983    0.12368334172816023    0.10205474232130615    0.0843481903649036    0.07028202274856955    
  0.0594943236411797    0.05159664103644582    0.04623108412671224    0.043122181722135125    0.042103963111260696    
  0.04312218172213514    0.04623108412671224    0.05159664103644583    0.0594943236411797    0.07028202274856955    
  0.0843481903649036    0.10205474232130617    0.12368334172816023    0.1493624223603098    0.17894712659775563    
  0.21186936211585045    0.2470283275806692    0.2827857983817239    0.31706338840709547    0.3474939820046115    
  0.37161953381083734    0.3871901236455134    0.3925799570470446    0.35705581053699254    0.3522805988133971    
  0.33847712806798774    0.31706338840709547    0.29000433423691124    0.25945354941543075    0.22749665557119408    
  0.1959793888705899    0.1663715099000808    0.1396755542235046    0.11642496785982824    0.09677554923590692    
  0.0806346423113958    0.06776697109942216    0.05786155736175235    0.050582232369375826    0.0456196373726737    
  0.04273666452904327    0.041791118026891456    0.0427366645290433    0.0456196373726737    0.05058223236937584    
  0.05786155736175235    0.06776697109942216    0.0806346423113958    0.09677554923590694    0.11642496785982824    
  0.13967555422350464    0.1663715099000808    0.19597938887058985    0.22749665557119408    0.2594535494154307    
  0.29000433423691124    0.31706338840709547    0.33847712806798774    0.3522805988133971    0.35705581053699254    
  0.3171594556062824    0.3130618828221466    0.3012070591614748    0.28278579838172396    0.2594535494154307    
  0.2330345842655521    0.20530901189441245    0.17786665676797528    0.151987744127295    0.1285601982574648    
  0.10807255567454044    0.09068665342680986    0.07634455026666229    0.0648592261574427    0.055975030404315416    
  0.04941409058497933    0.04492157974423928    0.04230321955753849    0.04144300346024295    0.04230321955753849    
  0.04492157974423926    0.049414090584979344    0.055975030404315416    0.06485922615744272    0.07634455026666229    
  0.09068665342680984    0.10807255567454044    0.1285601982574648    0.151987744127295    0.17786665676797528    
  0.20530901189441245    0.23303458426555201    0.2594535494154307    0.28278579838172396    0.3012070591614748    
  0.31306188282214653    0.3171594556062824    0.2756925224113834    0.2722825866846295    0.2624063967495956    
  0.24702832758066925    0.22749665557119408    0.20530901189441247    0.1819399516507668    0.15871850562659506    
  0.13672636630135895    0.11672647706284402    0.09915328039692353    0.08416787374841359    0.07174289949397417    
  0.061737963663336407    0.05395310511318595    0.04817011614774256    0.04418995060956252    0.04186165234905796    
  0.041095295330895176    0.041861652349057935    0.04418995060956252    0.04817011614774255    0.053953105113185934    
  0.06173796366333642    0.07174289949397417    0.08416787374841359    0.09915328039692353    0.11672647706284402    
  0.13672636630135895    0.158718505626595    0.1819399516507668    0.20530901189441245    0.22749665557119408    
  0.2470283275806692    0.2624063967495956    0.2722825866846294    0.2756925224113834    0.23508960014174604    
  0.2323338926195483    0.22434223941482698    0.2118693621158505    0.19597938887059    0.1778666567679754    
  0.15871850562659512    0.13961360031329723    0.12143762374045318    0.10482518726444824    0.09015019423304185    
  0.07756603447052814    0.0670701306690974    0.058564483166170744    0.0519015056805069    0.04691939053748925    
  0.04347138347187007    0.04144658702369133    0.04077884500228894    0.04144658702369133    0.04347138347187007    
  0.04691939053748927    0.0519015056805069    0.05856448316617073    0.0670701306690974    0.07756603447052815    
  0.09015019423304182    0.10482518726444826    0.12143762374045318    0.13961360031329723    0.15871850562659512    
  0.1778666567679754    0.19597938887059    0.21186936211585045    0.22434223941482703    0.2323338926195483    
  0.23508960014174604    0.197242021314104    0.19507649090547416    0.18878743560995173    0.17894712659775558    
  0.16637150990008073    0.15198774412729496    0.13672636630135884    0.12143762374045315    0.10682388272125559    
  0.09339547001023138    0.08146330796823785    0.07116736550902185    0.06252354482500193    0.055470170577699235    
  0.04990553460254539    0.04571681664150627    0.042801967302483486    0.04108386955447507    0.04051623555188822    
  0.041083869554475044    0.042801967302483486    0.045716816641506286    0.04990553460254539    0.055470170577699256    
  0.06252354482500193    0.07116736550902183    0.08146330796823785    0.09339547001023138    0.10682388272125559    
  0.12143762374045312    0.13672636630135884    0.15198774412729493    0.16637150990008073    0.17894712659775555    
  0.18878743560995173    0.1950764909054742    0.197242021314104    0.16339307974181552    0.161736682907457    
  0.15691922181396942    0.14936242236030983    0.13967555422350453    0.12856019825746473    0.11672647706284404    
  0.10482518726444821    0.09339547001023145    0.08283374108257349    0.07338976952327644    0.06518657624686547    
  0.058252726544057686    0.052555805532289994    0.048031208696690114    0.04460471791450093    0.04220868161209905    
  0.04079174267145437    0.040322849759566806    0.04079174267145428    0.042208681612099036    0.04460471791450094    
  0.04803120869669013    0.05255580553229001    0.058252726544057686    0.06518657624686547    0.07338976952327644    
  0.0828337410825735    0.09339547001023145    0.10482518726444823    0.11672647706284406    0.1285601982574647    
  0.1396755542235045    0.14936242236030975    0.15691922181396942    0.16173668290745705    0.16339307974181552    
  0.1341548199887049    0.13292163665542697    0.12933015190730804    0.12368334172816024    0.11642496785982816    
  0.10807255567454054    0.09915328039692355    0.09015019423304187    0.08146330796823792    0.07338976952327644    
  0.06612360754554689    0.05976970943661115    0.054364400367038504    0.04989708400859649    0.046330294277602    
  0.043616745714514994    0.0417121221798799    0.0405827476769636    0.040208484308829805    0.040582747676963654    
  0.0417121221798799    0.04361674571451498    0.046330294277602    0.04989708400859651    0.054364400367038504    
  0.0597697094366111    0.06612360754554689    0.07338976952327644    0.08146330796823792    0.09015019423304187    
  0.09915328039692355    0.10807255567454047    0.11642496785982816    0.12368334172816024    0.12933015190730804    
  0.132921636655427    0.1341548199887049    0.10964613748942018    0.10875396675578088    0.10615264523514124    
  0.10205474232130622    0.0967755492359069    0.09068665342680983    0.08416787374841354    0.07756603447052808    
  0.07116736550902185    0.06518657624686555    0.059769709436611126    0.05500399441266124    0.0509291688614288    
  0.04754877944695143    0.0448423323075686    0.042778316655722265    0.04132596267050491    0.04046272448358901    
  0.04017622494181511    0.04046272448358892    0.041325962670504944    0.042778316655722265    0.0448423323075686    
  0.04754877944695144    0.0509291688614288    0.05500399441266124    0.059769709436611126    0.06518657624686555    
  0.07116736550902185    0.07756603447052808    0.08416787374841352    0.0906866534268098    0.0967755492359069    
  0.10205474232130621    0.10615264523514124    0.1087539667557809    0.10964613748942018    0.08967545765192728    
  0.08905035724612685    0.08722611977611681    0.0843481903649036    0.08063464231139572    0.07634455026666229    
  0.07174289949397414    0.06707013066909737    0.0625235448250019    0.0582527265440577    0.05436440036703844    
  0.05092916886142878    0.047985741353717255    0.045544003661484984    0.04359106998300325    0.04210210483120277    
  0.0410527544455034    0.04042729859981701    0.04021925932613365    0.04042729859981705    0.0410527544455034    
  0.04210210483120277    0.04359106998300325    0.04554400366148501    0.047985741353717255    0.05092916886142878    
  0.05436440036703844    0.05825272654405771    0.0625235448250019    0.06707013066909738    0.07174289949397414    
  0.07634455026666227    0.08063464231139572    0.08434819036490357    0.08722611977611681    0.0890503572461269    
  0.08967545765192728    0.07388427139828646    0.07346209272570445    0.07222917273829133    0.07028202274856953    
  0.0677669710994221    0.06485922615744266    0.06173796366333642    0.0585644831661707    0.055470170577699235    
  0.052555805532290036    0.04989708400859647    0.0475487794469515    0.04554400366148505    0.043891807552008825    
  0.04257956654368114    0.04158311050556049    0.0408803105612926    0.04045968420775951    0.040319266979020094    
  0.04045968420775946    0.0408803105612926    0.04158311050556051    0.04257956654368119    0.043891807552008825    
  0.04554400366148505    0.047548779446951454    0.04989708400859647    0.05255580553229004    0.055470170577699235    
  0.05856448316617068    0.06173796366333642    0.06485922615744262    0.06776697109942212    0.07028202274856953    
  0.07222917273829133    0.07346209272570446    0.07388427139828646    0.06183078935668282    0.061557277747737574    
  0.0607579244924085    0.059494323641179764    0.05786155736175234    0.055975030404315465    0.05395310511318597    
  0.05190150568050683    0.049905534602545494    0.04803120869669014    0.04633029427760196    0.04484233230756872    
  0.043591069983003286    0.04257956654368119    0.0417912378748147    0.04119990554174591    0.04078371468821449    
  0.04053332824366792    0.040449291470450364    0.04053332824366785    0.04078371468821445    0.04119990554174593    
  0.0417912378748147    0.04257956654368112    0.04359106998300327    0.04484233230756867    0.04633029427760196    
  0.04803120869669019    0.049905534602545494    0.05190150568050687    0.05395310511318597    0.05597503040431543    
  0.05786155736175234    0.059494323641179785    0.0607579244924085    0.061557277747737595    0.06183078935668282    
  0.05304819424593838    0.05287853428207873    0.052382146841652336    0.05159664103644584    0.050582232369375736    
  0.04941409058497943    0.04817011614774256    0.0469193905374892    0.04571681664150629    0.044604717914500894    
  0.043616745714514946    0.04277831665572229    0.04210210483120276    0.04158311050556049    0.041199905541745976    
  0.04092426175567084    0.0407338548070083    0.04061918304720861    0.040580452603876306    0.04061918304720861    
  0.04073385480700835    0.04092426175567089    0.041199905541745976    0.04158311050556047    0.04210210483120275    
  0.04277831665572228    0.043616745714514946    0.044604717914500956    0.04571681664150629    0.04691939053748917    
  0.04817011614774257    0.04941409058497938    0.05058223236937572    0.05159664103644585    0.052382146841652356    
  0.05287853428207876    0.05304819424593838    0.0471074740266875    0.04700527182731164    0.04670571584097145    
  0.04623108412671217    0.04561963737267372    0.04492157974423929    0.04418995060956255    0.0434713834718701    
  0.04280196730248353    0.04220868161209917    0.04171212217987989    0.041325962670505006    0.04105275444550335    
  0.04088031056129258    0.04078371468821447    0.04073385480700837    0.040707697300564574    0.040693575584371665    
  0.04068881530442516    0.040693575584371665    0.040707697300564574    0.04073385480700835    0.04078371468821447    
  0.040880310561292627    0.0410527544455034    0.04132596267050498    0.04171212217987989    0.042208681612099175    
  0.04280196730248353    0.04347138347187013    0.04418995060956255    0.04492157974423927    0.04561963737267372    
  0.046231084126712216    0.04670571584097145    0.04700527182731166    0.0471074740266875    0.043676978529371996    
  0.043612465867762636    0.04342291077370765    0.04312218172213514    0.04273666452904331    0.04230321955753855    
  0.04186165234905791    0.041446587023691285    0.04108386955447509    0.04079174267145442    0.04058274767696367    
  0.040462724483589035    0.04042729859981701    0.04045968420775948    0.04053332824366794    0.04061918304720863    
  0.040693575584371734    0.04074217918946347    0.040758862389624576    0.0407421791894634    0.040693575584371734    
  0.04061918304720868    0.04053332824366797    0.04045968420775948    0.04042729859981701    0.040462724483589035    
  0.04058274767696367    0.040791742671454426    0.04108386955447509    0.04144658702369129    0.04186165234905792    
  0.042303219557538525    0.0427366645290433    0.04312218172213516    0.04342291077370765    0.043612465867762636    
  0.043676978529371996    0.04255551400752656    0.04250309416774644    0.04234884143123333    0.04210396311126069    
  0.04179111802689143    0.04144300346024295    0.04109529533089516    0.04077884500228892    0.04051623555188827    
  0.040322849759566806    0.040208484308829825    0.04017622494181512    0.0402192593261337    0.040319266979020024    
  0.040449291470450406    0.040580452603876355    0.04068881530442521    0.040758862389624576    0.04078292932186255    
  0.040758862389624555    0.04068881530442521    0.040580452603876396    0.040449291470450406    0.040319266979020045    
  0.0402192593261337    0.04017622494181514    0.040208484308829825    0.04032284975956682    0.04051623555188827    
  0.04077884500228893    0.04109529533089516    0.04144300346024291    0.04179111802689143    0.04210396311126071    
  0.04234884143123333    0.042503094167746454    0.04255551400752656    0.04367697852937204    0.043612465867762615    
  0.043422910773707614    0.043122181722135104    0.04273666452904327    0.04230321955753849    0.04186165234905792    
  0.04144658702369133    0.041083869554475086    0.04079174267145439    0.04058274767696367    0.04046272448358909    
  0.04042729859981705    0.04045968420775948    0.04053332824366794    0.04061918304720866    0.04069357558437178    
  0.04074217918946345    0.040758862389624555    0.0407421791894635    0.040693575584371734    0.04061918304720866    
  0.04053332824366794    0.04045968420775948    0.04042729859981701    0.04046272448358901    0.04058274767696367    
  0.040791742671454405    0.041083869554475086    0.04144658702369134    0.04186165234905792    0.04230321955753845    
  0.042736664529043254    0.04312218172213514    0.043422910773707614    0.04361246586776262    0.04367697852937204    
  0.04710747402668751    0.04700527182731164    0.04670571584097145    0.04623108412671217    0.04561963737267372    
  0.04492157974423929    0.04418995060956256    0.0434713834718701    0.04280196730248353    0.042208681612099154    
  0.04171212217987989    0.041325962670505006    0.04105275444550342    0.04088031056129258    0.04078371468821447    
  0.04073385480700837    0.040707697300564574    0.040693575584371686    0.04068881530442516    0.040693575584371665    
  0.040707697300564574    0.04073385480700835    0.04078371468821447    0.040880310561292627    0.04105275444550335    
  0.04132596267050498    0.04171212217987989    0.042208681612099175    0.04280196730248353    0.04347138347187013    
  0.04418995060956256    0.04492157974423927    0.04561963737267372    0.046231084126712216    0.04670571584097145    
  0.047005271827311644    0.04710747402668751    0.053048194245938415    0.05287853428207875    0.05238214684165235    
  0.051596641036445796    0.05058223236937576    0.04941409058497938    0.04817011614774252    0.0469193905374892    
  0.045716816641506286    0.04460471791450091    0.043616745714514966    0.04277831665572228    0.04210210483120275    
  0.04158311050556042    0.04119990554174593    0.04092426175567089    0.04073385480700837    0.04061918304720866    
  0.040580452603876306    0.04061918304720861    0.04073385480700837    0.04092426175567089    0.04119990554174593    
  0.04158311050556044    0.0421021048312027    0.04277831665572223    0.043616745714514966    0.044604717914500956    
  0.045716816641506286    0.0469193905374892    0.048170116147742525    0.04941409058497933    0.05058223236937574    
  0.05159664103644581    0.052382146841652336    0.05287853428207876    0.053048194245938415    0.06183078935668282    
  0.061557277747737574    0.0607579244924085    0.059494323641179764    0.05786155736175234    0.055975030404315465    
  0.05395310511318597    0.05190150568050683    0.049905534602545494    0.04803120869669015    0.04633029427760196    
  0.04484233230756872    0.043591069983003286    0.04257956654368114    0.0417912378748147    0.04119990554174591    
  0.04078371468821449    0.04053332824366792    0.040449291470450364    0.04053332824366785    0.04078371468821449    
  0.04119990554174593    0.0417912378748147    0.04257956654368112    0.04359106998300327    0.04484233230756867    
  0.04633029427760196    0.0480312086966902    0.049905534602545494    0.05190150568050687    0.05395310511318597    
  0.05597503040431543    0.05786155736175234    0.059494323641179785    0.0607579244924085    0.061557277747737595    
  0.06183078935668282    0.07388427139828643    0.07346209272570445    0.07222917273829127    0.07028202274856957    
  0.06776697109942204    0.06485922615744272    0.0617379636633364    0.05856448316617063    0.05547017057769925    
  0.052555805532290015    0.04989708400859647    0.047548779446951475    0.04554400366148502    0.04389180755200878    
  0.04257956654368119    0.04158311050556049    0.0408803105612926    0.04045968420775951    0.040319266979020094    
  0.04045968420775948    0.04088031056129265    0.04158311050556049    0.04257956654368119    0.043891807552008805    
  0.04554400366148502    0.0475487794469515    0.04989708400859647    0.052555805532290015    0.05547017057769925    
  0.05856448316617065    0.0617379636633364    0.06485922615744272    0.06776697109942204    0.07028202274856957    
  0.07222917273829131    0.07346209272570445    0.07388427139828643    0.08967545765192728    0.08905035724612685    
  0.08722611977611681    0.0843481903649036    0.08063464231139572    0.07634455026666229    0.07174289949397415    
  0.06707013066909737    0.0625235448250019    0.0582527265440577    0.05436440036703844    0.05092916886142878    
  0.047985741353717255    0.045544003661484984    0.04359106998300325    0.04210210483120277    0.04105275444550342    
  0.04042729859981701    0.04021925932613365    0.04042729859981705    0.04105275444550342    0.04210210483120277    
  0.04359106998300325    0.04554400366148503    0.047985741353717255    0.05092916886142878    0.05436440036703844    
  0.05825272654405771    0.0625235448250019    0.06707013066909738    0.07174289949397415    0.07634455026666227    
  0.08063464231139572    0.08434819036490357    0.08722611977611681    0.0890503572461269    0.08967545765192728    
  0.1096461374894202    0.10875396675578086    0.10615264523514119    0.10205474232130615    0.0967755492359069    
  0.09068665342680986    0.08416787374841359    0.07756603447052814    0.07116736550902183    0.06518657624686551    
  0.059769709436611064    0.055003994412661274    0.0509291688614288    0.04754877944695142    0.04484233230756869    
  0.04277831665572226    0.04132596267050491    0.04046272448358902    0.04017622494181511    0.040462724483588966    
  0.04132596267050492    0.042778316655722265    0.04484233230756869    0.04754877944695143    0.0509291688614288    
  0.05500399441266126    0.059769709436611064    0.06518657624686552    0.07116736550902183    0.07756603447052812    
  0.08416787374841359    0.09068665342680982    0.0967755492359069    0.10205474232130617    0.10615264523514119    
  0.10875396675578093    0.1096461374894202    0.1341548199887049    0.13292163665542697    0.12933015190730804    
  0.12368334172816024    0.11642496785982816    0.10807255567454054    0.09915328039692355    0.09015019423304187    
  0.08146330796823792    0.07338976952327644    0.06612360754554689    0.05976970943661115    0.054364400367038504    
  0.04989708400859654    0.046330294277602    0.043616745714514994    0.0417121221798799    0.0405827476769636    
  0.040208484308829805    0.040582747676963654    0.0417121221798799    0.04361674571451498    0.046330294277602    
  0.04989708400859651    0.054364400367038504    0.0597697094366111    0.06612360754554689    0.07338976952327644    
  0.08146330796823792    0.09015019423304187    0.09915328039692355    0.10807255567454047    0.11642496785982816    
  0.12368334172816024    0.12933015190730804    0.132921636655427    0.1341548199887049    0.16339307974181552    
  0.16173668290745702    0.15691922181396942    0.1493624223603098    0.13967555422350453    0.12856019825746473    
  0.11672647706284404    0.10482518726444821    0.09339547001023142    0.0828337410825735    0.07338976952327644    
  0.06518657624686547    0.058252726544057665    0.05255580553228999    0.04803120869669015    0.04460471791450094    
  0.042208681612099064    0.04079174267145437    0.040322849759566806    0.04079174267145428    0.042208681612099064    
  0.044604717914500956    0.04803120869669013    0.05255580553229001    0.058252726544057665    0.0651865762468655    
  0.07338976952327644    0.0828337410825735    0.09339547001023142    0.10482518726444823    0.11672647706284406    
  0.12856019825746473    0.13967555422350456    0.14936242236030975    0.15691922181396942    0.16173668290745705    
  0.16339307974181552    0.197242021314104    0.19507649090547416    0.18878743560995173    0.17894712659775558    
  0.16637150990008073    0.15198774412729496    0.13672636630135884    0.12143762374045315    0.10682388272125559    
  0.09339547001023138    0.08146330796823785    0.07116736550902185    0.06252354482500193    0.055470170577699235    
  0.04990553460254539    0.04571681664150627    0.042801967302483486    0.04108386955447507    0.04051623555188822    
  0.041083869554475044    0.042801967302483486    0.045716816641506286    0.04990553460254539    0.055470170577699256    
  0.06252354482500193    0.07116736550902183    0.08146330796823785    0.09339547001023138    0.10682388272125559    
  0.12143762374045312    0.13672636630135884    0.15198774412729493    0.16637150990008073    0.17894712659775555    
  0.18878743560995173    0.1950764909054742    0.197242021314104    0.23508960014174596    0.2323338926195483    
  0.22434223941482703    0.2118693621158505    0.19597938887059    0.1778666567679754    0.158718505626595    
  0.13961360031329714    0.1214376237404532    0.10482518726444823    0.09015019423304184    0.07756603447052808    
  0.0670701306690974    0.05856448316617073    0.051901505680506874    0.04691939053748925    0.04347138347187012    
  0.041446587023691375    0.04077884500228893    0.04144658702369132    0.04347138347187012    0.04691939053748927    
  0.05190150568050687    0.05856448316617075    0.0670701306690974    0.07756603447052807    0.09015019423304184    
  0.10482518726444823    0.1214376237404532    0.13961360031329723    0.15871850562659504    0.1778666567679754    
  0.19597938887059    0.2118693621158505    0.22434223941482703    0.23233389261954832    0.23508960014174596    
  0.2756925224113834    0.27228258668462957    0.2624063967495956    0.24702832758066925    0.22749665557119408    
  0.20530901189441247    0.1819399516507668    0.15871850562659506    0.13672636630135895    0.11672647706284402    
  0.09915328039692353    0.08416787374841359    0.07174289949397417    0.061737963663336407    0.053953105113185934    
  0.04817011614774256    0.044189950609562524    0.04186165234905796    0.041095295330895176    0.041861652349057935    
  0.044189950609562524    0.04817011614774255    0.05395310511318595    0.061737963663336434    0.07174289949397417    
  0.08416787374841359    0.09915328039692353    0.11672647706284402    0.13672636630135895    0.158718505626595    
  0.1819399516507668    0.2053090118944124    0.22749665557119408    0.2470283275806692    0.2624063967495956    
  0.2722825866846294    0.2756925224113834    0.3171594556062824    0.3130618828221466    0.3012070591614748    
  0.28278579838172396    0.2594535494154307    0.23303458426555201    0.20530901189441245    0.17786665676797536    
  0.15198774412729502    0.12856019825746473    0.10807255567454044    0.09068665342680986    0.07634455026666231    
  0.06485922615744268    0.055975030404315416    0.04941409058497938    0.04492157974423926    0.04230321955753848    
  0.041443003460242954    0.042303219557538484    0.04492157974423926    0.04941409058497939    0.055975030404315416    
  0.06485922615744269    0.07634455026666231    0.09068665342680986    0.10807255567454044    0.12856019825746476    
  0.15198774412729502    0.17786665676797533    0.20530901189441245    0.23303458426555201    0.25945354941543075    
  0.28278579838172396    0.3012070591614748    0.31306188282214653    0.3171594556062824    0.35705581053699254    
  0.3522805988133971    0.33847712806798774    0.31706338840709547    0.29000433423691124    0.25945354941543075    
  0.22749665557119408    0.1959793888705899    0.1663715099000808    0.1396755542235046    0.11642496785982824    
  0.09677554923590692    0.0806346423113958    0.06776697109942216    0.05786155736175235    0.050582232369375826    
  0.0456196373726737    0.04273666452904327    0.041791118026891456    0.0427366645290433    0.04561963737267373    
  0.05058223236937584    0.05786155736175233    0.06776697109942216    0.0806346423113958    0.09677554923590696    
  0.11642496785982824    0.13967555422350464    0.1663715099000808    0.19597938887058985    0.22749665557119408    
  0.2594535494154307    0.29000433423691124    0.31706338840709547    0.33847712806798774    0.3522805988133971    
  0.35705581053699254    0.3925799570470446    0.3871901236455134    0.37161953381083723    0.34749398200461157    
  0.3170633884070954    0.28278579838172396    0.2470283275806692    0.21186936211585045    0.17894712659775563    