#     DFTpy    
  CRYSTAL 
    
  PRIMVEC    
  4.110403079069351    -2.2583000000000004e-10    4.280500000000001e-10    
  -2.2583000000000004e-10    4.110403078830511    2.0626000000000005e-10    
  7.822100000000001e-10    3.769700000000001e-10    7.530338103063181    
  PRIMCOORD    
  4    1    
  Si    2.0552015394563603    2.0552015405463004    2.314029596098131    
  Si    7.621200000000001e-10    -7.053300000000001e-10    1.4511394529021304    
  Si    1.1689000000000002e-10    5.327000000000001e-10    6.079198645889791    
  Si    2.0552015400725603    2.0552015389849503    5.216308511870622    
  BEGIN_BLOCK_DATAGRID_3D    
  3d_datagrid_density    
  BEGIN_DATAGRID_3D#0    
  41    41    73    
  0.0    0.0    0.0    
  4.110403094401232    -2.2583000084235026e-10    4.2805000159663476e-10    
  -2.2583000084235026e-10    4.110403094162392    2.0626000076935378e-10    
  7.822100029176584e-10    3.769700014061054e-10    7.530338131151486    
  0.25606590560479814    0.25264439464615646    0.24273319755518305    0.22729824575144936    0.20769807578566762    
  0.18545621396341455    0.16208667217616127    0.13895700512773454    0.1171690812030643    0.0974796524912456    
  0.08029264724488404    0.06571815193291591    0.0536599830647918    0.04389777798254054    0.03615229400355113    
  0.03013497184177786    0.02558195764411441    0.022272054686326495    0.020032381886821854    0.018738768822807637    
  0.018315987759460528    0.01873876882280763    0.020032381886821868    0.022272054686326537    0.02558195764411441    
  0.030134971841777776    0.03615229400355111    0.043897777982540576    0.053659983064791826    0.06571815193291589    
  0.080292647244884    0.09747965249124556    0.1171690812030643    0.1389570051277345    0.16208667217616132    
  0.18545621396341458    0.20769807578566765    0.22729824575144936    0.24273319755518302    0.25264439464615635    
  0.25606590560479814    0.25264439464615635    0.24928358551753949    0.23954579904549525    0.22437389735527202    
  0.20509604080851865    0.18320521451490257    0.1601893801481621    0.137396594242443    0.11591605763045897    
  0.09649763721240878    0.07954226133693978    0.06515923238102014    0.05325333109434138    0.043607382413980426    
  0.035947668847666724    0.029992383580167013    0.02548385642564064    0.022205298381567262    0.01998646236166561    
  0.018704721630491642    0.018285784415649417    0.01870472163049162    0.019986462361665618    0.02220529838156727    
  0.02548385642564064    0.029992383580166922    0.03594766884766669    0.04360738241398047    0.0532533310943414    
  0.06515923238102012    0.07954226133693976    0.09649763721240875    0.11591605763045897    0.137396594242443    
  0.16018938014816214    0.1832052145149026    0.20509604080851876    0.2243738973552719    0.2395457990454952    
  0.24928358551753935    0.25264439464615635    0.24273319755518297    0.2395457990454952    0.23030402210834086    
  0.21588631556319793    0.19753556902984817    0.17665818251874488    0.15466708171359414    0.1328528759738448    
  0.11226635246075112    0.09363585754445553    0.07735293143993097    0.06352497839433437    0.05206057597549963    
  0.042752666444396466    0.03534377266371913    0.02957123542967855    0.02519463159325765    0.022009426335821904    
  0.01985278115049814    0.01860651364773971    0.018199067969355744    0.018606513647739707    0.019852781150498162    
  0.022009426335821935    0.02519463159325765    0.0295712354296785    0.03534377266371913    0.04275266644439647    
  0.05206057597549965    0.06352497839433437    0.07735293143993091    0.0936358575444555    0.11226635246075112    
  0.1328528759738448    0.1546670817135942    0.17665818251874488    0.19753556902984828    0.21588631556319793    
  0.23030402210834086    0.2395457990454951    0.24273319755518297    0.22729824575144936    0.2243738973552719    
  0.21588631556319793    0.2026205642448292    0.18569456667604475    0.16638532251686933    0.14599016669263307    
  0.12570754673702494    0.106523602060311    0.08912874501946959    0.07389791481959723    0.06093652108411413    
  0.05016171654286817    0.04138450136378093    0.034373214396471605    0.028893818690674252    0.02473095824802507    
  0.021697891981684304    0.019642852699193764    0.01845460522687539    0.01806596729305341    0.018454605226875396    
  0.01964285269919374    0.021697891981684345    0.02473095824802507    0.028893818690674197    0.03437321439647155    
  0.041384501363780975    0.05016171654286818    0.06093652108411413    0.07389791481959718    0.08912874501946952    
  0.106523602060311    0.12570754673702494    0.14599016669263312    0.1663853225168694    0.18569456667604475    
  0.20262056424482916    0.21588631556319793    0.22437389735527183    0.22729824575144936    0.20769807578566765    
  0.20509604080851876    0.1975355690298482    0.1856945666760448    0.17054521812492016    0.1532092691099975    
  0.13483952619675532    0.11651324307291447    0.09912690148983293    0.08331581167217418    0.06943066300888952    
  0.057575612867473154    0.047682460559740514    0.03958823521946979    0.03309445046121174    0.02800136127444747    
  0.024122777898377856    0.021292902160621845    0.019373686258416567    0.018263012401041067    0.017899528683752386    
  0.01826301240104106    0.019373686258416567    0.021292902160621834    0.024122777898377856    0.028001361274447422    
  0.0330944504612117    0.0395882352194698    0.047682460559740535    0.05757561286747315    0.06943066300888946    
  0.08331581167217414    0.09912690148983293    0.11651324307291447    0.13483952619675532    0.1532092691099975    
  0.17054521812492024    0.18569456667604478    0.19753556902984823    0.20509604080851865    0.20769807578566765    
  0.1854562139634145    0.18320521451490257    0.17665818251874488    0.16638532251686936    0.15320926910999746    
  0.13808684563161125    0.12201004763607122    0.10591426508589095    0.09058593905552742    0.0765901826105974    
  0.06424653340411622    0.053658743780578506    0.04477864679463996    0.03747526184250089    0.031587270206459926    
  0.026951064162512882    0.02341068532802808    0.02082279867734055    0.019065153114303908    0.018046690134946943    
  0.01771310961630982    0.018046690134946936    0.0190651531143039    0.020822798677340545    0.02341068532802808    
  0.02695106416251286    0.03158727020645988    0.037475261842500905    0.04477864679463999    0.05365874378057849    
  0.06424653340411617    0.07659018261059737    0.09058593905552742    0.10591426508589095    0.12201004763607119    
  0.13808684563161125    0.15320926910999746    0.16638532251686938    0.17665818251874488    0.18320521451490257    
  0.1854562139634145    0.16208667217616132    0.16018938014816214    0.15466708171359422    0.14599016669263307    
  0.1348395261967553    0.12201004763607122    0.10832883098293813    0.09457946173446029    0.08142633322686622    
  0.06935460551381487    0.05864790129012022    0.04940976862484379    0.04161477714282325    0.0351660476614101    
  0.029939365184821636    0.025805766688148157    0.022638509340978108    0.020317295350839554    0.018737348031111368    
  0.01782024272528404    0.017519547155156093    0.017820242725284038    0.018737348031111364    0.02031729535083956    
  0.022638509340978108    0.025805766688148112    0.029939365184821612    0.035166047661410106    0.04161477714282326    
  0.04940976862484376    0.05864790129012017    0.06935460551381487    0.08142633322686622    0.09457946173446029    
  0.10832883098293815    0.12201004763607123    0.13483952619675532    0.1459901666926331    0.1546670817135942    
  0.16018938014816203    0.16208667217616132    0.13895700512773448    0.13739659424244297    0.1328528759738448    
  0.12570754673702492    0.11651324307291444    0.10591426508589093    0.09457946173446027    0.08314243209180291    
  0.07214410687829945    0.06198723375107642    0.05291771377754185    0.045038103509681696    0.03834490313944139    
  0.03277312701170445    0.028231828451800944    0.024622622088589702    0.02184550585009129    0.019802943849864422    
  0.01840859113084674    0.017597478809688948    0.01733122920931784    0.017597478809688944    0.018408591130846714    
  0.01980294384986443    0.02184550585009129    0.024622622088589705    0.028231828451800903    0.03277312701170445    
  0.038344903139441375    0.045038103509681675    0.0529177137775418    0.06198723375107644    0.07214410687829945    
  0.08314243209180291    0.09457946173446029    0.10591426508589093    0.11651324307291447    0.12570754673702494    
  0.1328528759738448    0.13739659424244288    0.13895700512773448    0.11716908120306431    0.11591605763045904    
  0.11226635246075112    0.10652360206031103    0.09912690148983293    0.09058593905552752    0.08142633322686628    
  0.07214410687829952    0.06316536058280388    0.05481492574656686    0.0473019230545576    0.040726242000282235    
  0.03510260770442973    0.030392525049294208    0.02653203965549203    0.023447736245091295    0.02106279120791693    
  0.019301055183519787    0.01809435495921561    0.017390877845652457    0.01715972550321115    0.017390877845652467    
  0.018094354959215582    0.019301055183519777    0.02106279120791693    0.023447736245091274    0.026532039655492    
  0.03039252504929423    0.03510260770442976    0.04072624200028224    0.047301923054557556    0.05481492574656686    
  0.06316536058280388    0.0721441068782995    0.08142633322686628    0.09058593905552752    0.09912690148983302    
  0.10652360206031107    0.11226635246075112    0.11591605763045897    0.11716908120306431    0.09747965249124563    
  0.09649763721240873    0.09363585754445553    0.08912874501946952    0.08331581167217408    0.07659018261059738    
  0.06935460551381485    0.0619872337510764    0.05481492574656686    0.04809374566133495    0.041998653016580914    
  0.03662457873387435    0.03199922978190099    0.028103928880004472    0.02489484527294393    0.022317636770013832    
  0.02031449500215435    0.018828126934471494    0.01780685647063104    0.017210542114383692    0.017014502841578728    
  0.0172105421143837    0.01780685647063102    0.018828126934471473    0.02031449500215435    0.022317636770013825    
  0.024894845272943906    0.028103928880004455    0.03199922978190105    0.036624578733874334    0.041998653016580886    
  0.048093745661334966    0.05481492574656686    0.061987233751076384    0.06935460551381487    0.07659018261059737    
  0.08331581167217418    0.08912874501946952    0.09363585754445553    0.09649763721240869    0.09747965249124563    
  0.08029264724488408    0.07954226133693984    0.07735293143993097    0.0738979148195972    0.06943066300888948    
  0.0642465334041162    0.058647901290120194    0.05291771377754185    0.047301923054557535    0.041998653016580914    
  0.037151716503363776    0.03284841424280639    0.02912389175843871    0.02597299487884082    0.02336610568967298    
  0.021262904006655606    0.01962049989619285    0.018397147546247813    0.017554899370413272    0.017062987035684707    
  0.016901336861978616    0.017062987035684714    0.017554899370413296    0.01839714754624776    0.01962049989619285    
  0.02126290400665557    0.02336610568967294    0.025972994878840833    0.029123891758438734    0.03284841424280637    
  0.037151716503363755    0.041998653016580914    0.047301923054557535    0.05291771377754185    0.058647901290120194    
  0.06424653340411622    0.06943066300888949    0.0738979148195972    0.07735293143993101    0.07954226133693976    
  0.08029264724488408    0.06571815193291591    0.06515923238102012    0.06352497839433438    0.06093652108411413    
  0.057575612867473154    0.053658743780578555    0.04940976862484381    0.045038103509681716    0.04072624200028224    
  0.036624578733874376    0.0328484142428064    0.029474655674397377    0.02654080009776256    0.024050109915532962    
  0.02198291368363496    0.020309259867133587    0.018997645324360463    0.01801833996475262    0.017343933577463964    
  0.016950636062885514    0.016821592389102004    0.01695063606288549    0.017343933577463905    0.01801833996475255    
  0.018997645324360463    0.020309259867133587    0.02198291368363494    0.02405010991553296    0.026540800097762607    
  0.029474655674397353    0.03284841424280637    0.03662457873387435    0.04072624200028224    0.04503810350968172    
  0.04940976862484385    0.05365874378057852    0.05757561286747318    0.06093652108411418    0.06352497839433437    
  0.06515923238102006    0.06571815193291591    0.0536599830647918    0.05325333109434138    0.052060575975499644    
  0.050161716542868155    0.047682460559740486    0.04477864679463999    0.04161477714282324    0.03834490313944136    
  0.03510260770442971    0.03199922978190101    0.029123891758438686    0.026540800097762614    0.024285638711843034    
  0.022366282413198876    0.02077020508381952    0.019475350877512475    0.01845864243853655    0.017698965296048374    
  0.01717647782697813    0.01687261121894065    0.016773137044299568    0.016872611218940608    0.017176477826978124    
  0.017698965296048356    0.01845864243853655    0.019475350877512468    0.02077020508381951    0.022366282413198865    
  0.02428563871184304    0.026540800097762576    0.029123891758438665    0.03199922978190097    0.03510260770442971    
  0.03834490313944137    0.041614777142823266    0.04477864679463996    0.04768246055974056    0.05016171654286818    
  0.05206057597549964    0.05325333109434133    0.0536599830647918    0.04389777798254054    0.043607382413980426    
  0.04275266644439644    0.041384501363780975    0.03958823521946979    0.03747526184250087    0.03516604766141012    
  0.03277312701170448    0.030392525049294187    0.028103928880004472    0.0259729948788408    0.02405010991553296    
  0.022366282413198876    0.020931315324117458    0.019737880923349573    0.018769878392199894    0.018009944978791242    
  0.017442410499910195    0.017052584509522215    0.016826306362219542    0.016752341872815085    0.016826306362219542    
  0.01705258450952216    0.01744241049991016    0.018009944978791242    0.018769878392199877    0.01973788092334957    
  0.020931315324117444    0.022366282413198917    0.024050109915532924    0.025972994878840774    0.028103928880004413    
  0.030392525049294187    0.032773127011704484    0.03516604766141011    0.037475261842500864    0.03958823521946987    
  0.041384501363780975    0.04275266644439644    0.04360738241398039    0.04389777798254054    0.036152294003551154    
  0.0359476688476667    0.035343772663719145    0.034373214396471584    0.03309445046121175    0.03158727020645991    
  0.029939365184821657    0.028231828451800937    0.026532039655492043    0.02489484527294401    0.023366105689672966    
  0.021982913683635    0.020770205083819545    0.019737880923349622    0.018882168280970016    0.01819105902081386    
  0.01765035861852471    0.01724705544468759    0.016969743606183946    0.01680841126553283    0.016755582534341215    
  0.016808411265532678    0.016969743606183925    0.0172470554446876    0.01765035861852471    0.018191059020813895    
  0.01888216828097002    0.01973788092334965    0.02077020508381959    0.021982913683634996    0.023366105689672963    
  0.024894845272943958    0.026532039655492043    0.02823182845180095    0.029939365184821678    0.03158727020645989    
  0.03309445046121177    0.03437321439647159    0.03534377266371914    0.03594766884766666    0.036152294003551154    
  0.030134971841777797    0.029992383580167016    0.029571235429678558    0.028893818690674228    0.028001361274447436    
  0.02695106416251288    0.025805766688148154    0.024622622088589716    0.023447736245091274    0.0223176367700139    
  0.02126290400665559    0.02030925986713357    0.019475350877512503    0.018769878392199877    0.01819105902081383    
  0.017729304829408304    0.01737168411434103    0.017105890871961793    0.016922355598026205    0.016814648900790544    
  0.016779137955696608    0.016814648900790558    0.016922355598026167    0.01710589087196176    0.01737168411434103    
  0.01772930482940827    0.018191059020813843    0.018769878392199943    0.01947535087751255    0.020309259867133576    
  0.021262904006655564    0.02231763677001387    0.023447736245091274    0.024622622088589726    0.02580576668814817    
  0.026951064162512865    0.028001361274447523    0.028893818690674238    0.02957123542967856    0.029992383580166947    
  0.030134971841777797    0.025581957644114434    0.025483856425640678    0.02519463159325766    0.024730958248025056    
  0.02412277789837785    0.023410685328028088    0.02263850934097812    0.021845505850091332    0.021062791207916855    
  0.02031449500215437    0.01962049989619289    0.01899764532436047    0.01845864243853655    0.018009944978791242    
  0.017650358618524663    0.017371684114340973    0.017161637045262593    0.017007969203045762    0.016901842318928252    
  0.01683888692591934    0.016817924440728906    0.016838886925919328    0.016901842318928217    0.017007969203045738    
  0.017161637045262593    0.017371684114341018    0.017650358618524684    0.018009944978791242    0.01845864243853661    
  0.018997645324360418    0.01962049989619286    0.020314495002154306    0.021062791207916855    0.02184550585009132    
  0.02263850934097811    0.023410685328028095    0.024122777898377898    0.024730958248025077    0.025194631593257685    
  0.025483856425640636    0.025581957644114434    0.022272054686326512    0.02220529838156731    0.022009426335821907    
  0.021697891981684297    0.021292902160621845    0.020822798677340514    0.020317295350839516    0.019802943849864453    
  0.01930105518351976    0.018828126934471476    0.018397147546247775    0.018018339964752588    0.01769896529604837    
  0.01744241049991015    0.0172470554446876    0.017105890871961807    0.017007969203045797    0.016941674892356814    
  0.016898155750431753    0.016872837946263073    0.016864428771489855    0.016872837946263028    0.01689815575043173    
  0.016941674892356755    0.017007969203045797    0.01710589087196184    0.017247055444687624    0.017442410499910174    
  0.01769896529604844    0.018018339964752553    0.018397147546247716    0.018828126934471476    0.01930105518351976    
  0.019802943849864446    0.020317295350839558    0.020822798677340507    0.02129290216062188    0.021697891981684297    
  0.022009426335821945    0.022205298381567252    0.022272054686326512    0.020032381886821892    0.019986462361665628    
  0.019852781150498194    0.019642852699193757    0.01937368625841656    0.019065153114303873    0.018737348031111406    
  0.01840859113084679    0.018094354959215603    0.017806856470631127    0.01755489937041332    0.017343933577463992    
  0.01717647782697813    0.017052584509522264    0.016969743606183946    0.01692235559802625    0.01690184231892824    
  0.016898155750431798    0.016902071943923107    0.016906896672871402    0.016908890951754477    0.016906896672871354    
  0.016902071943923038    0.016898155750431798    0.01690184231892824    0.01692235559802625    0.01696974360618397    
  0.01705258450952224    0.017176477826978176    0.017343933577463992    0.01755489937041333    0.017806856470631086    
  0.018094354959215603    0.018408591130846794    0.018737348031111416    0.019065153114303887    0.019373686258416595    
  0.019642852699193733    0.01985278115049823    0.01998646236166557    0.020032381886821892    0.018738768822807637    
  0.01870472163049167    0.018606513647739704    0.01845460522687539    0.018263012401041057    0.018046690134946985    
  0.017820242725284093    0.01759747880968896    0.01739087784565246    0.017210542114383748    0.017062987035684717    
  0.016950636062885525    0.01687261121894064    0.016826306362219563    0.016808411265532723    0.01681464890079058    
  0.016838886925919293    0.01687283794626312    0.016906896672871333    0.016931861633421915    0.016941009343794475    
  0.01693186163342187    0.01690689667287126    0.016872837946263097    0.016838886925919293    0.016814648900790544    
  0.016808411265532702    0.016826306362219587    0.016872611218940684    0.016950636062885476    0.017062987035684707    
  0.01721054211438371    0.01739087784565246    0.01759747880968896    0.017820242725284097    0.018046690134946947    
  0.018263012401041105    0.01845460522687538    0.018606513647739756    0.01870472163049163    0.018738768822807637    
  0.018315987759460507    0.018285784415649427    0.018199067969355727    0.01806596729305338    0.01789952868375241    
  0.01771310961630981    0.017519547155156107    0.01733122920931789    0.017159725503211157    0.01701450284157878    
  0.016901336861978557    0.01682159238910202    0.016773137044299558    0.01675234187281507    0.0167555825343411    
  0.016779137955696515    0.01681792444072887    0.016864428771489776    0.016908890951754477    0.016941009343794475    
  0.016952737368997578    0.01694100934379443    0.016908890951754452    0.016864428771489727    0.01681792444072887    
  0.016779137955696563    0.016755582534341146    0.01675234187281513    0.01677313704429963    0.016821592389102046    
  0.016901336861978557    0.017014502841578738    0.017159725503211157    0.017331229209317883    0.017519547155156138    
  0.017713109616309775    0.017899528683752452    0.01806596729305339    0.018199067969355776    0.018285784415649355    
  0.018315987759460507    0.018738768822807637    0.018704721630491652    0.018606513647739707    0.01845460522687539    
  0.0182630124010411    0.018046690134946978    0.017820242725284107    0.017597478809688986    0.017390877845652457    
  0.017210542114383744    0.017062987035684707    0.01695063606288556    0.016872611218940646    0.016826306362219587    
  0.016808411265532747    0.016814648900790593    0.016838886925919363    0.016872837946263052    0.016906896672871354    
  0.01693186163342187    0.01694100934379443    0.01693186163342189    0.016906896672871333    0.016872837946263073    
  0.016838886925919363    0.01681464890079051    0.016808411265532737    0.016826306362219597    0.016872611218940698    
  0.016950636062885476    0.017062987035684683    0.0172105421143837    0.017390877845652457    0.017597478809688986    
  0.017820242725284128    0.018046690134946954    0.018263012401041133    0.018454605226875385    0.018606513647739745    
  0.01870472163049161    0.018738768822807637    0.02003238188682188    0.019986462361665618    0.0198527811504982    
  0.019642852699193747    0.01937368625841656    0.01906515311430389    0.01873734803111143    0.018408591130846762    
  0.018094354959215575    0.017806856470631113    0.017554899370413338    0.017343933577464016    0.017176477826978138    
  0.01705258450952224    0.016969743606183925    0.016922355598026274    0.016901842318928252    0.016898155750431753    
  0.016902071943923153    0.016906896672871426    0.016908890951754497    0.016906896672871378    0.016902071943923107    
  0.016898155750431704    0.016901842318928252    0.01692235559802625    0.01696974360618397    0.017052584509522288    
  0.01717647782697819    0.017343933577463982    0.01755489937041333    0.01780685647063108    0.018094354959215575    
  0.018408591130846762    0.01873734803111143    0.01906515311430389    0.019373686258416616    0.019642852699193747    
  0.019852781150498246    0.019986462361665562    0.02003238188682188    0.02227205468632649    0.022205298381567307    
  0.022009426335821928    0.021697891981684255    0.02129290216062181    0.020822798677340517    0.020317295350839537    
  0.019802943849864446    0.019301055183519777    0.018828126934471508    0.018397147546247786    0.018018339964752588    
  0.017698965296048356    0.017442410499910126    0.017247055444687555    0.017105890871961807    0.017007969203045797    
  0.016941674892356755    0.016898155750431753    0.016872837946263073    0.01686442877148983    0.016872837946263097    
  0.01689815575043173    0.016941674892356696    0.017007969203045797    0.017105890871961807    0.01724705544468759    
  0.017442410499910195    0.01769896529604841    0.018018339964752543    0.018397147546247786    0.018828126934471463    
  0.019301055183519777    0.019802943849864443    0.02031729535083957    0.020822798677340507    0.021292902160621893    
  0.021697891981684266    0.022009426335821966    0.022205298381567262    0.02227205468632649    0.025581957644114434    
  0.025483856425640678    0.02519463159325766    0.024730958248025056    0.02412277789837785    0.023410685328028088    
  0.02263850934097812    0.021845505850091332    0.021062791207916855    0.02031449500215437    0.01962049989619289    
  0.01899764532436047    0.01845864243853655    0.018009944978791242    0.017650358618524663    0.017371684114340973    
  0.017161637045262593    0.017007969203045762    0.016901842318928252    0.01683888692591934    0.016817924440728906    
  0.016838886925919328    0.016901842318928217    0.017007969203045738    0.017161637045262593    0.017371684114341018    
  0.017650358618524684    0.018009944978791242    0.01845864243853661    0.018997645324360418    0.01962049989619286    
  0.020314495002154306    0.021062791207916855    0.02184550585009132    0.02263850934097811    0.023410685328028095    
  0.024122777898377898    0.024730958248025077    0.025194631593257685    0.025483856425640636    0.025581957644114434    
  0.030134971841777783    0.029992383580167016    0.02957123542967854    0.028893818690674238    0.028001361274447464    
  0.026951064162512882    0.025805766688148126    0.024622622088589716    0.023447736245091243    0.022317636770013884    
  0.02126290400665556    0.020309259867133604    0.019475350877512503    0.018769878392199908    0.018191059020813843    
  0.017729304829408245    0.017371684114340983    0.017105890871961793    0.01692235559802625    0.01681464890079057    
  0.016779137955696608    0.016814648900790524    0.01692235559802625    0.017105890871961783    0.017371684114340983    
  0.01772930482940827    0.018191059020813836    0.018769878392199936    0.019475350877512572    0.02030925986713357    
  0.021262904006655554    0.02231763677001387    0.023447736245091243    0.024622622088589723    0.025805766688148168    
  0.02695106416251288    0.028001361274447495    0.028893818690674256    0.029571235429678575    0.02999238358016693    
  0.030134971841777783    0.036152294003551154    0.035947668847666696    0.035343772663719145    0.0343732143964716    
  0.033094450461211705    0.03158727020645987    0.029939365184821654    0.02823182845180097    0.026532039655492053    
  0.024894845272943996    0.023366105689672956    0.021982913683634992    0.020770205083819535    0.01973788092334965    
  0.018882168280969974    0.018191059020813895    0.017650358618524757    0.017247055444687576    0.016969743606183925    
  0.01680841126553285    0.016755582534341215    0.016808411265532758    0.016969743606183925    0.01724705544468767    
  0.017650358618524757    0.0181910590208139    0.01888216828096994    0.01973788092334964    0.020770205083819573    
  0.021982913683634996    0.02336610568967295    0.024894845272943937    0.026532039655492053    0.028231828451800972    
  0.029939365184821647    0.03158727020645989    0.03309445046121174    0.03437321439647159    0.035343772663719145    
  0.03594766884766664    0.036152294003551154    0.043897777982540555    0.04360738241398046    0.04275266644439643    
  0.04138450136378096    0.039588235219469754    0.037475261842500864    0.0351660476614101    0.032773127011704456    
  0.030392525049294197    0.028103928880004465    0.025972994878840784    0.02405010991553296    0.022366282413198862    
  0.020931315324117468    0.01973788092334964    0.01876987839219986    0.018009944978791232    0.017442410499910195    
  0.017052584509522194    0.016826306362219542    0.016752341872815085    0.016826306362219493    0.017052584509522215    
  0.017442410499910174    0.018009944978791232    0.01876987839219989    0.01973788092334958    0.02093131532411742    
  0.022366282413198917    0.02405010991553291    0.025972994878840798    0.02810392888000442    0.030392525049294197    
  0.03277312701170447    0.03516604766141011    0.037475261842500864    0.03958823521946982    0.04138450136378093    
  0.04275266644439644    0.04360738241398039    0.043897777982540555    0.05365998306479178    0.0532533310943414    
  0.052060575975499616    0.050161716542868155    0.04768246055974048    0.04477864679463997    0.04161477714282323    
  0.03834490313944136    0.0351026077044297    0.031999229781901006    0.0291238917584387    0.026540800097762583    
  0.024285638711843027    0.02236628241319888    0.020770205083819535    0.01947535087751246    0.018458642438536565    
  0.017698965296048388    0.01717647782697814    0.016872611218940608    0.016773137044299568    0.016872611218940556    
  0.017176477826978124    0.017698965296048353    0.018458642438536565    0.019475350877512475    0.02077020508381951    
  0.022366282413198876    0.024285638711843045    0.026540800097762583    0.029123891758438675    0.03199922978190097    
  0.0351026077044297    0.03834490313944137    0.041614777142823245    0.044778646794639956    0.04768246055974055    
  0.05016171654286815    0.05206057597549963    0.05325333109434133    0.05365998306479178    0.06571815193291593    
  0.06515923238102013    0.06352497839433437    0.06093652108411417    0.05757561286747315    0.05365874378057849    
  0.04940976862484384    0.04503810350968175    0.04072624200028224    0.03662457873387438    0.032848414242806385    
  0.02947465567439737    0.026540800097762583    0.024050109915532924    0.021982913683635016    0.020309259867133597    