#     DFTpy    
  CRYSTAL 
    
  PRIMVEC    
  4.041513641989981    -2.2205000000000002e-10    4.208800000000001e-10    
  -2.2205000000000002e-10    4.041513641755141    2.0280000000000001e-10    
  7.691000000000001e-10    3.7065000000000006e-10    7.404131319212961    
  PRIMCOORD    
  4    1    
  Si    2.0207568209179905    2.02075682198965    2.2752469771691106    
  Si    7.493500000000001e-10    -6.935100000000002e-10    1.4268186799484601    
  Si    1.1493000000000001e-10    5.237700000000001e-10    5.977312635064821    
  Si    2.0207568215238605    2.0207568204544804    5.128884346867211    
  BEGIN_BLOCK_DATAGRID_3D    
  3d_datagrid_density    
  BEGIN_DATAGRID_3D#0    
  41    41    73    
  0.0    0.0    0.0    
  4.041513657064904    -2.2205000082825078e-10    4.208800015698905e-10    
  -2.2205000082825078e-10    4.041513656830063    2.028000007564479e-10    
  7.691000028687578e-10    3.7065000138253164e-10    7.404131346830512    
  0.27428831801384135    0.27071121237603424    0.26033059112186624    0.24411402463178766    0.22344457362995002    
  0.19990266357384662    0.17508462605374156    0.1504483547775588    0.12717582527753085    0.10608201661004832    
  0.08760641151903246    0.07188001917613776    0.05882089171203735    0.04821652050303249    0.039784508883248    
  0.03322177577695104    0.028245769726408267    0.02462046158235808    0.02216364077765185    0.02074403390649769    
  0.02028017041173079    0.020744033906497684    0.022163640777651882    0.02462046158235806    0.028245769726408267    
  0.033221775776950985    0.03978450888324799    0.048216520503032496    0.058820891712037325    0.07188001917613776    
  0.08760641151903244    0.10608201661004832    0.12717582527753085    0.15044835477755875    0.1750846260537416    
  0.19990266357384656    0.22344457362995002    0.24411402463178766    0.26033059112186624    0.27071121237603424    
  0.27428831801384135    0.2707112123760343    0.2671927931857354    0.2569812266173911    0.24102497398275669    
  0.2206805427517083    0.19749957100045037    0.17305152645778754    0.14877212920279792    0.12582742471622632    
  0.10502297365228883    0.08679428354458504    0.07127204734024857    0.058376245841138645    0.04789804033344741    
  0.039560332911016266    0.03306638047022803    0.028139785892167275    0.024549326396748457    0.02211584708802089    
  0.020709725956119543    0.02025027902552604    0.02070972595611954    0.02211584708802092    0.024549326396748436    
  0.028139785892167275    0.033066380470227995    0.039560332911016266    0.04789804033344743    0.058376245841138596    
  0.07127204734024856    0.086794283544585    0.1050229736522888    0.12582742471622632    0.14877212920279795    
  0.1730515264577875    0.1974995710004504    0.2206805427517083    0.24102497398275669    0.2569812266173911    
  0.2671927931857354    0.2707112123760343    0.26033059112186635    0.256981226617391    0.24725717688207605    
  0.23205301289116673    0.21264958745865137    0.19051543964647977    0.16714154474618026    0.14389838261589763    
  0.12190515887010563    0.10193999409143648    0.08442710809088896    0.06949666716218612    0.05707465300865051    
  0.04696318123626082    0.038900591360814675    0.03260827231217842    0.027827206897289146    0.02433966222668813    
  0.02197511837727769    0.020608762566367355    0.020162320226370527    0.020608762566367327    0.021975118377277697    
  0.02433966222668813    0.027827206897289146    0.0326082723121784    0.038900591360814675    0.046963181236260844    
  0.05707465300865049    0.06949666716218612    0.08442710809088898    0.10193999409143649    0.12190515887010563    
  0.14389838261589763    0.16714154474618026    0.19051543964647977    0.21264958745865137    0.23205301289116678    
  0.24725717688207605    0.2569812266173911    0.26033059112186635    0.24411402463178766    0.24102497398275674    
  0.23205301289116667    0.2180128396567265    0.20007122861824214    0.17956865160027954    0.15787261205874184    
  0.13624960601166314    0.11574396721162843    0.09709029313977585    0.08069538158513899    0.06668928430628837    
  0.05500828963666838    0.04547243088371684    0.03784435996708732    0.031873110881752854    0.027325534721610888    
  0.02400376625829512    0.02175020622692081    0.02044767004214994    0.020022043060611176    0.020447670042149913    
  0.021750206226920824    0.02400376625829511    0.027325534721610888    0.031873110881752785    0.03784435996708731    
  0.04547243088371685    0.05500828963666838    0.06668928430628836    0.08069538158513898    0.09709029313977581    
  0.11574396721162843    0.13624960601166317    0.15787261205874187    0.1795686516002795    0.2000712286182421    
  0.21801283965672655    0.23205301289116667    0.24102497398275677    0.24411402463178766    0.2234445736299501    
  0.2206805427517083    0.2126495874586513    0.20007122861824214    0.18397383049981442    0.16553883352202975    
  0.1459768315709193    0.126419749569369    0.10781386432187175    0.09083631375791786    0.07587073483780216    
  0.06304713796686831    0.0523159032868161    0.04352103024506873    0.03645648776670232    0.030905537549924963    
  0.02666608982990391    0.023563873552212438    0.021457062100817006    0.020238541768332053    0.01984022162680048    
  0.020238541768332056    0.021457062100817045    0.023563873552212445    0.02666608982990391    0.030905537549924932    
  0.03645648776670232    0.04352103024506877    0.05231590328681608    0.06304713796686827    0.07587073483780216    
  0.09083631375791781    0.10781386432187175    0.126419749569369    0.14597683157091929    0.16553883352202978    
  0.18397383049981442    0.20007122861824214    0.2126495874586513    0.2206805427517083    0.2234445736299501    
  0.19990266357384662    0.19749957100045035    0.19051543964647977    0.17956865160027943    0.16553883352202975    
  0.14943365787705903    0.13228874702534882    0.11508260675858345    0.09864696184081881    0.08358965847334626    
  0.07026476261885896    0.05880076585534874    0.04916439776812228    0.04122796275656175    0.034821344485026905    
  0.02976554410991671    0.02589168919130625    0.0230506061887633    0.021117924298771504    0.01999863366857829    
  0.019632452210402353    0.01999863366857827    0.02111792429877151    0.023050606188763277    0.02589168919130625    
  0.02976554410991664    0.03482134448502688    0.04122796275656176    0.04916439776812226    0.05880076585534873    
  0.07026476261885897    0.08358965847334622    0.09864696184081881    0.11508260675858346    0.13228874702534882    
  0.14943365787705898    0.16553883352202978    0.17956865160027954    0.19051543964647977    0.19749957100045035    
  0.19990266357384662    0.17508462605374153    0.17305152645778754    0.16714154474618026    0.1578726120587418    
  0.14597683157091934    0.13228874702534874    0.1176671641358844    0.10293162110755791    0.08879075006792257    
  0.07577401180083332    0.06419901384381942    0.05418961498850318    0.045729224288343986    0.03872043079080744    
  0.03303067428714351    0.028519068726547206    0.025049521774599653    0.022497793634271415    0.020757722528867952    
  0.01974783652120388    0.019417005682101085    0.019747836521203883    0.020757722528867976    0.022497793634271367    
  0.025049521774599653    0.028519068726547157    0.03303067428714354    0.038720430790807475    0.045729224288343986    
  0.05418961498850316    0.06419901384381943    0.07577401180083329    0.08879075006792257    0.10293162110755788    
  0.11766716413588438    0.13228874702534876    0.14597683157091929    0.15787261205874184    0.16714154474618031    
  0.1730515264577875    0.17508462605374153    0.15044835477755875    0.148772129202798    0.14389838261589769    
  0.13624960601166317    0.126419749569369    0.11508260675858349    0.10293162110755791    0.09063365594658647    
  0.07877385018192556    0.06779832836463077    0.05798267348564622    0.0494427176168076    0.04217743641983758    
  0.03611910874331826    0.031171061466681867    0.027227732001310616    0.024183105473621833    0.021936388719087572    
  0.020399485082908602    0.019504992613035246    0.01921144637119119    0.019504992613035246    0.020399485082908637    
  0.021936388719087554    0.024183105473621833    0.027227732001310626    0.03117106146668189    0.03611910874331827    
  0.042177436419837566    0.0494427176168076    0.05798267348564623    0.06779832836463076    0.07877385018192556    
  0.09063365594658648    0.10293162110755788    0.11508260675858349    0.126419749569369    0.1362496060116632    
  0.14389838261589769    0.148772129202798    0.15044835477755875    0.12717582527753082    0.1258274247162263    
  0.1219051588701056    0.11574396721162834    0.10781386432187175    0.09864696184081878    0.08879075006792264    
  0.07877385018192558    0.06906466292680924    0.060026445397749525    0.05189061404926873    0.044762944802230226    
  0.038656192848375744    0.033529395604888206    0.029317018942633073    0.025943312889714232    0.02332786725167526    
  0.02139081601459753    0.02006107750723821    0.019284746426498904    0.019029491323223756    0.019284746426498887    
  0.02006107750723823    0.021390816014597518    0.02332786725167526    0.025943312889714194    0.029317018942633093    
  0.03352939560488822    0.038656192848375744    0.044762944802230205    0.051890614049268736    0.060026445397749505    
  0.06906466292680924    0.07877385018192558    0.08879075006792264    0.09864696184081875    0.10781386432187175    
  0.11574396721162837    0.12190515887010558    0.1258274247162263    0.12717582527753082    0.10608201661004836    
  0.10502297365228881    0.10193999409143652    0.09709029313977581    0.09083631375791791    0.08358965847334626    
  0.07577401180083326    0.06779832836463082    0.06002644539774948    0.052744743573229134    0.046142467527822806    
  0.0403151348762513    0.03528706124406204    0.031039283736299886    0.027530580834854042    0.02470798780242768    
  0.02251140022328233    0.020878812247534028    0.019754374129373167    0.019096094842967152    0.01887930679279036    
  0.019096094842967152    0.019754374129373184    0.02087881224753403    0.02251140022328233    0.024707987802427677    
  0.027530580834854077    0.031039283736299914    0.03528706124406202    0.04031513487625128    0.04614246752782281    
  0.052744743573229086    0.06002644539774948    0.0677983283646308    0.0757740118008333    0.08358965847334625    
  0.09083631375791786    0.09709029313977585    0.10193999409143649    0.1050229736522889    0.10608201661004836    
  0.08760641151903245    0.086794283544585    0.08442710809088892    0.08069538158513898    0.07587073483780217    
  0.07026476261885897    0.06419901384381942    0.05798267348564622    0.051890614049268716    0.046142467527822834    
  0.04089023965455981    0.03621978877787623    0.03216395272883174    0.028719836433001075    0.025863125443084323    
  0.0235567273816537    0.021755860685900536    0.020413345177217605    0.01948641238197795    0.01894283751196502    
  0.018763673136232163    0.018942837511965006    0.019486412381977927    0.020413345177217632    0.021755860685900536    
  0.02355672738165371    0.025863125443084382    0.02871983643300111    0.03216395272883174    0.03621978877787624    
  0.04089023965455977    0.04614246752782277    0.051890614049268716    0.05798267348564623    0.06419901384381942    
  0.07026476261885893    0.07587073483780217    0.08069538158513898    0.08442710809088895    0.08679428354458502    
  0.08760641151903245    0.07188001917613772    0.07127204734024854    0.06949666716218605    0.0666892843062883    
  0.0630471379668683    0.058800765855348706    0.05418961498850317    0.049442717616807616    0.04476294480223019    
  0.04031513487625124    0.036219788777876225    0.03255308496273058    0.029352247887215997    0.0266241987402644    
  0.024354980335615912    0.022517842502365465    0.02107935862920341    0.020004471886613945    0.019261329528937846    
  0.018825398798256097    0.01868173443693814    0.018825398798256097    0.019261329528937856    0.020004471886613955    
  0.02107935862920341    0.022517842502365413    0.024354980335615974    0.026624198740264376    0.029352247887215972    
  0.032553084962730565    0.03621978877787624    0.04031513487625122    0.04476294480223019    0.0494427176168076    
  0.05418961498850316    0.058800765855348686    0.06304713796686828    0.0666892843062883    0.06949666716218605    
  0.07127204734024857    0.07188001917613772    0.058820891712037374    0.058376245841138645    0.05707465300865047    
  0.05500828963666835    0.05231590328681616    0.04916439776812227    0.04572922428834396    0.04217743641983753    
  0.03865619284837571    0.035287061244062    0.032163952728831706    0.029352247887215938    0.02688889184804072    
  0.0247851051818206    0.023032491454327782    0.021610868752156294    0.020495126943013697    0.019659793093655765    
  0.019081876265507225    0.018743043723984693    0.0186314620414722    0.018743043723984644    0.01908187626550727    
  0.019659793093655745    0.020495126943013697    0.021610868752156287    0.023032491454327782    0.024785105181820623    
  0.026888891848040695    0.029352247887215927    0.03216395272883169    0.03528706124406198    0.03865619284837571    
  0.04217743641983753    0.04572922428834398    0.04916439776812227    0.05231590328681612    0.05500828963666838    
  0.05707465300865047    0.05837624584113863    0.058820891712037374    0.048216520503032496    0.04789804033344745    
  0.04696318123626078    0.04547243088371684    0.043521030245068815    0.041227962756561765    0.038720430790807524    
  0.036119108743318334    0.033529395604888206    0.031039283736299956    0.028719836433001092    0.026624198740264424    
  0.024785105181820682    0.02321422489388492    0.021905883992107085    0.02084409840330115    0.020009465408973352    
  0.019383371481896724    0.01894962495684593    0.01869521891271377    0.018611449568231225    0.01869521891271372    
  0.018949624956845917    0.019383371481896807    0.020009465408973352    0.020844098403301134    0.021905883992107168    
  0.023214224893884954    0.024785105181820682    0.026624198740264393    0.028719836433001106    0.031039283736299886    
  0.033529395604888206    0.03611910874331832    0.0387204307908075    0.04122796275656178    0.0435210302450688    
  0.04547243088371685    0.046963181236260795    0.04789804033344745    0.048216520503032496    0.03978450888324799    
  0.03956033291101626    0.03890059136081465    0.037844359967087335    0.036456487766702336    0.03482134448502688    
  0.03303067428714351    0.03117106146668185    0.029317018942633073    0.027530580834854063    0.025863125443084285    
  0.024354980335615957    0.023032491454327862    0.021905883992107154    0.020970963875784548    0.020214491323030836    
  0.019620383241017395    0.01917397197027793    0.018863636188900548    0.018680944264943312    0.018620649097218275    
  0.018680944264943312    0.018863636188900502    0.019173971970277943    0.019620383241017395    0.020214491323030815    
  0.020970963875784576    0.021905883992107168    0.023032491454327876    0.02435498033561594    0.025863125443084257    
  0.027530580834853994    0.029317018942633073    0.031171061466681884    0.03303067428714351    0.03482134448502688    
  0.036456487766702315    0.037844359967087314    0.038900591360814654    0.039560332911016224    0.03978450888324799    
  0.03322177577695106    0.03306638047022813    0.03260827231217839    0.03187311088175283    0.030905537549924998    
  0.02976554410991668    0.02851906872654719    0.027227732001310633    0.025943312889714264    0.024707987802427677    
  0.023556727381653715    0.02251784250236543    0.021610868752156336    0.02084409840330115    0.020214491323030756    
  0.01971078030197645    0.019318409340516172    0.019024101560584396    0.018818482585616664    0.018696434322222094    
  0.018655907212542885    0.01869643432222207    0.01881848258561663    0.019024101560584396    0.019318409340516172    
  0.019710780301976476    0.020214491323030836    0.020844098403301183    0.021610868752156297    0.02251784250236544    
  0.023556727381653732    0.024707987802427646    0.025943312889714264    0.02722773200131064    0.028519068726547196    
  0.029765544109916685    0.030905537549924967    0.03187311088175284    0.0326082723121784    0.03306638047022808    
  0.03322177577695106    0.02824576972640829    0.028139785892167354    0.027827206897289083    0.02732553472161087    
  0.026666089829904004    0.025891689191306244    0.02504952177459969    0.02418310547362187    0.02332786725167532    
  0.02251140022328232    0.021755860685900536    0.02107935862920339    0.02049512694301374    0.020009465408973377    
  0.019620383241017395    0.019318409340516172    0.019089834225522    0.018921288537590897    0.018803601899891106    
  0.01873300820984731    0.01870933603220582    0.01873300820984733    0.018803601899891106    0.018921288537590966    
  0.019089834225522    0.019318409340516172    0.019620383241017454    0.020009465408973363    0.020495126943013753    
  0.02107935862920339    0.02175586068590054    0.022511400223282303    0.02332786725167532    0.024183105473621874    
  0.025049521774599705    0.02589168919130627    0.02666608982990399    0.027325534721610877    0.0278272068972891    
  0.028139785892167316    0.02824576972640829    0.024620461582358113    0.024549326396748505    0.024339662226688097    
  0.02400376625829513    0.023563873552212525    0.023050606188763256    0.02249779363427138    0.02193638871908759    
  0.02139081601459749    0.02087881224753407    0.020413345177217605    0.020004471886613927    0.01965979309365585    
  0.01938337148189669    0.01917397197027787    0.01902410156058443    0.01892128853759092    0.01885187757582174    
  0.018805590482244987    0.01877787778561881    0.018768469242056718    0.01877787778561874    0.018805590482244987    
  0.018851877575821834    0.01892128853759092    0.019024101560584396    0.019173971970277953    0.019383371481896738    
  0.019659793093655824    0.020004471886613934    0.020413345177217598    0.020878812247534045    0.02139081601459749    
  0.021936388719087603    0.02249779363427138    0.02305060618876329    0.02356387355221249    0.024003766258295145    
  0.02433966222668808    0.02454932639674851    0.024620461582358113    0.022163640777651834    0.022115847088020904    
  0.02197511837727763    0.021750206226920765    0.021457062100817072    0.02111792429877145    0.02075772252886792    
  0.020399485082908595    0.020061077507238158    0.01975437412937314    0.019486412381977847    0.019261329528937856    
  0.019081876265507346    0.018949624956845882    0.018863636188900548    0.018818482585616615    0.01880360189989113    
  0.018805590482244987    0.01881267112419901    0.018818113792778902    0.018819958817832955    0.018818113792778902    
  0.018812671124199033    0.018805590482244963    0.01880360189989113    0.01881848258561663    0.018863636188900596    
  0.018949624956845917    0.01908187626550733    0.01926132952893782    0.019486412381977892    0.019754374129373142    
  0.020061077507238158    0.02039948508290863    0.020757722528867907    0.021117924298771452    0.02145706210081704    
  0.021750206226920754    0.02197511837727764    0.022115847088020866    0.022163640777651834    0.02074403390649769    
  0.020709725956119564    0.020608762566367313    0.020447670042149885    0.020238541768332098    0.01999863366857831    
  0.019747836521203932    0.019504992613035253    0.01928474642649886    0.01909609484296719    0.01894283751196503    
  0.018825398798256118    0.018743043723984727    0.01869521891271377    0.018680944264943253    0.01869643432222207    
  0.018733008209847284    0.018777877785618763    0.01881811379277883    0.018844790338283252    0.018853971081547773    
  0.018844790338283183    0.018818113792778854    0.018777877785618787    0.018733008209847284    0.01869643432222202    
  0.018680944264943346    0.01869521891271379    0.018743043723984717    0.018825398798256097    0.018942837511965023    
  0.019096094842967173    0.01928474642649886    0.019504992613035278    0.019747836521203932    0.019998633668578316    
  0.020238541768332112    0.020447670042149875    0.02060876256636732    0.02070972595611955    0.02074403390649769    
  0.020280170411730795    0.02025027902552613    0.02016232022637046    0.020022043060611134    0.01984022162680051    
  0.01963245221040234    0.019417005682101057    0.01921144637119117    0.019029491323223686    0.01887930679279035    
  0.018763673136232104    0.018681734436938064    0.018631462041472223    0.01861144956823112    0.018620649097218216    
  0.018655907212542826    0.018709336032205787    0.018768469242056624    0.01881995881783286    0.0188539710815477    
  0.01886571162503061    0.0188539710815477    0.018819958817832817    0.018768469242056718    0.018709336032205787    
  0.01865590721254284    0.018620649097218216    0.01861144956823113    0.018631462041472247    0.018681734436938047    
  0.01876367313623212    0.018879306792790353    0.019029491323223686    0.019211446371191196    0.019417005682101054    
  0.019632452210402336    0.01984022162680049    0.020022043060611144    0.020162320226370503    0.020250279025526098    
  0.020280170411730795    0.020744033906497702    0.02070972595611957    0.020608762566367313    0.020447670042149913    
  0.020238541768332105    0.019998633668578333    0.019747836521203935    0.01950499261303523    0.019284746426498852    
  0.0190960948429672    0.01894283751196502    0.01882539879825613    0.018743043723984727    0.018695218912713744    
  0.018680944264943298    0.018696434322222094    0.018733008209847284    0.018777877785618718    0.018818113792778902    
  0.018844790338283252    0.01885397108154775    0.018844790338283252    0.018818113792778854    0.01877787778561874    
  0.018733008209847284    0.018696434322222056    0.018680944264943367    0.018695218912713744    0.018743043723984738    
  0.018825398798256097    0.018942837511965047    0.01909609484296719    0.019284746426498852    0.019504992613035278    
  0.019747836521203932    0.01999863366857833    0.02023854176833211    0.020447670042149917    0.020608762566367324    
  0.02070972595611957    0.020744033906497702    0.022163640777651844    0.022115847088020914    0.021975118377277635    
  0.02175020622692077    0.02145706210081703    0.021117924298771452    0.02075772252886793    0.020399485082908578    
  0.020061077507238137    0.01975437412937314    0.019486412381977868    0.01926132952893783    0.019081876265507298    
  0.018949624956845882    0.018863636188900502    0.01881848258561663    0.01880360189989113    0.01880559048224494    
  0.018812671124199033    0.018818113792778878    0.018819958817832935    0.018818113792778854    0.018812671124199033    
  0.01880559048224501    0.01880360189989113    0.01881848258561663    0.018863636188900596    0.01894962495684595    
  0.019081876265507298    0.019261329528937807    0.01948641238197788    0.019754374129373142    0.020061077507238137    
  0.020399485082908602    0.020757722528867935    0.02111792429877146    0.021457062100817038    0.021750206226920758    
  0.02197511837727765    0.02211584708802086    0.022163640777651844    0.024620461582358134    0.024549326396748505    
  0.024339662226688093    0.024003766258295135    0.023563873552212487    0.023050606188763294    0.022497793634271374    
  0.02193638871908757    0.021390816014597504    0.020878812247534087    0.020413345177217615    0.020004471886613934    
  0.019659793093655824    0.019383371481896762    0.01917397197027786    0.01902410156058443    0.018921288537590966    
  0.01885187757582181    0.018805590482244987    0.018777877785618763    0.018768469242056718    0.018777877785618718    
  0.018805590482244987    0.01885187757582186    0.018921288537590966    0.019024101560584445    0.01917397197027792    
  0.019383371481896762    0.01965979309365584    0.020004471886613938    0.020413345177217632    0.02087881224753407    
  0.021390816014597504    0.021936388719087596    0.02249779363427139    0.023050606188763284    0.02356387355221249    
  0.024003766258295128    0.024339662226688104    0.024549326396748505    0.024620461582358134    0.02824576972640829    
  0.028139785892167354    0.027827206897289083    0.02732553472161087    0.026666089829904004    0.025891689191306244    
  0.02504952177459969    0.02418310547362187    0.02332786725167532    0.02251140022328232    0.021755860685900536    
  0.02107935862920339    0.02049512694301374    0.020009465408973377    0.019620383241017395    0.019318409340516172    
  0.019089834225522    0.018921288537590897    0.018803601899891106    0.01873300820984731    0.01870933603220582    
  0.01873300820984733    0.018803601899891106    0.018921288537590966    0.019089834225522    0.019318409340516172    
  0.019620383241017454    0.020009465408973363    0.020495126943013753    0.02107935862920339    0.02175586068590054    
  0.022511400223282303    0.02332786725167532    0.024183105473621874    0.025049521774599705    0.02589168919130627    
  0.02666608982990399    0.027325534721610877    0.0278272068972891    0.028139785892167316    0.02824576972640829    
  0.033221775776951026    0.03306638047022809    0.03260827231217839    0.03187311088175282    0.030905537549925022    
  0.02976554410991665    0.02851906872654718    0.02722773200131064    0.025943312889714173    0.02470798780242766    
  0.02355672738165371    0.02251784250236544    0.021610868752156304    0.02084409840330115    0.020214491323030766    
  0.01971078030197645    0.019318409340516172    0.01902410156058442    0.018818482585616605    0.01869643432222214    
  0.01865590721254284    0.01869643432222213    0.01881848258561659    0.019024101560584445    0.019318409340516172    
  0.019710780301976476    0.02021449132303086    0.020844098403301186    0.02161086875215628    0.02251784250236545    
  0.02355672738165371    0.024707987802427635    0.025943312889714173    0.02722773200131066    0.028519068726547175    
  0.029765544109916685    0.030905537549924984    0.03187311088175282    0.03260827231217839    0.033066380470228064    
  0.033221775776951026    0.03978450888324798    0.03956033291101623    0.03890059136081464    0.0378443599670873    
  0.03645648776670235    0.03482134448502688    0.03303067428714349    0.03117106146668185    0.029317018942633073    
  0.027530580834854053    0.02586312544308421    0.024354980335615978    0.023032491454327852    0.021905883992107144    
  0.020970963875784572    0.020214491323030836    0.019620383241017433    0.01917397197027793    0.018863636188900523    
  0.018680944264943322    0.01862064909721831    0.018680944264943298    0.018863636188900523    0.01917397197027792    
  0.019620383241017433    0.02021449132303086    0.02097096387578463    0.02190588399210715    0.023032491454327834    
  0.024354980335615933    0.025863125443084292    0.027530580834854042    0.029317018942633073    0.03117106146668187    
  0.033030674287143486    0.03482134448502687    0.03645648776670231    0.0378443599670873    0.03890059136081464    
  0.039560332911016204    0.03978450888324798    0.04821652050303251    0.04789804033344745    0.04696318123626081    
  0.0454724308837168    0.04352103024506883    0.041227962756561765    0.038720430790807496    0.03611910874331831    
  0.033529395604888226    0.031039283736299956    0.0287198364330011    0.0266241987402644    0.024785105181820682    
  0.02321422489388493    0.021905883992107102    0.020844098403301203    0.020009465408973352    0.019383371481896762    
  0.018949624956845858    0.01869521891271378    0.018611449568231214    0.01869521891271377    0.018949624956845892    
  0.019383371481896762    0.020009465408973352    0.02084409840330114    0.021905883992107168    0.02321422489388498    
  0.024785105181820703    0.02662419874026439    0.02871983643300111    0.031039283736299897    0.033529395604888226    
  0.036119108743318314    0.038720430790807524    0.04122796275656178    0.04352103024506879    0.0454724308837168    
  0.04696318123626081    0.04789804033344748    0.04821652050303251    0.058820891712037374    0.058376245841138645    
  0.05707465300865045    0.05500828963666835    0.05231590328681612    0.04916439776812226    0.045729224288343966    
  0.04217743641983758    0.03865619284837572    0.035287061244062015    0.032163952728831685    0.029352247887215938    
  0.026888891848040695    0.024785105181820564    0.02303249145432777    0.02161086875215632    0.020495126943013715    
  0.019659793093655755    0.019081876265507253    0.018743043723984644    0.018631462041472268    0.018743043723984668    
  0.01908187626550723    0.019659793093655765    0.020495126943013715    0.021610868752156287    0.023032491454327807    
  0.0247851051818206    0.02688889184804072    0.029352247887215927    0.0321639527288317    0.035287061244062015    
  0.03865619284837572    0.04217743641983756    0.04572922428834396    0.04916439776812228    0.0523159032868161    
  0.05500828963666838    0.05707465300865046    0.058376245841138645    0.058820891712037374    0.07188001917613772    
  0.0712720473402486    0.06949666716218605    0.06668928430628829    0.0630471379668683    0.05880076585534873    
  0.05418961498850318    0.04944271761680759    0.04476294480223018    0.040315134876251296    0.036219788777876225    
  0.03255308496273061    0.02935224788721599    0.026624198740264376    0.02435498033561594    0.02251784250236549    
  0.0210793586292034    0.020004471886613973    0.01926132952893788    0.01882539879825613    0.018681734436938123    