#     DFTpy    
  CRYSTAL 
    
  PRIMVEC    
  3.3526192711962306    -1.8420000000000005e-10    3.4914000000000005e-10    
  -1.8420000000000005e-10    3.3526192710014207    1.6823000000000002e-10    
  6.380000000000001e-10    3.074700000000001e-10    6.142063480710751    
  PRIMCOORD    
  4    1    
  Si    1.6763096355342404    1.6763096364232404    1.8874207878789204    
  Si    6.216200000000001e-10    -5.753000000000002e-10    1.1836109504117902    
  Si    9.534000000000002e-11    4.3449000000000017e-10    4.958452526815141    
  Si    1.6763096360368406    1.6763096351497404    4.254642696833021    
  BEGIN_BLOCK_DATAGRID_3D    
  3d_datagrid_density    
  BEGIN_DATAGRID_3D#0    
  33    33    61    
  0.0    0.0    0.0    
  3.3526192837015643    -1.8420000068706955e-10    3.491400013022989e-10    
  -1.8420000068706955e-10    3.3526192835067543    1.6823000062750115e-10    
  6.380000023797523e-10    3.074700011468691e-10    6.142063503620765    
  0.5443132569450796    0.5354742029928583    0.5099057764092102    0.47036148971259617    0.4210115246060327    
  0.36666027409713026    0.31179585378722596    0.2598989154618387    0.21323473609719032    0.173005362900097    
  0.1396147356917378    0.1129109214257428    0.09239405046345986    0.07740243679043922    0.06726836497629315    
  0.061434161928773094    0.059532189611570925    0.061434161928773094    0.06726836497629315    0.07740243679043922    
  0.09239405046345986    0.1129109214257428    0.1396147356917378    0.173005362900097    0.21323473609719032    
  0.2598989154618387    0.31179585378722596    0.36666027409713026    0.4210115246060327    0.47036148971259617    
  0.5099057764092102    0.5354742029928583    0.5443132569450796    0.5354742029928583    0.5268254638721699    
  0.5018015994522527    0.46308145014080276    0.4147281941741388    0.3614339375968502    0.3075954439859455    
  0.2566341812314753    0.21078365436459703    0.17123205756307766    0.13838217117893717    0.11209169342512398    
  0.09187786122065723    0.07709825887542297    0.06710227659072274    0.06134531780198637    0.05946811608645798    
  0.06134531780198637    0.06710227659072274    0.07709825887542297    0.09187786122065723    0.11209169342512398    
  0.13838217117893717    0.17123205756307766    0.21078365436459703    0.2566341812314753    0.3075954439859455    
  0.3614339375968502    0.4147281941741388    0.46308145014080276    0.5018015994522527    0.5268254638721699    
  0.5354742029928583    0.5099057764092102    0.5018015994522527    0.4783392578556362    0.441991019241769    
  0.3965184378086906    0.346289833402169    0.29543203725350886    0.24718796050570094    0.20369540920093435    
  0.16610365242344952    0.13481567766337332    0.10971975237876819    0.09038318035946644    0.07621851235269123    
  0.06662368254118534    0.06109135188051544    0.059286221499831364    0.06109135188051544    0.06662368254118534    
  0.07621851235269123    0.09038318035946644    0.10971975237876819    0.13481567766337332    0.16610365242344952    
  0.20369540920093435    0.24718796050570094    0.29543203725350886    0.346289833402169    0.3965184378086906    
  0.441991019241769    0.4783392578556362    0.5018015994522527    0.5099057764092102    0.47036148971259617    
  0.46308145014080276    0.44199101924176887    0.40926867912009934    0.3682323532553004    0.3227552355378531    
  0.2765344734072259    0.23251897098219565    0.19268847630384472    0.15813370535403204    0.12926526282739417    
  0.10602373946217845    0.08805389647450242    0.0748505891821588    0.06588442750638322    0.06070461497391289    
  0.05901266176102949    0.06070461497391289    0.06588442750638322    0.0748505891821588    0.08805389647450242    
  0.10602373946217845    0.12926526282739417    0.15813370535403204    0.19268847630384472    0.23251897098219565    
  0.2765344734072259    0.3227552355378531    0.3682323532553004    0.40926867912009934    0.44199101924176887    
  0.46308145014080276    0.47036148971259617    0.42101152460603275    0.4147281941741388    0.3965184378086906    
  0.36823235325530046    0.33267176755848493    0.2931078763936009    0.25269194490336144    0.21398503183234244    
  0.17875541987910373    0.14801956752625886    0.12220248731965676    0.10131166669723643    0.08508443381685529    
  0.07311255774746726    0.06495385244869897    0.0602273827111399    0.058681048599234314    0.0602273827111399    
  0.06495385244869897    0.07311255774746726    0.08508443381685529    0.10131166669723643    0.12220248731965676    
  0.14801956752625886    0.17875541987910373    0.21398503183234244    0.25269194490336144    0.2931078763936009    
  0.33267176755848493    0.36823235325530046    0.3965184378086906    0.4147281941741388    0.42101152460603275    
  0.36666027409713015    0.3614339375968502    0.346289833402169    0.3227552355378531    0.2931078763936009    
  0.25998513489551484    0.22594180958634927    0.19309993599131656    0.16298163201715335    0.1365144863442392    
  0.11413478784848491    0.09591567629781714    0.08168522015211417    0.07113259486435247    0.0639075516840579    
  0.059706134436505166    0.0583285756639084    0.059706134436505166    0.0639075516840579    0.07113259486435247    
  0.08168522015211417    0.09591567629781714    0.11413478784848491    0.1365144863442392    0.16298163201715335    
  0.19309993599131656    0.22594180958634927    0.25998513489551484    0.2931078763936009    0.3227552355378531    
  0.346289833402169    0.3614339375968502    0.36666027409713015    0.3117958537872259    0.3075954439859454    
  0.2954320372535087    0.27653447340722603    0.2526919449033613    0.22594180958634918    0.19826104559609764    
  0.17133316335837032    0.14642359832946422    0.1243568160450355    0.10556417824000142    0.09016645225734111    
  0.07806578198080379    0.06903795011782797    0.06282091751646408    0.059188248954460905    0.05799385399848476    
  0.059188248954460905    0.06282091751646408    0.06903795011782797    0.07806578198080379    0.09016645225734111    
  0.10556417824000142    0.1243568160450355    0.14642359832946422    0.17133316335837032    0.19826104559609764    
  0.22594180958634918    0.2526919449033613    0.27653447340722603    0.2954320372535087    0.3075954439859454    
  0.3117958537872259    0.2598989154618387    0.2566341812314754    0.24718796050570094    0.23251897098219557    
  0.21398503183234235    0.19309993599131653    0.17133316335837034    0.1499722898302311    0.13003666362922184    
  0.11223513505976573    0.09696998054778443    0.08438272441038436    0.07442640380972544    0.06694722924320787    
  0.061761600347256605    0.058714489103228004    0.05770938818096656    0.058714489103228004    0.061761600347256605    
  0.06694722924320787    0.07442640380972544    0.08438272441038436    0.09696998054778443    0.11223513505976573    
  0.13003666362922184    0.1499722898302311    0.17133316335837034    0.19309993599131653    0.21398503183234235    
  0.23251897098219557    0.24718796050570094    0.2566341812314754    0.2598989154618387    0.21323473609719037    
  0.21078365436459703    0.20369540920093435    0.19268847630384475    0.17875541987910362    0.16298163201715335    
  0.1464235983294642    0.1300366636292218    0.11461666034112401    0.10074801288913304    0.08878055178707919    
  0.07885160176025724    0.07094447719484978    0.06496002225090032    0.06078004033864108    0.05830921258518672    
  0.05749150136100563    0.05830921258518672    0.06078004033864108    0.06496002225090032    0.07094447719484978    
  0.07885160176025724    0.08878055178707919    0.10074801288913304    0.11461666034112401    0.1300366636292218    
  0.1464235983294642    0.16298163201715335    0.17875541987910362    0.19268847630384475    0.20369540920093435    
  0.21078365436459703    0.21323473609719037    0.173005362900097    0.17123205756307763    0.16610365242344952    
  0.15813370535403196    0.1480195675262588    0.13651448634423918    0.1243568160450356    0.11223513505976573    
  0.100748012889133    0.0903523154356217    0.08132986508660531    0.07379766169769775    0.0677558702611055    
  0.06314728104562019    0.05990487385806228    0.05797784802123968    0.05733830196319109    0.05797784802123968    
  0.05990487385806228    0.06314728104562019    0.0677558702611055    0.07379766169769775    0.08132986508660531    
  0.0903523154356217    0.100748012889133    0.11223513505976573    0.1243568160450356    0.13651448634423918    
  0.1480195675262588    0.15813370535403196    0.16610365242344952    0.17123205756307763    0.173005362900097    
  0.13961473569173777    0.1383821711789372    0.1348156776633733    0.12926526282739423    0.12220248731965666    
  0.11413478784848485    0.10556417824000142    0.09696998054778443    0.08878055178707916    0.08132986508660531    
  0.074826878156585    0.0693619199775537    0.0649449898009948    0.061550592549422856    0.059148339395168295    
  0.05771556516340613    0.05723934994172202    0.05771556516340613    0.059148339395168295    0.061550592549422856    
  0.0649449898009948    0.0693619199775537    0.074826878156585    0.08132986508660531    0.08878055178707916    
  0.09696998054778443    0.10556417824000142    0.11413478784848485    0.12220248731965666    0.12926526282739423    
  0.1348156776633733    0.1383821711789372    0.13961473569173777    0.11291092142574283    0.11209169342512398    
  0.10971975237876823    0.1060237394621785    0.10131166669723642    0.09591567629781718    0.09016645225734114    
  0.0843827244103844    0.07885160176025728    0.07379766169769768    0.06936191997755375    0.0656084660776379    
  0.06255306980935749    0.06019221200384531    0.058517687587872576    0.05751956054047685    0.05718824546780754    
  0.05751956054047685    0.058517687587872576    0.06019221200384531    0.06255306980935749    0.0656084660776379    
  0.06936191997755375    0.07379766169769768    0.07885160176025728    0.0843827244103844    0.09016645225734114    
  0.09591567629781718    0.10131166669723642    0.1060237394621785    0.10971975237876823    0.11209169342512398    
  0.11291092142574283    0.09239405046345986    0.09187786122065732    0.0903831803594665    0.08805389647450243    
  0.08508443381685525    0.08168522015211412    0.07806578198080386    0.07442640380972544    0.07094447719484978    
  0.06775587026110552    0.06494498980099477    0.06255306980935744    0.06059769371666301    0.059087185509023935    
  0.05802225765760133    0.05739339863102844    0.05718613221710063    0.05739339863102844    0.05802225765760133    
  0.059087185509023935    0.06059769371666301    0.06255306980935744    0.06494498980099477    0.06775587026110552    
  0.07094447719484978    0.07442640380972544    0.07806578198080386    0.08168522015211412    0.08508443381685525    
  0.08805389647450243    0.0903831803594665    0.09187786122065732    0.09239405046345986    0.07740243679043925    
  0.07709825887542297    0.07621851235269118    0.0748505891821588    0.07311255774746724    0.07113259486435246    
  0.069037950117828    0.0669472292432079    0.06496002225090036    0.06314728104562019    0.061550592549422904    
  0.06019221200384531    0.059087185509023886    0.05824630141277534    0.0576690105950147    0.05733872228497225    
  0.057232278789574736    0.05733872228497225    0.0576690105950147    0.05824630141277534    0.059087185509023886    
  0.06019221200384531    0.061550592549422904    0.06314728104562019    0.06496002225090036    0.0669472292432079    
  0.069037950117828    0.07113259486435246    0.07311255774746724    0.0748505891821588    0.07621851235269118    
  0.07709825887542297    0.07740243679043925    0.06726836497629321    0.06710227659072285    0.06662368254118528    
  0.06588442750638321    0.06495385244869897    0.06390755168405786    0.0628209175164641    0.0617616003472567    
  0.06078004033864113    0.05990487385806232    0.059148339395168344    0.058517687587872534    0.05802225765760138    
  0.05766901059501465    0.057450780366713104    0.05734166645474677    0.057310083742995725    0.05734166645474677    
  0.057450780366713104    0.05766901059501465    0.05802225765760138    0.058517687587872534    0.059148339395168344    
  0.05990487385806232    0.06078004033864113    0.0617616003472567    0.0628209175164641    0.06390755168405786    
  0.06495385244869897    0.06588442750638321    0.06662368254118528    0.06710227659072285    0.06726836497629321    
  0.06143416192877308    0.06134531780198645    0.06109135188051534    0.06070461497391286    0.060227382711139865    
  0.05970613443650507    0.05918824895446095    0.058714489103227956    0.05830921258518679    0.05797784802123973    
  0.05771556516340613    0.0575195605404768    0.05739339863102835    0.05733872228497225    0.05734166645474668    
  0.057369076209935706    0.05738371205477275    0.057369076209935706    0.05734166645474668    0.05733872228497225    
  0.05739339863102835    0.0575195605404768    0.05771556516340613    0.05797784802123973    0.05830921258518679    
  0.058714489103227956    0.05918824895446095    0.05970613443650507    0.060227382711139865    0.06070461497391286    
  0.06109135188051534    0.06134531780198645    0.06143416192877308    0.059532189611570974    0.05946811608645791    
  0.05928622149983134    0.059012661761029477    0.058681048599234197    0.05832857566390836    0.05799385399848474    
  0.05770938818096649    0.05749150136100558    0.05733830196319114    0.05723934994172202    0.05718824546780749    
  0.05718613221710053    0.057232278789574736    0.057310083742995586    0.0573837120547728    0.05741398760309754    
  0.0573837120547728    0.057310083742995586    0.057232278789574736    0.05718613221710053    0.05718824546780749    
  0.05723934994172202    0.05733830196319114    0.05749150136100558    0.05770938818096649    0.05799385399848474    
  0.05832857566390836    0.058681048599234197    0.059012661761029477    0.05928622149983134    0.05946811608645791    
  0.059532189611570974    0.06143416192877308    0.06134531780198645    0.06109135188051534    0.06070461497391286    
  0.060227382711139865    0.05970613443650507    0.05918824895446095    0.058714489103227956    0.05830921258518679    
  0.05797784802123973    0.05771556516340613    0.0575195605404768    0.05739339863102835    0.05733872228497225    
  0.05734166645474668    0.057369076209935706    0.05738371205477275    0.057369076209935706    0.05734166645474668    
  0.05733872228497225    0.05739339863102835    0.0575195605404768    0.05771556516340613    0.05797784802123973    
  0.05830921258518679    0.058714489103227956    0.05918824895446095    0.05970613443650507    0.060227382711139865    
  0.06070461497391286    0.06109135188051534    0.06134531780198645    0.06143416192877308    0.06726836497629321    
  0.06710227659072285    0.06662368254118528    0.06588442750638321    0.06495385244869897    0.06390755168405786    
  0.0628209175164641    0.0617616003472567    0.06078004033864113    0.05990487385806232    0.059148339395168344    
  0.058517687587872534    0.05802225765760138    0.05766901059501465    0.057450780366713104    0.05734166645474677    
  0.057310083742995725    0.05734166645474677    0.057450780366713104    0.05766901059501465    0.05802225765760138    
  0.058517687587872534    0.059148339395168344    0.05990487385806232    0.06078004033864113    0.0617616003472567    
  0.0628209175164641    0.06390755168405786    0.06495385244869897    0.06588442750638321    0.06662368254118528    
  0.06710227659072285    0.06726836497629321    0.07740243679043925    0.07709825887542297    0.07621851235269118    
  0.0748505891821588    0.07311255774746724    0.07113259486435246    0.069037950117828    0.0669472292432079    
  0.06496002225090036    0.06314728104562019    0.061550592549422904    0.06019221200384531    0.059087185509023886    
  0.05824630141277534    0.0576690105950147    0.05733872228497225    0.057232278789574736    0.05733872228497225    
  0.0576690105950147    0.05824630141277534    0.059087185509023886    0.06019221200384531    0.061550592549422904    
  0.06314728104562019    0.06496002225090036    0.0669472292432079    0.069037950117828    0.07113259486435246    
  0.07311255774746724    0.0748505891821588    0.07621851235269118    0.07709825887542297    0.07740243679043925    
  0.09239405046345986    0.09187786122065732    0.0903831803594665    0.08805389647450243    0.08508443381685525    
  0.08168522015211412    0.07806578198080386    0.07442640380972544    0.07094447719484978    0.06775587026110552    
  0.06494498980099477    0.06255306980935744    0.06059769371666301    0.059087185509023935    0.05802225765760133    
  0.05739339863102844    0.05718613221710063    0.05739339863102844    0.05802225765760133    0.059087185509023935    
  0.06059769371666301    0.06255306980935744    0.06494498980099477    0.06775587026110552    0.07094447719484978    
  0.07442640380972544    0.07806578198080386    0.08168522015211412    0.08508443381685525    0.08805389647450243    
  0.0903831803594665    0.09187786122065732    0.09239405046345986    0.11291092142574283    0.11209169342512398    
  0.10971975237876823    0.1060237394621785    0.10131166669723642    0.09591567629781718    0.09016645225734114    
  0.0843827244103844    0.07885160176025728    0.07379766169769768    0.06936191997755375    0.0656084660776379    
  0.06255306980935749    0.06019221200384531    0.058517687587872576    0.05751956054047685    0.05718824546780754    
  0.05751956054047685    0.058517687587872576    0.06019221200384531    0.06255306980935749    0.0656084660776379    
  0.06936191997755375    0.07379766169769768    0.07885160176025728    0.0843827244103844    0.09016645225734114    
  0.09591567629781718    0.10131166669723642    0.1060237394621785    0.10971975237876823    0.11209169342512398    
  0.11291092142574283    0.13961473569173777    0.1383821711789372    0.1348156776633733    0.12926526282739423    
  0.12220248731965666    0.11413478784848485    0.10556417824000142    0.09696998054778443    0.08878055178707916    
  0.08132986508660531    0.074826878156585    0.0693619199775537    0.0649449898009948    0.061550592549422856    
  0.059148339395168295    0.05771556516340613    0.05723934994172202    0.05771556516340613    0.059148339395168295    
  0.061550592549422856    0.0649449898009948    0.0693619199775537    0.074826878156585    0.08132986508660531    
  0.08878055178707916    0.09696998054778443    0.10556417824000142    0.11413478784848485    0.12220248731965666    
  0.12926526282739423    0.1348156776633733    0.1383821711789372    0.13961473569173777    0.173005362900097    
  0.17123205756307763    0.16610365242344952    0.15813370535403196    0.1480195675262588    0.13651448634423918    
  0.1243568160450356    0.11223513505976573    0.100748012889133    0.0903523154356217    0.08132986508660531    
  0.07379766169769775    0.0677558702611055    0.06314728104562019    0.05990487385806228    0.05797784802123968    
  0.05733830196319109    0.05797784802123968    0.05990487385806228    0.06314728104562019    0.0677558702611055    
  0.07379766169769775    0.08132986508660531    0.0903523154356217    0.100748012889133    0.11223513505976573    
  0.1243568160450356    0.13651448634423918    0.1480195675262588    0.15813370535403196    0.16610365242344952    
  0.17123205756307763    0.173005362900097    0.21323473609719037    0.21078365436459703    0.20369540920093435    
  0.19268847630384475    0.17875541987910362    0.16298163201715335    0.1464235983294642    0.1300366636292218    
  0.11461666034112401    0.10074801288913304    0.08878055178707919    0.07885160176025724    0.07094447719484978    
  0.06496002225090032    0.06078004033864108    0.05830921258518672    0.05749150136100563    0.05830921258518672    
  0.06078004033864108    0.06496002225090032    0.07094447719484978    0.07885160176025724    0.08878055178707919    
  0.10074801288913304    0.11461666034112401    0.1300366636292218    0.1464235983294642    0.16298163201715335    
  0.17875541987910362    0.19268847630384475    0.20369540920093435    0.21078365436459703    0.21323473609719037    
  0.2598989154618387    0.2566341812314754    0.24718796050570094    0.23251897098219557    0.21398503183234235    
  0.19309993599131653    0.17133316335837034    0.1499722898302311    0.13003666362922184    0.11223513505976573    
  0.09696998054778443    0.08438272441038436    0.07442640380972544    0.06694722924320787    0.061761600347256605    
  0.058714489103228004    0.05770938818096656    0.058714489103228004    0.061761600347256605    0.06694722924320787    
  0.07442640380972544    0.08438272441038436    0.09696998054778443    0.11223513505976573    0.13003666362922184    
  0.1499722898302311    0.17133316335837034    0.19309993599131653    0.21398503183234235    0.23251897098219557    
  0.24718796050570094    0.2566341812314754    0.2598989154618387    0.3117958537872259    0.3075954439859454    
  0.2954320372535087    0.27653447340722603    0.2526919449033613    0.22594180958634918    0.19826104559609764    
  0.17133316335837032    0.14642359832946422    0.1243568160450355    0.10556417824000142    0.09016645225734111    
  0.07806578198080379    0.06903795011782797    0.06282091751646408    0.059188248954460905    0.05799385399848476    
  0.059188248954460905    0.06282091751646408    0.06903795011782797    0.07806578198080379    0.09016645225734111    
  0.10556417824000142    0.1243568160450355    0.14642359832946422    0.17133316335837032    0.19826104559609764    
  0.22594180958634918    0.2526919449033613    0.27653447340722603    0.2954320372535087    0.3075954439859454    
  0.3117958537872259    0.36666027409713015    0.3614339375968502    0.346289833402169    0.3227552355378531    
  0.2931078763936009    0.25998513489551484    0.22594180958634927    0.19309993599131656    0.16298163201715335    
  0.1365144863442392    0.11413478784848491    0.09591567629781714    0.08168522015211417    0.07113259486435247    
  0.0639075516840579    0.059706134436505166    0.0583285756639084    0.059706134436505166    0.0639075516840579    
  0.07113259486435247    0.08168522015211417    0.09591567629781714    0.11413478784848491    0.1365144863442392    
  0.16298163201715335    0.19309993599131656    0.22594180958634927    0.25998513489551484    0.2931078763936009    
  0.3227552355378531    0.346289833402169    0.3614339375968502    0.36666027409713015    0.42101152460603275    
  0.4147281941741388    0.3965184378086906    0.36823235325530046    0.33267176755848493    0.2931078763936009    
  0.25269194490336144    0.21398503183234244    0.17875541987910373    0.14801956752625886    0.12220248731965676    
  0.10131166669723643    0.08508443381685529    0.07311255774746726    0.06495385244869897    0.0602273827111399    
  0.058681048599234314    0.0602273827111399    0.06495385244869897    0.07311255774746726    0.08508443381685529    
  0.10131166669723643    0.12220248731965676    0.14801956752625886    0.17875541987910373    0.21398503183234244    
  0.25269194490336144    0.2931078763936009    0.33267176755848493    0.36823235325530046    0.3965184378086906    
  0.4147281941741388    0.42101152460603275    0.47036148971259617    0.46308145014080276    0.44199101924176887    
  0.40926867912009934    0.3682323532553004    0.3227552355378531    0.2765344734072259    0.23251897098219565    
  0.19268847630384472    0.15813370535403204    0.12926526282739417    0.10602373946217845    0.08805389647450242    
  0.0748505891821588    0.06588442750638322    0.06070461497391289    0.05901266176102949    0.06070461497391289    
  0.06588442750638322    0.0748505891821588    0.08805389647450242    0.10602373946217845    0.12926526282739417    
  0.15813370535403204    0.19268847630384472    0.23251897098219565    0.2765344734072259    0.3227552355378531    
  0.3682323532553004    0.40926867912009934    0.44199101924176887    0.46308145014080276    0.47036148971259617    
  0.5099057764092102    0.5018015994522527    0.4783392578556362    0.441991019241769    0.3965184378086906    
  0.346289833402169    0.29543203725350886    0.24718796050570094    0.20369540920093435    0.16610365242344952    
  0.13481567766337332    0.10971975237876819    0.09038318035946644    0.07621851235269123    0.06662368254118534    
  0.06109135188051544    0.059286221499831364    0.06109135188051544    0.06662368254118534    0.07621851235269123    
  0.09038318035946644    0.10971975237876819    0.13481567766337332    0.16610365242344952    0.20369540920093435    
  0.24718796050570094    0.29543203725350886    0.346289833402169    0.3965184378086906    0.441991019241769    
  0.4783392578556362    0.5018015994522527    0.5099057764092102    0.5354742029928583    0.5268254638721699    
  0.5018015994522527    0.46308145014080276    0.4147281941741388    0.3614339375968502    0.3075954439859455    
  0.2566341812314753    0.21078365436459703    0.17123205756307766    0.13838217117893717    0.11209169342512398    
  0.09187786122065723    0.07709825887542297    0.06710227659072274    0.06134531780198637    0.05946811608645798    
  0.06134531780198637    0.06710227659072274    0.07709825887542297    0.09187786122065723    0.11209169342512398    
  0.13838217117893717    0.17123205756307766    0.21078365436459703    0.2566341812314753    0.3075954439859455    
  0.3614339375968502    0.4147281941741388    0.46308145014080276    0.5018015994522527    0.5268254638721699    
  0.5354742029928583    0.5443132569450796    0.5354742029928583    0.5099057764092102    0.47036148971259617    
  0.4210115246060327    0.36666027409713026    0.31179585378722596    0.2598989154618387    0.21323473609719032    
  0.173005362900097    0.1396147356917378    0.1129109214257428    0.09239405046345986    0.07740243679043922    
  0.06726836497629315    0.061434161928773094    0.059532189611570925    0.061434161928773094    0.06726836497629315    
  0.07740243679043922    0.09239405046345986    0.1129109214257428    0.1396147356917378    0.173005362900097    
  0.21323473609719032    0.2598989154618387    0.31179585378722596    0.36666027409713026    0.4210115246060327    
  0.47036148971259617    0.5099057764092102    0.5354742029928583    0.5443132569450796    0.5463502323648172    
  0.5375854784683362    0.5122090543969345    0.47289495560963296    0.4237184246869918    0.36941097105839044    
  0.3144353189146599    0.2622989542951391    0.2153301660944282    0.17479993083687462    0.14115686271441505    
  0.11425733418251313    0.09358608150323433    0.07846611030602396    0.06822840432840814    0.062324987338184076    
  0.06039858654722746    0.062324987338184076    0.06822840432840814    0.07846611030602396    0.09358608150323433    
  0.11425733418251313    0.14115686271441505    0.17479993083687462    0.2153301660944282    0.2622989542951391    
  0.3144353189146599    0.36941097105839044    0.4237184246869918    0.47289495560963296    0.5122090543969345    
  0.5375854784683362    0.5463502323648172    0.5375854784683362    0.5290051992511079    0.504157919385958    
  0.4656482660500024    0.4174504897997492    0.36418794842556085    0.31023308468189675    0.2590327877406134    
  0.21288110506983526    0.1730328148297838    0.1399337592897164    0.1134492982467145    0.09308154219941216    
  0.07817352125828435    0.06807393687248918    0.0622479808559258    0.06034648024953591    0.0622479808559258    
  0.06807393687248918    0.07817352125828435    0.09308154219941216    0.1134492982467145    0.1399337592897164    
  0.1730328148297838    0.21288110506983526    0.2590327877406134    0.31023308468189675    0.36418794842556085    
  0.4174504897997492    0.4656482660500024    0.504157919385958    0.5290051992511079    0.5375854784683362    
  0.5122090543969344    0.5041579193859581    0.4808312793809414    0.444640864542869    0.39927514695387    
  0.3490451435405708    0.29805702262779044    0.24957592844013046    0.20579351581890853    0.1679186769402507    
  0.13639239228078687    0.11110852450971674    0.09162008898565753    0.07732739499062763    0.06762950211382784    
  0.062029092535602195    0.06020013905095165    0.062029092535602195    0.06762950211382784    0.07732739499062763    
  0.09162008898565753    0.11110852450971674    0.13639239228078687    0.1679186769402507    0.20579351581890853    
  0.24957592844013046    0.29805702262779044    0.3490451435405708    0.39927514695387    0.444640864542869    
  0.4808312793809414    0.5041579193859581    0.5122090543969344    0.47289495560963285    0.4656482660500024    
  0.4446408645428689    0.4120073612593805    0.3710128710984521    0.3254893990961942    0.2791203224328444    
  0.2348740191951734    0.1947748421878901    0.1599619934710232    0.13087539396629289    0.10745773726384218    
  0.08934108604954406    0.07601195372809945    0.06694489166486492    0.0616993074501555    0.059984575532593475    
  0.0616993074501555    0.06694489166486492    0.07601195372809945    0.08934108604954406    0.10745773726384218    
  0.13087539396629289    0.1599619934710232    0.1947748421878901    0.2348740191951734    0.2791203224328444    
  0.3254893990961942    0.3710128710984521    0.4120073612593805    0.4446408645428689    0.4656482660500024    
  0.47289495560963285    0.4237184246869919    0.4174504897997493    0.39927514695387    0.37101287109845216    
  0.3354315502129095    0.29577837021176856    0.25520039545145873    0.21627716680682915    0.18081139632734455    
  0.14985392619613874    0.12384776802658044    0.10279842297438029    0.08643324839278262    0.07434089026373802    
  0.06608632072323821    0.0612985406826427    0.059731279204037986    0.0612985406826427    0.06608632072323821    