#     DFTpy    
  CRYSTAL 
    
  PRIMVEC    
  3.1459509599581104    -1.7284000000000002e-10    3.276100000000001e-10    
  -1.7284000000000002e-10    3.1459509597753006    1.5786000000000004e-10    
  5.986700000000001e-10    2.8852000000000005e-10    5.763443129160091    
  PRIMCOORD    
  4    1    
  Si    1.5729754799191205    1.5729754807533103    1.7710729310918603    
  Si    5.833000000000001e-10    -5.398400000000001e-10    1.1106486315507902    
  Si    8.946000000000002e-11    4.0771000000000003e-10    4.652794494340231    
  Si    1.5729754803907305    1.5729754795583204    3.9923702018227702    
  BEGIN_BLOCK_DATAGRID_3D    
  3d_datagrid_density    
  BEGIN_DATAGRID_3D#0    
  31    31    55    
  0.0    0.0    0.0    
  3.1459509716925678    -1.7284000064469652e-10    3.2761000122199166e-10    
  -1.7284000064469652e-10    3.1459509715097576    1.5786000058882085e-10    
  5.986700022330506e-10    2.885200010761852e-10    5.763443150657844    
  0.6559763841727951    0.6451599046206837    0.6139073907564981    0.5655944441439508    0.5051868353208829    
  0.43841629134512167    0.3708822136955719    0.3072481724487751    0.25071291180603855    0.2028945584986145    
  0.16412195960921316    0.1339454165479535    0.11160997231857038    0.09634319314348713    0.08748825100132568    
  0.08459149169182364    0.08748825100132572    0.09634319314348709    0.11160997231857038    0.13394541654795347    
  0.16412195960921316    0.20289455849861449    0.25071291180603855    0.307248172448775    0.3708822136955719    
  0.4384162913451216    0.5051868353208828    0.5655944441439509    0.6139073907564981    0.6451599046206837    
  0.6559763841727951    0.6451599046206837    0.6345517600265734    0.6039130322386452    0.5565788318011664    
  0.49743186747824447    0.4320754950090426    0.365956685704299    0.30360295892811373    0.24812994345891226    
  0.20113600616625785    0.1629757900531033    0.13324204331035644    0.11121770090730694    0.09615666471629215    
  0.08741871619440704    0.08455985677491475    0.08741871619440707    0.09615666471629211    0.11121770090730694    
  0.1332420433103564    0.16297579005310336    0.20113600616625782    0.24812994345891226    0.3036029589281137    
  0.365956685704299    0.4320754950090425    0.49743186747824436    0.5565788318011665    0.6039130322386452    
  0.6345517600265734    0.6451599046206837    0.6139073907564981    0.6039130322386452    0.5750713152152336    
  0.5305747931691464    0.4750485676270083    0.4137295738516638    0.35164659551365174    0.29295710240899087    
  0.2405463675515806    0.19595062459071644    0.15958710300948764    0.1311607662556872    0.11005851915336777    
  0.09560867373801983    0.08721881849976541    0.08447283139094845    0.08721881849976545    0.09560867373801983    
  0.11005851915336777    0.13116076625568715    0.1595871030094876    0.19595062459071644    0.24054636755158065    
  0.2929571024089907    0.35164659551365174    0.4137295738516638    0.4750485676270083    0.5305747931691464    
  0.5750713152152335    0.6039130322386451    0.6139073907564981    0.5655944441439509    0.5565788318011666    
  0.5305747931691464    0.4904899925461355    0.4405062614758202    0.38530444491853894    0.3293225622596971    
  0.2762049981058191    0.22850718800323444    0.18765784343310693    0.15414117472466196    0.12780894830395895    
  0.10819412404258875    0.0947348331150938    0.08691110611548304    0.08434907927757489    0.08691110611548311    
  0.09473483311509377    0.10819412404258875    0.12780894830395892    0.154141174724662    0.1876578434331069    
  0.2285071880032345    0.276204998105819    0.3293225622596971    0.3853044449185389    0.44050626147582    
  0.4904899925461355    0.5305747931691464    0.5565788318011665    0.5655944441439509    0.5051868353208829    
  0.49743186747824447    0.47504856762700837    0.4405062614758202    0.39737424012669575    0.34965045967844377    
  0.30110679051737316    0.2548254223870796    0.21298729980889602    0.17687396520637996    0.14701419465222573    
  0.12340639448133267    0.10574434954361316    0.09359417739251413    0.08652243003844565    0.0842054837497686    
  0.08652243003844573    0.0935941773925141    0.10574434954361316    0.12340639448133267    0.14701419465222576    
  0.17687396520638    0.21298729980889602    0.25482542238707956    0.30110679051737316    0.3496504596784437    
  0.3973742401266957    0.4405062614758202    0.4750485676270083    0.49743186747824447    0.5051868353208829    
  0.43841629134512167    0.4320754950090426    0.413729573851664    0.38530444491853894    0.3496504596784439    
  0.31002306886710584    0.26951982446389605    0.2306721291254226    0.19528381073662243    0.16446446984654495    
  0.13875543638892002    0.1182794854371065    0.1028834892963601    0.0922628438977424    0.08607396624995721    
  0.08404553847384069    0.08607396624995728    0.09226284389774236    0.10288348929636006    0.11827948543710642    
  0.13875543638892002    0.16446446984654492    0.19528381073662235    0.2306721291254225    0.26951982446389605    
  0.31002306886710584    0.34965045967844377    0.385304444918539    0.413729573851664    0.4320754950090425    
  0.43841629134512167    0.37088221369557195    0.36595668570429907    0.35164659551365174    0.3293225622596971    
  0.3011067905173732    0.269519824463896    0.2370142610635381    0.2056076325870129    0.1767471724142062    
  0.1513617625523649    0.1299747877178987    0.1127993584883706    0.09981129802844714    0.09082370357713673    
  0.08557966015436508    0.08386028524897816    0.08557966015436515    0.09082370357713668    0.09981129802844714    
  0.11279935848837061    0.12997478771789872    0.1513617625523649    0.17674717241420615    0.20560763258701284    
  0.2370142610635381    0.26951982446389594    0.3011067905173731    0.32932256225969714    0.3516465955136518    
  0.365956685704299    0.37088221369557195    0.3072481724487751    0.3036029589281136    0.29295710240899087    
  0.27620499810581906    0.2548254223870796    0.23067212912542254    0.20560763258701284    0.18118315918152345    
  0.15852103326551983    0.13837144115062053    0.12121174255567861    0.1073034157607484    0.09671514057119535    
  0.0893577303586163    0.08505553419725338    0.08364372317250798    0.08505553419725342    0.08935773035861626    
  0.09671514057119535    0.10730341576074849    0.12121174255567864    0.1383714411506205    0.1585210332655198    
  0.1811831591815234    0.20560763258701284    0.2306721291254225    0.2548254223870796    0.27620499810581906    
  0.2929571024089908    0.3036029589281137    0.3072481724487751    0.25071291180603866    0.24812994345891232    
  0.24054636755158068    0.22850718800323444    0.21298729980889622    0.19528381073662235    0.17674717241420623    
  0.15852103326551983    0.1414423865822191    0.1260912911199324    0.11287303232966385    0.10205161895959804    
  0.09374578898807231    0.08793886251234878    0.08452915163970162    0.08340781432238217    0.08452915163970172    
  0.08793886251234874    0.09374578898807231    0.102051618959598    0.11287303232966385    0.1260912911199324    
  0.1414423865822191    0.15852103326551975    0.17674717241420623    0.19528381073662232    0.2129872998088961    
  0.22850718800323452    0.24054636755158068    0.24812994345891226    0.25071291180603866    0.20289455849861457    
  0.20113600616625776    0.19595062459071655    0.1876578434331069    0.17687396520638007    0.16446446984654484    
  0.1513617625523649    0.13837144115062053    0.12609129111993234    0.11494613446919774    0.10525031391288422    
  0.09723017864614351    0.09101342493588865    0.08662830323816033    0.08403521317913498    0.08317899559315448    
  0.08403521317913513    0.08662830323816033    0.09101342493588865    0.09723017864614357    0.10525031391288414    
  0.11494613446919769    0.12609129111993234    0.13837144115062044    0.1513617625523649    0.16446446984654484    
  0.17687396520638002    0.18765784343310693    0.19595062459071652    0.20113600616625776    0.20289455849861457    
  0.1641219596092132    0.16297579005310328    0.1595871030094876    0.15414117472466188    0.14701419465222573    
  0.13875543638892    0.1299747877178987    0.12121174255567864    0.11287303232966375    0.10525031391288414    
  0.09856264855660397    0.09297511060112278    0.08859410026217496    0.0854667090858841    0.08359796126892312    
  0.08297706055865921    0.08359796126892322    0.0854667090858841    0.08859410026217496    0.09297511060112283    
  0.09856264855660397    0.10525031391288409    0.11287303232966375    0.1212117425556786    0.1299747877178987    
  0.13875543638891996    0.14701419465222565    0.15414117472466188    0.15958710300948756    0.16297579005310328    
  0.1641219596092132    0.13394541654795353    0.1332420433103565    0.13116076625568712    0.12780894830395892    
  0.12340639448133273    0.11827948543710648    0.11279935848837064    0.10730341576074863    0.10205161895959794    
  0.09723017864614351    0.09297511060112283    0.08938745326256776    0.08653777547869833    0.08447167050445793    
  0.08321896564711964    0.08279900592113261    0.08321896564711968    0.0844716705044579    0.08653777547869833    
  0.08938745326256774    0.09297511060112287    0.09723017864614351    0.10205161895959794    0.10730341576074856    
  0.11279935848837064    0.11827948543710648    0.12340639448133263    0.12780894830395892    0.13116076625568712    
  0.13324204331035647    0.13394541654795353    0.11160997231857045    0.11121770090730689    0.11005851915336777    
  0.10819412404258874    0.10574434954361313    0.10288348929635996    0.09981129802844714    0.09671514057119542    
  0.09374578898807227    0.09101342493588865    0.08859410026217496    0.08653777547869833    0.08487877006845808    
  0.08364934893080003    0.08288739845886543    0.08262841299889223    0.08288739845886547    0.0836493489308    
  0.08487877006845808    0.08653777547869833    0.08859410026217496    0.09101342493588865    0.09374578898807231    
  0.09671514057119537    0.09981129802844714    0.10288348929635996    0.10574434954361303    0.10819412404258875    
  0.11005851915336781    0.11121770090730689    0.11160997231857045    0.09634319314348724    0.09615666471629218    
  0.09560867373801983    0.09473483311509372    0.0935941773925141    0.09226284389774243    0.09082370357713673    
  0.08935773035861633    0.08793886251234878    0.08662830323816031    0.08546670908588416    0.08447167050445784    
  0.08364934893079995    0.08301554836763696    0.0826063599333854    0.08246367508766587    0.08260635993338543    
  0.08301554836763692    0.08364934893079992    0.08447167050445786    0.08546670908588416    0.08662830323816033    
  0.08793886251234878    0.08935773035861623    0.09082370357713673    0.0922628438977424    0.09359417739251406    
  0.09473483311509374    0.0956086737380199    0.09615666471629215    0.09634319314348724    0.08748825100132576    
  0.08741871619440707    0.08721881849976544    0.08691110611548299    0.08652243003844576    0.08607396624995718    
  0.08557966015436505    0.08505553419725348    0.08452915163970168    0.08403521317913504    0.08359796126892326    
  0.08321896564711972    0.08288739845886545    0.08260635993338546    0.08240753760732594    0.08233444330262885    
  0.08240753760732601    0.0826063599333854    0.08288739845886545    0.08321896564711978    0.08359796126892322    
  0.08403521317913498    0.08452915163970168    0.08505553419725338    0.08557966015436505    0.08607396624995715    
  0.08652243003844572    0.08691110611548294    0.0872188184997655    0.08741871619440707    0.08748825100132576    
  0.08459149169182369    0.0845598567749148    0.08447283139094844    0.08434907927757485    0.08420548374976855    
  0.0840455384738406    0.08386028524897816    0.08364372317250794    0.08340781432238215    0.08317899559315452    
  0.0829770605586593    0.08279900592113265    0.08262841299889226    0.08246367508766585    0.08233444330262893    
  0.08228440623475652    0.08233444330262897    0.08246367508766578    0.08262841299889226    0.08279900592113264    
  0.08297706055865925    0.08317899559315452    0.08340781432238215    0.08364372317250794    0.08386028524897816    
  0.08404553847384069    0.08420548374976851    0.08434907927757487    0.08447283139094847    0.0845598567749148    
  0.08459149169182369    0.08748825100132573    0.08741871619440703    0.08721881849976551    0.0869111061154829    
  0.08652243003844579    0.08607396624995713    0.08557966015436508    0.08505553419725348    0.08452915163970168    
  0.08403521317913498    0.08359796126892326    0.08321896564711972    0.08288739845886547    0.0826063599333855    
  0.08240753760732594    0.08233444330262893    0.08240753760732597    0.08260635993338546    0.08288739845886546    
  0.08321896564711975    0.08359796126892322    0.08403521317913494    0.08452915163970168    0.08505553419725338    
  0.08557966015436508    0.08607396624995713    0.08652243003844573    0.0869111061154829    0.08721881849976555    
  0.08741871619440704    0.08748825100132573    0.09634319314348727    0.09615666471629218    0.09560867373801983    
  0.09473483311509372    0.09359417739251417    0.0922628438977424    0.09082370357713677    0.0893577303586163    
  0.08793886251234884    0.08662830323816036    0.08546670908588419    0.08447167050445784    0.08364934893080002    
  0.08301554836763696    0.08260635993338543    0.08246367508766575    0.08260635993338548    0.0830155483676369    
  0.08364934893080002    0.08447167050445784    0.08546670908588416    0.08662830323816036    0.08793886251234878    
  0.08935773035861627    0.09082370357713677    0.0922628438977424    0.0935941773925141    0.09473483311509379    
  0.09560867373801983    0.09615666471629218    0.09634319314348727    0.11160997231857045    0.11121770090730689    
  0.11005851915336777    0.10819412404258874    0.10574434954361313    0.10288348929635996    0.09981129802844714    
  0.09671514057119542    0.09374578898807227    0.09101342493588865    0.08859410026217496    0.08653777547869833    
  0.08487877006845808    0.08364934893080003    0.08288739845886543    0.08262841299889223    0.08288739845886547    
  0.0836493489308    0.08487877006845808    0.08653777547869833    0.08859410026217496    0.09101342493588865    
  0.09374578898807231    0.09671514057119537    0.09981129802844714    0.10288348929635996    0.10574434954361303    
  0.10819412404258875    0.11005851915336781    0.11121770090730689    0.11160997231857045    0.13394541654795353    
  0.1332420433103565    0.13116076625568715    0.1278089483039589    0.12340639448133267    0.11827948543710648    
  0.11279935848837064    0.10730341576074853    0.10205161895959794    0.09723017864614347    0.09297511060112286    
  0.08938745326256771    0.08653777547869833    0.08447167050445793    0.08321896564711964    0.08279900592113264    
  0.08321896564711968    0.08447167050445789    0.08653777547869827    0.08938745326256774    0.09297511060112286    
  0.09723017864614351    0.10205161895959794    0.10730341576074849    0.11279935848837064    0.11827948543710645    
  0.12340639448133267    0.1278089483039589    0.1311607662556872    0.13324204331035644    0.13394541654795353    
  0.1641219596092132    0.16297579005310336    0.1595871030094876    0.1541411747246619    0.1470141946522258    
  0.13875543638891993    0.1299747877178986    0.12121174255567867    0.11287303232966375    0.10525031391288414    
  0.09856264855660397    0.09297511060112286    0.08859410026217496    0.08546670908588404    0.08359796126892316    
  0.08297706055865914    0.08359796126892322    0.08546670908588404    0.08859410026217496    0.09297511060112293    
  0.09856264855660397    0.10525031391288409    0.11287303232966375    0.1212117425556786    0.1299747877178986    
  0.13875543638891993    0.14701419465222573    0.15414117472466185    0.15958710300948764    0.16297579005310334    
  0.1641219596092132    0.2028945584986146    0.20113600616625774    0.1959506245907165    0.18765784343310682    
  0.17687396520638002    0.16446446984654486    0.1513617625523648    0.13837144115062053    0.1260912911199323    
  0.11494613446919764    0.10525031391288418    0.09723017864614351    0.09101342493588871    0.08662830323816036    
  0.08403521317913504    0.08317899559315457    0.08403521317913508    0.08662830323816031    0.09101342493588871    
  0.09723017864614357    0.10525031391288414    0.11494613446919764    0.1260912911199323    0.1383714411506205    
  0.1513617625523648    0.16446446984654484    0.17687396520637994    0.18765784343310693    0.19595062459071644    
  0.2011360061662578    0.2028945584986146    0.2507129118060386    0.24812994345891226    0.24054636755158068    
  0.22850718800323438    0.21298729980889622    0.19528381073662235    0.17674717241420618    0.15852103326551983    
  0.1414423865822191    0.1260912911199324    0.11287303232966385    0.10205161895959804    0.09374578898807245    
  0.08793886251234878    0.08452915163970162    0.08340781432238227    0.08452915163970162    0.08793886251234878    
  0.09374578898807241    0.102051618959598    0.11287303232966385    0.1260912911199324    0.14144238658221914    
  0.15852103326551975    0.17674717241420618    0.19528381073662235    0.2129872998088961    0.2285071880032345    
  0.24054636755158068    0.24812994345891223    0.2507129118060386    0.3072481724487751    0.3036029589281137    
  0.2929571024089908    0.27620499810581894    0.25482542238707967    0.2306721291254225    0.2056076325870129    
  0.18118315918152347    0.15852103326551975    0.13837144115062053    0.12121174255567868    0.10730341576074849    
  0.09671514057119533    0.08935773035861637    0.08505553419725342    0.08364372317250798    0.08505553419725348    
  0.08935773035861627    0.09671514057119533    0.10730341576074849    0.12121174255567868    0.13837144115062053    
  0.15852103326551978    0.1811831591815234    0.2056076325870129    0.23067212912542254    0.25482542238707956    
  0.27620499810581906    0.2929571024089908    0.3036029589281136    0.3072481724487751    0.37088221369557195    
  0.36595668570429907    0.35164659551365174    0.3293225622596971    0.3011067905173732    0.269519824463896    
  0.2370142610635381    0.2056076325870129    0.1767471724142062    0.1513617625523649    0.1299747877178987    
  0.1127993584883706    0.09981129802844714    0.09082370357713673    0.08557966015436508    0.08386028524897816    
  0.08557966015436515    0.09082370357713668    0.09981129802844714    0.11279935848837061    0.12997478771789872    
  0.1513617625523649    0.17674717241420615    0.20560763258701284    0.2370142610635381    0.26951982446389594    
  0.3011067905173731    0.32932256225969714    0.3516465955136518    0.365956685704299    0.37088221369557195    
  0.4384162913451218    0.4320754950090427    0.413729573851664    0.3853044449185389    0.3496504596784439    
  0.31002306886710584    0.269519824463896    0.2306721291254226    0.1952838107366224    0.16446446984654495    
  0.13875543638892    0.11827948543710648    0.10288348929636007    0.09226284389774234    0.08607396624995715    
  0.08404553847384069    0.08607396624995725    0.09226284389774234    0.1028834892963601    0.11827948543710638    
  0.13875543638892002    0.1644644698465449    0.19528381073662235    0.2306721291254225    0.269519824463896    
  0.31002306886710584    0.34965045967844377    0.38530444491853894    0.413729573851664    0.4320754950090426    
  0.4384162913451218    0.5051868353208829    0.49743186747824447    0.4750485676270083    0.4405062614758202    
  0.3973742401266958    0.34965045967844377    0.30110679051737316    0.25482542238707967    0.21298729980889602    
  0.17687396520638002    0.1470141946522257    0.12340639448133267    0.10574434954361306    0.09359417739251417    
  0.08652243003844573    0.0842054837497686    0.08652243003844579    0.0935941773925141    0.10574434954361303    
  0.12340639448133274    0.1470141946522258    0.17687396520638002    0.21298729980889602    0.2548254223870796    
  0.30110679051737316    0.3496504596784437    0.3973742401266957    0.4405062614758202    0.4750485676270083    
  0.49743186747824447    0.5051868353208829    0.5655944441439509    0.5565788318011666    0.5305747931691464    
  0.4904899925461355    0.4405062614758202    0.3853044449185389    0.32932256225969714    0.2762049981058191    
  0.22850718800323438    0.18765784343310693    0.15414117472466196    0.12780894830395895    0.10819412404258869    
  0.09473483311509379    0.08691110611548307    0.08434907927757489    0.08691110611548311    0.09473483311509379    
  0.10819412404258869    0.12780894830395892    0.15414117472466202    0.18765784343310687    0.22850718800323444    
  0.276204998105819    0.32932256225969714    0.3853044449185388    0.4405062614758201    0.4904899925461356    
  0.5305747931691464    0.5565788318011665    0.5655944441439509    0.6139073907564981    0.6039130322386452    
  0.5750713152152336    0.5305747931691464    0.47504856762700837    0.413729573851664    0.35164659551365174    
  0.29295710240899087    0.2405463675515806    0.19595062459071644    0.15958710300948764    0.13116076625568718    
  0.11005851915336781    0.09560867373801987    0.08721881849976543    0.08447283139094845    0.08721881849976545    
  0.09560867373801982    0.11005851915336781    0.13116076625568712    0.1595871030094876    0.19595062459071644    
  0.24054636755158065    0.29295710240899087    0.35164659551365174    0.4137295738516639    0.4750485676270083    
  0.5305747931691464    0.5750713152152336    0.6039130322386451    0.6139073907564981    0.6451599046206837    
  0.6345517600265734    0.6039130322386452    0.5565788318011665    0.49743186747824447    0.4320754950090426    
  0.36595668570429896    0.3036029589281137    0.24812994345891226    0.2011360061662578    0.16297579005310328    
  0.1332420433103564    0.11121770090730694    0.09615666471629213    0.08741871619440703    0.08455985677491477    
  0.08741871619440707    0.0961566647162921    0.11121770090730694    0.13324204331035636    0.16297579005310334    
  0.2011360061662578    0.24812994345891226    0.3036029589281136    0.36595668570429896    0.4320754950090426    
  0.49743186747824436    0.5565788318011666    0.6039130322386452    0.6345517600265734    0.6451599046206837    
  0.6559763841727951    0.6451599046206837    0.6139073907564981    0.5655944441439508    0.5051868353208829    
  0.43841629134512167    0.3708822136955719    0.3072481724487751    0.25071291180603855    0.2028945584986145    
  0.16412195960921316    0.1339454165479535    0.11160997231857038    0.09634319314348713    0.08748825100132568    
  0.08459149169182364    0.08748825100132572    0.09634319314348709    0.11160997231857038    0.13394541654795347    
  0.16412195960921316    0.20289455849861449    0.25071291180603855    0.307248172448775    0.3708822136955719    
  0.4384162913451216    0.5051868353208828    0.5655944441439509    0.6139073907564981    0.6451599046206837    
  0.6559763841727951    0.6533335274140398    0.6428352627517804    0.6124216466880315    0.5651911357702678    
  0.5058220962740597    0.43986330817385516    0.3728521021777651    0.309465771396252    0.2529547263817001    
  0.20501451193142123    0.16606200860794945    0.13571525514124624    0.1132460388535736    0.0978801289327249    
  0.08895904253788646    0.08603810226087708    0.0889590425378865    0.09788012893272485    0.1132460388535736    
  0.13571525514124622    0.16606200860794942    0.20501451193142123    0.2529547263817001    0.30946577139625187    
  0.3728521021777651    0.43986330817385516    0.5058220962740597    0.5651911357702678    0.6124216466880315    
  0.6428352627517803    0.6533335274140398    0.6428352627517803    0.6325296759322211    0.6026880172729849    
  0.5563804560412908    0.49821481774100074    0.43361974307830364    0.367984105244456    0.3058509565133354    
  0.2503878710686937    0.20326848712025214    0.16493097898094747    0.13503103149136333    0.112875517080585    
  0.09771620318632417    0.08891209849055874    0.08602896778405235    0.08891209849055878    0.09771620318632411    
  0.112875517080585    0.13503103149136328    0.1649309789809475    0.20326848712025214    0.25038787106869365    
  0.3058509565133353    0.367984105244456    0.43361974307830364    0.49821481774100074    0.5563804560412908    
  0.6026880172729848    0.6325296759322211    0.6428352627517803    0.6124216466880315    0.6026880172729849    
  0.5745321311600986    0.5309151148096231    0.47622084160663536    0.41553267619330975    0.3538307038378066    
  0.29529205853560925    0.24285472364039368    0.198124784001962    0.16159117683398105    0.13300908746432108    
  0.11178206495614545    0.0972356738659043    0.08877928239047708    0.08600867125167844    0.08877928239047715    
  0.09723567386590423    0.11178206495614545    0.13300908746432108    0.16159117683398105    0.198124784001962    
  0.2428547236403937    0.29529205853560914    0.3538307038378066    0.4155326761933097    0.47622084160663536    
  0.5309151148096231    0.5745321311600986    0.6026880172729848    0.6124216466880315    0.5651911357702677    
  0.5563804560412909    0.5309151148096231    0.4915183654998905    0.442176441919095    0.3874430564164733    
  0.33171724090593224    0.27866662972332096    0.2308999541370887    0.18990882125700664    0.15623361890718182    
  0.12975969164558296    0.11002764690361656    0.0964729786360205    0.08858148114600913    0.08599413478818893    
  0.08858148114600921    0.09647297863602046    0.11002764690361656    0.12975969164558296    0.15623361890718182    
  0.18990882125700664    0.2308999541370887    0.27866662972332085    0.33171724090593224    0.38744305641647325    
  0.4421764419190949    0.4915183654998906    0.5309151148096231    0.5563804560412908    0.5651911357702677    
  0.5058220962740597    0.49821481774100085    0.47622084160663536    0.4421764419190949    0.3995037439911517    
  0.3520993754456095    0.3037030212238852    0.2574207560921986    0.21548546650868383    0.17923341307270402    
  0.14923326845513576    0.12550055538698543    0.10772906575745918    0.0954841234589952    0.08834302406128837    
  0.08599999324936161    0.0883430240612885    0.09548412345899517    0.10772906575745918    0.12550055538698543    
  0.1492332684551358    0.17923341307270402    0.21548546650868378    0.2574207560921985    0.3037030212238852    
  0.35209937544560943    0.3995037439911516    0.442176441919095    0.47622084160663536    0.49821481774100074    
  0.5058220962740597    0.43986330817385516    0.43361974307830364    0.4155326761933098    0.38744305641647325    
  0.3520993754456096    0.3126792516701389    0.27225230273379175    0.23337069425387072    0.19788473155865    
  0.16694819498697022    0.14112672276518357    0.12054682314965684    0.10505117506316589    0.09433820347571001    
  0.08808012594705314    0.0860255935251352    0.08808012594705324    0.09433820347570997    0.10505117506316589    
  0.1205468231496568    0.14112672276518357    0.16694819498697022    0.19788473155865    0.2333706942538706    
  0.27225230273379175    0.3126792516701388    0.3520993754456095    0.38744305641647336    0.4155326761933098    
  0.43361974307830364    0.43986330817385516    0.37285210217776515    0.367984105244456    0.3538307038378066    
  0.3317172409059323    0.30370302122388526    0.27225230273379175    0.2397932094204108    0.20835762297951874    
  0.17942874452951216    0.15396631665869634    0.13250431535822715    0.11525100121107307    0.10217781844320346    
  0.09310574043144819    0.08779725959071347    0.08605358665545058    0.08779725959071356    0.09310574043144813    
  0.10217781844320346    0.11525100121107307    0.1325043153582272    0.15396631665869634    0.17942874452951205    
  0.2083576229795187    0.2397932094204108    0.2722523027337917    0.30370302122388515    0.3317172409059323    
  0.3538307038378067    0.367984105244456    0.37285210217776515    0.30946577139625203    0.3058509565133353    
  0.29529205853560925    0.27866662972332096    0.25742075609219867    0.2333706942538706    0.20835762297951874    
  0.18393843779110441    0.16125730924214282    0.14108111425515246    0.12388785940848196    0.10993117698887887    
  0.09927833377553327    0.09185207323638105    0.08749673860627682    0.08606496315168767    0.08749673860627682    
  0.09185207323638096    0.0992783337755333    0.10993117698887891    0.12388785940848193    0.14108111425515243    
  0.1612573092421428    0.18393843779110433    0.20835762297951874    0.2333706942538706    0.25742075609219855    
  0.2786666297233209    0.2952920585356093    0.3058509565133353    0.30946577139625203    0.2529547263817002    
  0.25038787106869376    0.2428547236403937    0.2308999541370887    0.21548546650868397    0.1978847315586499    
  0.17942874452951216    0.1612573092421428    0.14421482611943098    0.12888636662490735    0.11567332214524596    
  0.10483383680141986    0.09648942118100363    0.09063686958073311    0.08719148641872292    0.08605682944041575    
  0.08719148641872301    0.09063686958073301    0.09648942118100368    0.10483383680141982    0.11567332214524596    
  0.1288863666249073    0.14421482611943093    0.16125730924214277    0.17942874452951216    0.19788473155864988    
  0.21548546650868383    0.23089995413708875    0.24285472364039376    0.2503878710686937    0.2529547263817002    
  0.2050145119314213    0.2032684871202521    0.19812478400196204    0.18990882125700662    0.17923341307270407    