
     Program PWSCF v.6.5 starts on 10Jul2023 at 16:50:14 

     This program is part of the open-source Quantum ESPRESSO suite
     for quantum simulation of materials; please cite
         "P. Giannozzi et al., J. Phys.:Condens. Matter 21 395502 (2009);
         "P. Giannozzi et al., J. Phys.:Condens. Matter 29 465901 (2017);
          URL http://www.quantum-espresso.org", 
     in publications or presentations arising from this work. More details at
     http://www.quantum-espresso.org/quote

     Serial version
     Reading input from /home/valeria/Documents/DFTPY/cWT-KEDF/Phases/Model_ML_function/Ks_calculations/DATA_bct5/Si_bct55.in
Warning: card &IONS ignored
Warning: card / ignored
Warning: card &CELL ignored
Warning: card / ignored
Warning: card &FCP ignored
Warning: card / ignored
Warning: card &RISM ignored
Warning: card / ignored

     Current dimensions of program PWSCF are:
     Max number of different atomic species (ntypx) = 10
     Max number of k-points (npk) =  40000
     Max angular momentum in pseudopotentials (lmaxx) =  3

     WARNING: check_stop already initialized
     Found symmetry operation: I + (  0.5000  0.5000  0.5000)
     This is a supercell, fractional translations are disabled
     Message from routine setup:
     using ibrav=0 with symmetry is DISCOURAGED, use correct ibrav instead

     G-vector sticks info
     --------------------
     sticks:   dense  smooth     PW     G-vecs:    dense   smooth      PW
     Sum         613     613    185                21111    21111    3525



     bravais-lattice index     =            0
     lattice parameter (alat)  =       5.6846  a.u.
     unit-cell volume          =     336.5385 (a.u.)^3
     number of atoms/cell      =            4
     number of atomic types    =            1
     number of electrons       =        16.00
     number of Kohn-Sham states=           12
     kinetic-energy cutoff     =      60.0000  Ry
     charge density cutoff     =     240.0000  Ry
     convergence threshold     =      1.0E-06
     mixing beta               =       0.7000
     number of iterations used =            8  plain     mixing
     Exchange-correlation= LDA
                           (   1   1   0   0   0   0   0)

     celldm(1)=   5.684621  celldm(2)=   0.000000  celldm(3)=   0.000000
     celldm(4)=   0.000000  celldm(5)=   0.000000  celldm(6)=   0.000000

     crystal axes: (cart. coord. in units of alat)
               a(1) = (   1.000000  -0.000000   0.000000 )  
               a(2) = (  -0.000000   1.000000   0.000000 )  
               a(3) = (   0.000000   0.000000   1.832019 )  

     reciprocal axes: (cart. coord. in units 2 pi/alat)
               b(1) = (  1.000000  0.000000 -0.000000 )  
               b(2) = (  0.000000  1.000000 -0.000000 )  
               b(3) = ( -0.000000 -0.000000  0.545846 )  


     PseudoPot. # 1 for Si read from file:
     /home/valeria/Desktop/programs/dftpy/examples/ofpp/EAC/upf/blps/si.lda.upf
     MD5 check sum: 946fc5a8d23174f015515f8139e499ed
     Pseudo is Norm-conserving, Zval =  4.0
     DFTpy
     Using radial grid of 1601 points,  1 beta functions with: 
                l(1) =   0

     atomic species   valence    mass     pseudopotential
        Si             4.00    28.08000     Si( 1.00)

     16 Sym. Ops., with inversion, found



   Cartesian axes

     site n.     atom                  positions (alat units)
         1           Si  tau(   1) = (   0.5000000   0.5000000   0.5629690  )
         2           Si  tau(   2) = (   0.0000000  -0.0000000   0.3530407  )
         3           Si  tau(   3) = (   0.0000000   0.0000000   1.4789787  )
         4           Si  tau(   4) = (   0.5000000   0.5000000   1.2690504  )

     number of k points=   550  Gaussian smearing, width (Ry)=  0.0050

     Number of k-points >= 100: set verbosity='high' to print them.

     Dense  grid:    21111 G-vectors     FFT dimensions: (  30,  30,  54)

     Estimated max dynamical RAM per process >     282.75 MB

     Initial potential from superposition of free atoms

     starting charge   15.99744, renormalised to   16.00000
     Starting wfcs are random

     total cpu time spent up to now is       16.2 secs

     Self-consistent Calculation

     iteration #  1     ecut=    60.00 Ry     beta= 0.70
     Davidson diagonalization with overlap
     ethr =  1.00E-02,  avg # of iterations =  7.2

     Threshold (ethr) on eigenvalues was too large:
     Diagonalizing with lowered threshold

     Davidson diagonalization with overlap
     ethr =  3.46E-04,  avg # of iterations =  1.2

     total cpu time spent up to now is      167.6 secs

     total energy              =     -32.00494226 Ry
     Harris-Foulkes estimate   =     -32.01847338 Ry
     estimated scf accuracy    <       0.05574982 Ry

     iteration #  2     ecut=    60.00 Ry     beta= 0.70
     Davidson diagonalization with overlap
     ethr =  3.48E-04,  avg # of iterations =  1.0

     total cpu time spent up to now is      202.1 secs

     total energy              =     -32.00700145 Ry
     Harris-Foulkes estimate   =     -32.00719409 Ry
     estimated scf accuracy    <       0.00282932 Ry

     iteration #  3     ecut=    60.00 Ry     beta= 0.70
     Davidson diagonalization with overlap
     ethr =  1.77E-05,  avg # of iterations =  2.8

     total cpu time spent up to now is      239.7 secs

     total energy              =     -32.00715494 Ry
     Harris-Foulkes estimate   =     -32.00715847 Ry
     estimated scf accuracy    <       0.00004263 Ry

     iteration #  4     ecut=    60.00 Ry     beta= 0.70
     Davidson diagonalization with overlap
     ethr =  2.66E-07,  avg # of iterations =  3.4

     total cpu time spent up to now is      289.7 secs

     total energy              =     -32.00717191 Ry
     Harris-Foulkes estimate   =     -32.00717257 Ry
     estimated scf accuracy    <       0.00000142 Ry

     iteration #  5     ecut=    60.00 Ry     beta= 0.70
     Davidson diagonalization with overlap
     ethr =  8.88E-09,  avg # of iterations =  2.0

     total cpu time spent up to now is      330.0 secs

     End of self-consistent calculation

     Number of k-points >= 100: set verbosity='high' to print the bands.

     the Fermi energy is    12.1367 ev

!    total energy              =     -32.00717211 Ry
     Harris-Foulkes estimate   =     -32.00717217 Ry
     estimated scf accuracy    <       0.00000008 Ry

     The total energy is the sum of the following terms:

     one-electron contribution =      18.34964524 Ry
     hartree contribution      =       0.74801775 Ry
     xc contribution           =     -10.46253865 Ry
     ewald contribution        =     -40.64215421 Ry
     smearing contrib. (-TS)   =      -0.00014224 Ry

     convergence has been achieved in   5 iterations

 Energies determined by pw2casino tool
 -------------------------------------
 Kinetic energy      7.0047872811565872       au  =     14.009574562313174       Ry
 Local energy        2.1700353394869301       au  =     4.3400706789738601       Ry
 Non-Local energy    0.0000000000000000       au  =     0.0000000000000000       Ry
 Ewald energy       -20.321077106470007       au  =    -40.642154212940014       Ry
 xc contribution    -5.2312693247248383       au  =    -10.462538649449677       Ry
 hartree energy     0.37400887358650509       au  =    0.74801774717301017       Ry
 Smearing (-TS)     -7.1119073404648687E-005  au  =    -1.4223814680929737E-004  Ry
 Total energy       -16.003586055928135       au  =    -32.007172111856271       Ry
 -------------------------------------
 Total energy0      -16.003586056038227       au  =    -32.007172112076454       Ry
 External energy0    0.0000000000000000       au  =     0.0000000000000000       Ry
 -------------------------------------


     Writing output data file ./si.save/
