
     Program PWSCF v.6.5 starts on 10Jul2023 at 18:30:26 

     This program is part of the open-source Quantum ESPRESSO suite
     for quantum simulation of materials; please cite
         "P. Giannozzi et al., J. Phys.:Condens. Matter 21 395502 (2009);
         "P. Giannozzi et al., J. Phys.:Condens. Matter 29 465901 (2017);
          URL http://www.quantum-espresso.org", 
     in publications or presentations arising from this work. More details at
     http://www.quantum-espresso.org/quote

     Serial version
     Reading input from /home/valeria/Documents/DFTPY/cWT-KEDF/Phases/Model_ML_function/Ks_calculations/DATA_bct5/Si_bct518.in
Warning: card &IONS ignored
Warning: card / ignored
Warning: card &CELL ignored
Warning: card / ignored
Warning: card &FCP ignored
Warning: card / ignored
Warning: card &RISM ignored
Warning: card / ignored

     Current dimensions of program PWSCF are:
     Max number of different atomic species (ntypx) = 10
     Max number of k-points (npk) =  40000
     Max angular momentum in pseudopotentials (lmaxx) =  3

     WARNING: check_stop already initialized
     Found symmetry operation: I + (  0.5000  0.5000  0.5000)
     This is a supercell, fractional translations are disabled
     Message from routine setup:
     using ibrav=0 with symmetry is DISCOURAGED, use correct ibrav instead

     G-vector sticks info
     --------------------
     sticks:   dense  smooth     PW     G-vecs:    dense   smooth      PW
     Sum        1041    1041    293                46155    46155    7271



     bravais-lattice index     =            0
     lattice parameter (alat)  =       7.3770  a.u.
     unit-cell volume          =     735.4744 (a.u.)^3
     number of atoms/cell      =            4
     number of atomic types    =            1
     number of electrons       =        16.00
     number of Kohn-Sham states=           12
     kinetic-energy cutoff     =      60.0000  Ry
     charge density cutoff     =     240.0000  Ry
     convergence threshold     =      1.0E-06
     mixing beta               =       0.7000
     number of iterations used =            8  plain     mixing
     Exchange-correlation= LDA
                           (   1   1   0   0   0   0   0)

     celldm(1)=   7.376990  celldm(2)=   0.000000  celldm(3)=   0.000000
     celldm(4)=   0.000000  celldm(5)=   0.000000  celldm(6)=   0.000000

     crystal axes: (cart. coord. in units of alat)
               a(1) = (   1.000000  -0.000000   0.000000 )  
               a(2) = (  -0.000000   1.000000   0.000000 )  
               a(3) = (   0.000000   0.000000   1.832019 )  

     reciprocal axes: (cart. coord. in units 2 pi/alat)
               b(1) = (  1.000000  0.000000 -0.000000 )  
               b(2) = (  0.000000  1.000000 -0.000000 )  
               b(3) = ( -0.000000 -0.000000  0.545846 )  


     PseudoPot. # 1 for Si read from file:
     /home/valeria/Desktop/programs/dftpy/examples/ofpp/EAC/upf/blps/si.lda.upf
     MD5 check sum: 946fc5a8d23174f015515f8139e499ed
     Pseudo is Norm-conserving, Zval =  4.0
     DFTpy
     Using radial grid of 1601 points,  1 beta functions with: 
                l(1) =   0

     atomic species   valence    mass     pseudopotential
        Si             4.00    28.08000     Si( 1.00)

     16 Sym. Ops., with inversion, found



   Cartesian axes

     site n.     atom                  positions (alat units)
         1           Si  tau(   1) = (   0.5000000   0.5000000   0.5629690  )
         2           Si  tau(   2) = (   0.0000000  -0.0000000   0.3530407  )
         3           Si  tau(   3) = (   0.0000000   0.0000000   1.4789787  )
         4           Si  tau(   4) = (   0.5000000   0.5000000   1.2690504  )

     number of k points=   550  Gaussian smearing, width (Ry)=  0.0050

     Number of k-points >= 100: set verbosity='high' to print them.

     Dense  grid:    46155 G-vectors     FFT dimensions: (  40,  40,  72)

     Estimated max dynamical RAM per process >     618.47 MB

     Initial potential from superposition of free atoms

     starting charge   15.99744, renormalised to   16.00000
     Starting wfcs are random

     total cpu time spent up to now is       37.4 secs

     Self-consistent Calculation

     iteration #  1     ecut=    60.00 Ry     beta= 0.70
     Davidson diagonalization with overlap
     ethr =  1.00E-02,  avg # of iterations =  7.4

     Threshold (ethr) on eigenvalues was too large:
     Diagonalizing with lowered threshold

     Davidson diagonalization with overlap
     ethr =  1.43E-04,  avg # of iterations =  2.2

     total cpu time spent up to now is      424.9 secs

     total energy              =     -31.95501712 Ry
     Harris-Foulkes estimate   =     -31.95916702 Ry
     estimated scf accuracy    <       0.02268327 Ry

     iteration #  2     ecut=    60.00 Ry     beta= 0.70
     Davidson diagonalization with overlap
     ethr =  1.42E-04,  avg # of iterations =  1.0

     total cpu time spent up to now is      512.0 secs

     total energy              =     -31.95517460 Ry
     Harris-Foulkes estimate   =     -31.95542316 Ry
     estimated scf accuracy    <       0.00149307 Ry

     iteration #  3     ecut=    60.00 Ry     beta= 0.70
     Davidson diagonalization with overlap
     ethr =  9.33E-06,  avg # of iterations =  3.6

     total cpu time spent up to now is      611.3 secs

     total energy              =     -31.95523952 Ry
     Harris-Foulkes estimate   =     -31.95524030 Ry
     estimated scf accuracy    <       0.00000437 Ry

     iteration #  4     ecut=    60.00 Ry     beta= 0.70
     Davidson diagonalization with overlap
     c_bands:  1 eigenvalues not converged
     ethr =  2.73E-08,  avg # of iterations =  4.2

     total cpu time spent up to now is      767.0 secs

     total energy              =     -31.95525150 Ry
     Harris-Foulkes estimate   =     -31.95525226 Ry
     estimated scf accuracy    <       0.00000142 Ry

     iteration #  5     ecut=    60.00 Ry     beta= 0.70
     Davidson diagonalization with overlap
     ethr =  8.91E-09,  avg # of iterations =  2.1

     total cpu time spent up to now is      870.0 secs

     total energy              =     -31.95525164 Ry
     Harris-Foulkes estimate   =     -31.95525210 Ry
     estimated scf accuracy    <       0.00000131 Ry

     iteration #  6     ecut=    60.00 Ry     beta= 0.70
     Davidson diagonalization with overlap
     ethr =  8.19E-09,  avg # of iterations =  2.0

     total cpu time spent up to now is      970.8 secs

     End of self-consistent calculation

     Number of k-points >= 100: set verbosity='high' to print the bands.

     the Fermi energy is     3.2250 ev

!    total energy              =     -31.95525182 Ry
     Harris-Foulkes estimate   =     -31.95525185 Ry
     estimated scf accuracy    <       0.00000005 Ry

     The total energy is the sum of the following terms:

     one-electron contribution =       6.24186221 Ry
     hartree contribution      =       1.85215146 Ry
     xc contribution           =      -8.73037786 Ry
     ewald contribution        =     -31.31836590 Ry
     smearing contrib. (-TS)   =      -0.00052174 Ry

     convergence has been achieved in   6 iterations

 Energies determined by pw2casino tool
 -------------------------------------
 Kinetic energy      5.0892453293067366       au  =     10.178490658613473       Ry
 Local energy       -1.9683142237162541       au  =    -3.9366284474325082       Ry
 Non-Local energy    0.0000000000000000       au  =     0.0000000000000000       Ry
 Ewald energy       -15.659182947683766       au  =    -31.318365895367531       Ry
 xc contribution    -4.3651889285227234       au  =    -8.7303778570454469       Ry
 hartree energy     0.92607572904248625       au  =     1.8521514580849725       Ry
 Smearing (-TS)     -2.6086979963590420E-004  au  =    -5.2173959927180841E-004  Ry
 Total energy       -15.977625911278903       au  =    -31.955251822557805       Ry
 -------------------------------------
 Total energy0      -15.977625911373156       au  =    -31.955251822746312       Ry
 External energy0    0.0000000000000000       au  =     0.0000000000000000       Ry
 -------------------------------------


     Writing output data file ./si.save/
