#     DFTpy    
  CRYSTAL 
    
  PRIMVEC    
  3.4284827586206905    0.0    0.0    
  0.0    3.4284827586206905    0.0    
  0.0    0.0    3.4284827586206905    
  PRIMCOORD    
  4    1    
  Si    0.0    0.0    0.0    
  Si    0.0    1.7142413793103404    1.7142413793103404    
  Si    1.7142413793103404    0.0    1.7142413793103404    
  Si    1.7142413793103404    1.7142413793103404    0.0    
  BEGIN_BLOCK_DATAGRID_3D    
  3d_datagrid_density    
  BEGIN_DATAGRID_3D#0    
  33    33    33    
  0.0    0.0    0.0    
  3.4284827714089965    0.0    0.0    
  0.0    3.4284827714089965    0.0    
  0.0    0.0    3.4284827714089965    
  0.05060484267646206    0.05928173573402971    0.0886607870184991    0.1454098330485897    0.22936297344650028    
  0.32358373274863217    0.3992841634469975    0.43545822401744694    0.43186383413965446    0.40306647273044677    
  0.3650073695509858    0.3279063920105695    0.2964707036692769    0.2722619428697823    0.2553970401482826    
  0.24550176556465084    0.24224161193144095    0.24550176556465084    0.2553970401482826    0.2722619428697823    
  0.2964707036692769    0.3279063920105695    0.3650073695509858    0.40306647273044677    0.43186383413965446    
  0.43545822401744694    0.3992841634469975    0.32358373274863217    0.22936297344650028    0.1454098330485897    
  0.0886607870184991    0.05928173573402971    0.05060484267646206    0.059281735734029624    0.06857158451747182    
  0.0994845127003533    0.15767450684829315    0.24153777922131753    0.33345576059765974    0.4055716410727933    
  0.4385906564930897    0.4332579685977418    0.40401484818539796    0.3662167191797427    0.32961995551021156    
  0.2987044151738883    0.27493850956871263    0.2583990112280076    0.24869798397842618    0.24550178131680672    
  0.24869798397842618    0.2583990112280076    0.27493850956871263    0.2987044151738883    0.32961995551021156    
  0.3662167191797427    0.40401484818539796    0.4332579685977418    0.4385906564930897    0.4055716410727933    
  0.33345576059765974    0.24153777922131753    0.15767450684829315    0.0994845127003533    0.06857158451747182    
  0.059281735734029624    0.08866078701849903    0.0994845127003534    0.13400122724558097    0.19486991556001945    
  0.27676683038899696    0.36086753226597085    0.42237260001789534    0.4466331460817152    0.4367548490422899    
  0.4065750450243984    0.3697521949824458    0.33476207803168134    0.30546061740960423    0.28305514366157936    
  0.2675091672509647    0.25839905770234545    0.2553971023620715    0.25839905770234545    0.2675091672509647    
  0.28305514366157936    0.30546061740960423    0.33476207803168134    0.3697521949824458    0.4065750450243984    
  0.4367548490422899    0.4466331460817152    0.42237260001789534    0.36086753226597085    0.27676683038899696    
  0.19486991556001945    0.13400122724558097    0.0994845127003534    0.08866078701849903    0.1454098330485897    
  0.15767450684829323    0.19486991556001945    0.25535760774952204    0.32963644464559844    0.3990137206280587    
  0.4440243321667553    0.4561259164767429    0.4407291092951551    0.41016418881264083    0.3755172647418158    
  0.3434636325457759    0.3169872050857731    0.29691724362363664    0.28305522078256296    0.2749386332980596    
  0.27226208236150884    0.2749386332980596    0.28305522078256296    0.29691724362363664    0.3169872050857731    
  0.3434636325457759    0.3755172647418158    0.41016418881264083    0.4407291092951551    0.4561259164767429    
  0.4440243321667553    0.3990137206280587    0.32963644464559844    0.25535760774952204    0.19486991556001945    
  0.15767450684829323    0.1454098330485897    0.2293629734465002    0.24153777922131753    0.27676683038899696    
  0.3296364446455984    0.3884287609099157    0.437180421897822    0.463079673942605    0.46310614898645774    
  0.4436171533365791    0.4144519933607358    0.38371027343791625    0.35613116683287227    0.33375545843376286    
  0.31698731424264254    0.3054608047000388    0.29870464985957496    0.29647095434791293    0.29870464985957496    
  0.3054608047000388    0.31698731424264254    0.33375545843376286    0.35613116683287227    0.38371027343791625    
  0.4144519933607358    0.4436171533365791    0.46310614898645774    0.463079673942605    0.437180421897822    
  0.3884287609099157    0.3296364446455984    0.27676683038899696    0.24153777922131753    0.2293629734465002    
  0.32358373274863206    0.33345576059765974    0.36086753226597085    0.3990137206280586    0.437180421897822    
  0.46416594986674997    0.4732805276133603    0.4649375106078969    0.4447773606315852    0.4196483885045212    
  0.3948076368753404    0.37324690678708144    0.3561313070352004    0.3434638841737863    0.33476241062997353    
  0.3296203373954719    0.32790679047531424    0.3296203373954719    0.33476241062997353    0.3434638841737863    
  0.3561313070352004    0.37324690678708144    0.3948076368753404    0.4196483885045212    0.4447773606315852    
  0.4649375106078969    0.4732805276133603    0.46416594986674997    0.437180421897822    0.3990137206280586    
  0.36086753226597085    0.33345576059765974    0.32358373274863206    0.3992841634469973    0.4055716410727934    
  0.4223726000178953    0.4440243321667553    0.4630796739426049    0.4732805276133602    0.4721311168397478    
  0.4612587497497043    0.4446114403553174    0.42625246822914936    0.40912631782009373    0.39480780326275605    
  0.3837105829688486    0.37551769035463334    0.3697527059612628    0.36621728212820814    0.3650079498961808    
  0.36621728212820814    0.3697527059612628    0.37551769035463334    0.3837105829688486    0.39480780326275605    
  0.40912631782009373    0.42625246822914936    0.4446114403553174    0.4612587497497043    0.4721311168397478    
  0.4732805276133602    0.4630796739426049    0.4440243321667553    0.4223726000178953    0.4055716410727934    
  0.3992841634469973    0.4354582240174468    0.4385906564930897    0.4466331460817151    0.45612591647674283    
  0.46310614898645763    0.4649375106078968    0.46125874974970427    0.4535597265070565    0.4440122981742324    
  0.4345110103947856    0.42625265354244396    0.419648743072677    0.41445249581222204    0.41016481220445716    
  0.40657575713446586    0.4040156137018617    0.4030672559372045    0.4040156137018617    0.40657575713446586    
  0.41016481220445716    0.41445249581222204    0.419648743072677    0.42625265354244396    0.4345110103947856    
  0.4440122981742324    0.4535597265070565    0.46125874974970427    0.4649375106078968    0.46310614898645763    
  0.45612591647674283    0.4466331460817151    0.4385906564930897    0.4354582240174468    0.43186383413965435    
  0.4332579685977417    0.4367548490422899    0.4407291092951551    0.4436171533365791    0.44477736063158513    
  0.4446114403553175    0.4440122981742324    0.4437228030892445    0.4440124934544878    0.44461182329082927    
  0.44477791601979677    0.4436178582895234    0.44072993364648905    0.4367557577644152    0.4332589261097635    
  0.43186480738245175    0.4332589261097635    0.4367557577644152    0.44072993364648905    0.4436178582895234    
  0.44477791601979677    0.44461182329082927    0.4440124934544878    0.4437228030892445    0.4440122981742324    
  0.4446114403553175    0.44477736063158513    0.4436171533365791    0.4407291092951551    0.4367548490422899    
  0.4332579685977417    0.43186383413965435    0.40306647273044677    0.40401484818539807    0.4065750450243984    
  0.41016418881264083    0.4144519933607359    0.4196483885045211    0.4262524682291493    0.4345110103947857    
  0.4440124934544878    0.4535601190620539    0.4612593313817615    0.46493826141337075    0.46310703802874825    
  0.45612690593177097    0.4466341983023862    0.43859174057813727    0.435459317471576    0.43859174057813727    
  0.4466341983023862    0.45612690593177097    0.46310703802874825    0.46493826141337075    0.4612593313817615    
  0.4535601190620539    0.4440124934544878    0.4345110103947857    0.4262524682291493    0.4196483885045211    
  0.4144519933607359    0.41016418881264083    0.4065750450243984    0.40401484818539807    0.40306647273044677    
  0.3650073695509859    0.3662167191797428    0.369752194982446    0.3755172647418159    0.38371027343791636    
  0.3948076368753405    0.40912631782009373    0.4262526535424441    0.4446118232908294    0.4612593313817616    
  0.47213188178739385    0.473281442308887    0.4630806918779007    0.4440254053800294    0.42237369167367383    
  0.40557273266685706    0.3992852528622634    0.40557273266685706    0.42237369167367383    0.4440254053800294    
  0.4630806918779007    0.473281442308887    0.47213188178739385    0.4612593313817616    0.4446118232908294    
  0.4262526535424441    0.40912631782009373    0.3948076368753405    0.38371027343791636    0.3755172647418159    
  0.369752194982446    0.3662167191797428    0.3650073695509859    0.32790639201056937    0.3296199555102116    
  0.33476207803168134    0.3434636325457759    0.35613116683287227    0.37324690678708133    0.39480780326275616    
  0.419648743072677    0.44477791601979677    0.46493826141337075    0.47328144230888697    0.4641669725301653    
  0.437181486664293    0.39901477172279987    0.3608685397350703    0.33345672549858757    0.3235846804400554    
  0.33345672549858757    0.3608685397350703    0.39901477172279987    0.437181486664293    0.4641669725301653    
  0.47328144230888697    0.46493826141337075    0.44477791601979677    0.419648743072677    0.39480780326275616    
  0.37324690678708133    0.35613116683287227    0.3434636325457759    0.33476207803168134    0.3296199555102116    
  0.32790639201056937    0.2964707036692768    0.29870441517388835    0.30546061740960423    0.31698720508577305    
  0.33375545843376286    0.35613130703520024    0.3837105829688486    0.41445249581222204    0.4436178582895234    
  0.46310703802874814    0.4630806918779005    0.4371814866642929    0.3884297896648631    0.3296373798878295    
  0.2767676550067833    0.24153851758648617    0.22936367957703255    0.24153851758648617    0.2767676550067833    
  0.3296373798878295    0.3884297896648631    0.4371814866642929    0.4630806918779005    0.46310703802874814    
  0.4436178582895234    0.41445249581222204    0.3837105829688486    0.35613130703520024    0.33375545843376286    
  0.31698720508577305    0.30546061740960423    0.29870441517388835    0.2964707036692768    0.27226194286978234    
  0.2749385095687127    0.28305514366157936    0.29691724362363675    0.3169873142426426    0.34346388417378637    
  0.3755176903546334    0.41016481220445716    0.44072993364648905    0.45612690593177113    0.4440254053800294    
  0.39901477172279987    0.32963737988782965    0.2553583743762195    0.19487051381084092    0.15767498473050423    
  0.14541026782590397    0.15767498473050423    0.19487051381084092    0.2553583743762195    0.32963737988782965    
  0.39901477172279987    0.4440254053800294    0.45612690593177113    0.44072993364648905    0.41016481220445716    
  0.3755176903546334    0.34346388417378637    0.3169873142426426    0.29691724362363675    0.28305514366157936    
  0.2749385095687127    0.27226194286978234    0.2553970401482827    0.25839901122800774    0.26750916725096474    
  0.283055220782563    0.30546080470003883    0.3347624106299736    0.3697527059612628    0.406575757134466    
  0.4367557577644153    0.4466341983023863    0.42237369167367383    0.3608685397350704    0.2767676550067833    
  0.19487051381084092    0.13400161911574537    0.09948476695883786    0.08866099407023961    0.09948476695883786    
  0.13400161911574537    0.19487051381084092    0.2767676550067833    0.3608685397350704    0.42237369167367383    
  0.4466341983023863    0.4367557577644153    0.406575757134466    0.3697527059612628    0.3347624106299736    
  0.30546080470003883    0.283055220782563    0.26750916725096474    0.25839901122800774    0.2553970401482827    
  0.24550176556465084    0.24869798397842624    0.25839905770234545    0.2749386332980596    0.29870464985957496    
  0.3296203373954719    0.36621728212820814    0.4040156137018618    0.4332589261097635    0.43859174057813727    
  0.40557273266685706    0.33345672549858757    0.24153851758648617    0.15767498473050415    0.0994847669588378    
  0.06857169809572222    0.05928180296474438    0.06857169809572222    0.0994847669588378    0.15767498473050415    
  0.24153851758648617    0.33345672549858757    0.40557273266685706    0.43859174057813727    0.4332589261097635    
  0.4040156137018618    0.36621728212820814    0.3296203373954719    0.29870464985957496    0.2749386332980596    
  0.25839905770234545    0.24869798397842624    0.24550176556465084    0.24224161193144092    0.24550178131680678    
  0.2553971023620716    0.27226208236150884    0.296470954347913    0.3279067904753142    0.3650079498961809    
  0.40306725593720455    0.43186480738245175    0.435459317471576    0.3992852528622633    0.3235846804400554    
  0.2293636795770326    0.14541026782590388    0.08866099407023956    0.05928180296474442    0.05060486465848192    
  0.05928180296474442    0.08866099407023956    0.14541026782590388    0.2293636795770326    0.3235846804400554    
  0.3992852528622633    0.435459317471576    0.43186480738245175    0.40306725593720455    0.3650079498961809    
  0.3279067904753142    0.296470954347913    0.27226208236150884    0.2553971023620716    0.24550178131680678    
  0.24224161193144092    0.24550176556465084    0.24869798397842624    0.25839905770234545    0.2749386332980596    
  0.29870464985957496    0.3296203373954719    0.36621728212820814    0.4040156137018618    0.4332589261097635    
  0.43859174057813727    0.40557273266685706    0.33345672549858757    0.24153851758648617    0.15767498473050415    
  0.0994847669588378    0.06857169809572222    0.05928180296474438    0.06857169809572222    0.0994847669588378    
  0.15767498473050415    0.24153851758648617    0.33345672549858757    0.40557273266685706    0.43859174057813727    
  0.4332589261097635    0.4040156137018618    0.36621728212820814    0.3296203373954719    0.29870464985957496    
  0.2749386332980596    0.25839905770234545    0.24869798397842624    0.24550176556465084    0.2553970401482827    
  0.25839901122800774    0.26750916725096474    0.283055220782563    0.30546080470003883    0.3347624106299736    
  0.3697527059612628    0.406575757134466    0.4367557577644153    0.4466341983023863    0.42237369167367383    
  0.3608685397350704    0.2767676550067833    0.19487051381084092    0.13400161911574537    0.09948476695883786    
  0.08866099407023961    0.09948476695883786    0.13400161911574537    0.19487051381084092    0.2767676550067833    
  0.3608685397350704    0.42237369167367383    0.4466341983023863    0.4367557577644153    0.406575757134466    
  0.3697527059612628    0.3347624106299736    0.30546080470003883    0.283055220782563    0.26750916725096474    
  0.25839901122800774    0.2553970401482827    0.27226194286978234    0.2749385095687127    0.28305514366157936    
  0.29691724362363675    0.3169873142426426    0.34346388417378637    0.3755176903546334    0.41016481220445716    
  0.44072993364648905    0.45612690593177113    0.4440254053800294    0.39901477172279987    0.32963737988782965    
  0.2553583743762195    0.19487051381084092    0.15767498473050423    0.14541026782590397    0.15767498473050423    
  0.19487051381084092    0.2553583743762195    0.32963737988782965    0.39901477172279987    0.4440254053800294    
  0.45612690593177113    0.44072993364648905    0.41016481220445716    0.3755176903546334    0.34346388417378637    
  0.3169873142426426    0.29691724362363675    0.28305514366157936    0.2749385095687127    0.27226194286978234    
  0.2964707036692768    0.29870441517388835    0.30546061740960423    0.31698720508577305    0.33375545843376286    
  0.35613130703520024    0.3837105829688486    0.41445249581222204    0.4436178582895234    0.46310703802874814    
  0.4630806918779005    0.4371814866642929    0.3884297896648631    0.3296373798878295    0.2767676550067833    
  0.24153851758648617    0.22936367957703255    0.24153851758648617    0.2767676550067833    0.3296373798878295    
  0.3884297896648631    0.4371814866642929    0.4630806918779005    0.46310703802874814    0.4436178582895234    
  0.41445249581222204    0.3837105829688486    0.35613130703520024    0.33375545843376286    0.31698720508577305    
  0.30546061740960423    0.29870441517388835    0.2964707036692768    0.32790639201056937    0.3296199555102116    
  0.33476207803168134    0.3434636325457759    0.35613116683287227    0.37324690678708133    0.39480780326275616    
  0.419648743072677    0.44477791601979677    0.46493826141337075    0.47328144230888697    0.4641669725301653    
  0.437181486664293    0.39901477172279987    0.3608685397350703    0.33345672549858757    0.3235846804400554    
  0.33345672549858757    0.3608685397350703    0.39901477172279987    0.437181486664293    0.4641669725301653    
  0.47328144230888697    0.46493826141337075    0.44477791601979677    0.419648743072677    0.39480780326275616    
  0.37324690678708133    0.35613116683287227    0.3434636325457759    0.33476207803168134    0.3296199555102116    
  0.32790639201056937    0.3650073695509859    0.3662167191797428    0.369752194982446    0.3755172647418159    
  0.38371027343791636    0.3948076368753405    0.40912631782009373    0.4262526535424441    0.4446118232908294    
  0.4612593313817616    0.47213188178739385    0.473281442308887    0.4630806918779007    0.4440254053800294    
  0.42237369167367383    0.40557273266685706    0.3992852528622634    0.40557273266685706    0.42237369167367383    
  0.4440254053800294    0.4630806918779007    0.473281442308887    0.47213188178739385    0.4612593313817616    
  0.4446118232908294    0.4262526535424441    0.40912631782009373    0.3948076368753405    0.38371027343791636    
  0.3755172647418159    0.369752194982446    0.3662167191797428    0.3650073695509859    0.40306647273044677    
  0.40401484818539807    0.4065750450243984    0.41016418881264083    0.4144519933607359    0.4196483885045211    
  0.4262524682291493    0.4345110103947857    0.4440124934544878    0.4535601190620539    0.4612593313817615    
  0.46493826141337075    0.46310703802874825    0.45612690593177097    0.4466341983023862    0.43859174057813727    
  0.435459317471576    0.43859174057813727    0.4466341983023862    0.45612690593177097    0.46310703802874825    
  0.46493826141337075    0.4612593313817615    0.4535601190620539    0.4440124934544878    0.4345110103947857    
  0.4262524682291493    0.4196483885045211    0.4144519933607359    0.41016418881264083    0.4065750450243984    
  0.40401484818539807    0.40306647273044677    0.43186383413965435    0.4332579685977417    0.4367548490422899    
  0.4407291092951551    0.4436171533365791    0.44477736063158513    0.4446114403553175    0.4440122981742324    
  0.4437228030892445    0.4440124934544878    0.44461182329082927    0.44477791601979677    0.4436178582895234    
  0.44072993364648905    0.4367557577644152    0.4332589261097635    0.43186480738245175    0.4332589261097635    
  0.4367557577644152    0.44072993364648905    0.4436178582895234    0.44477791601979677    0.44461182329082927    
  0.4440124934544878    0.4437228030892445    0.4440122981742324    0.4446114403553175    0.44477736063158513    
  0.4436171533365791    0.4407291092951551    0.4367548490422899    0.4332579685977417    0.43186383413965435    
  0.4354582240174468    0.4385906564930897    0.4466331460817151    0.45612591647674283    0.46310614898645763    
  0.4649375106078968    0.46125874974970427    0.4535597265070565    0.4440122981742324    0.4345110103947856    
  0.42625265354244396    0.419648743072677    0.41445249581222204    0.41016481220445716    0.40657575713446586    
  0.4040156137018617    0.4030672559372045    0.4040156137018617    0.40657575713446586    0.41016481220445716    
  0.41445249581222204    0.419648743072677    0.42625265354244396    0.4345110103947856    0.4440122981742324    
  0.4535597265070565    0.46125874974970427    0.4649375106078968    0.46310614898645763    0.45612591647674283    
  0.4466331460817151    0.4385906564930897    0.4354582240174468    0.3992841634469973    0.4055716410727934    
  0.4223726000178953    0.4440243321667553    0.4630796739426049    0.4732805276133602    0.4721311168397478    
  0.4612587497497043    0.4446114403553174    0.42625246822914936    0.40912631782009373    0.39480780326275605    
  0.3837105829688486    0.37551769035463334    0.3697527059612628    0.36621728212820814    0.3650079498961808    
  0.36621728212820814    0.3697527059612628    0.37551769035463334    0.3837105829688486    0.39480780326275605    
  0.40912631782009373    0.42625246822914936    0.4446114403553174    0.4612587497497043    0.4721311168397478    
  0.4732805276133602    0.4630796739426049    0.4440243321667553    0.4223726000178953    0.4055716410727934    
  0.3992841634469973    0.32358373274863206    0.33345576059765974    0.36086753226597085    0.3990137206280586    
  0.437180421897822    0.46416594986674997    0.4732805276133603    0.4649375106078969    0.4447773606315852    
  0.4196483885045212    0.3948076368753404    0.37324690678708144    0.3561313070352004    0.3434638841737863    
  0.33476241062997353    0.3296203373954719    0.32790679047531424    0.3296203373954719    0.33476241062997353    
  0.3434638841737863    0.3561313070352004    0.37324690678708144    0.3948076368753404    0.4196483885045212    
  0.4447773606315852    0.4649375106078969    0.4732805276133603    0.46416594986674997    0.437180421897822    
  0.3990137206280586    0.36086753226597085    0.33345576059765974    0.32358373274863206    0.2293629734465002    
  0.24153777922131753    0.27676683038899696    0.3296364446455984    0.3884287609099157    0.437180421897822    
  0.463079673942605    0.46310614898645774    0.4436171533365791    0.4144519933607358    0.38371027343791625    
  0.35613116683287227    0.33375545843376286    0.31698731424264254    0.3054608047000388    0.29870464985957496    
  0.29647095434791293    0.29870464985957496    0.3054608047000388    0.31698731424264254    0.33375545843376286    
  0.35613116683287227    0.38371027343791625    0.4144519933607358    0.4436171533365791    0.46310614898645774    
  0.463079673942605    0.437180421897822    0.3884287609099157    0.3296364446455984    0.27676683038899696    
  0.24153777922131753    0.2293629734465002    0.1454098330485897    0.15767450684829323    0.19486991556001945    
  0.25535760774952204    0.32963644464559844    0.3990137206280587    0.4440243321667553    0.4561259164767429    
  0.4407291092951551    0.41016418881264083    0.3755172647418158    0.3434636325457759    0.3169872050857731    
  0.29691724362363664    0.28305522078256296    0.2749386332980596    0.27226208236150884    0.2749386332980596    
  0.28305522078256296    0.29691724362363664    0.3169872050857731    0.3434636325457759    0.3755172647418158    
  0.41016418881264083    0.4407291092951551    0.4561259164767429    0.4440243321667553    0.3990137206280587    
  0.32963644464559844    0.25535760774952204    0.19486991556001945    0.15767450684829323    0.1454098330485897    
  0.08866078701849903    0.0994845127003534    0.13400122724558097    0.19486991556001945    0.27676683038899696    
  0.36086753226597085    0.42237260001789534    0.4466331460817152    0.4367548490422899    0.4065750450243984    
  0.3697521949824458    0.33476207803168134    0.30546061740960423    0.28305514366157936    0.2675091672509647    
  0.25839905770234545    0.2553971023620715    0.25839905770234545    0.2675091672509647    0.28305514366157936    
  0.30546061740960423    0.33476207803168134    0.3697521949824458    0.4065750450243984    0.4367548490422899    
  0.4466331460817152    0.42237260001789534    0.36086753226597085    0.27676683038899696    0.19486991556001945    
  0.13400122724558097    0.0994845127003534    0.08866078701849903    0.059281735734029624    0.06857158451747182    
  0.0994845127003533    0.15767450684829315    0.24153777922131753    0.33345576059765974    0.4055716410727933    
  0.4385906564930897    0.4332579685977418    0.40401484818539796    0.3662167191797427    0.32961995551021156    
  0.2987044151738883    0.27493850956871263    0.2583990112280076    0.24869798397842618    0.24550178131680672    
  0.24869798397842618    0.2583990112280076    0.27493850956871263    0.2987044151738883    0.32961995551021156    
  0.3662167191797427    0.40401484818539796    0.4332579685977418    0.4385906564930897    0.4055716410727933    
  0.33345576059765974    0.24153777922131753    0.15767450684829315    0.0994845127003533    0.06857158451747182    
  0.059281735734029624    0.05060484267646206    0.05928173573402971    0.0886607870184991    0.1454098330485897    
  0.22936297344650028    0.32358373274863217    0.3992841634469975    0.43545822401744694    0.43186383413965446    
  0.40306647273044677    0.3650073695509858    0.3279063920105695    0.2964707036692769    0.2722619428697823    
  0.2553970401482826    0.24550176556465084    0.24224161193144095    0.24550176556465084    0.2553970401482826    
  0.2722619428697823    0.2964707036692769    0.3279063920105695    0.3650073695509858    0.40306647273044677    
  0.43186383413965446    0.43545822401744694    0.3992841634469975    0.32358373274863217    0.22936297344650028    
  0.1454098330485897    0.0886607870184991    0.05928173573402971    0.05060484267646206    0.05928173573402968    
  0.06857158451747175    0.09948451270035333    0.15767450684829312    0.24153777922131753    0.33345576059765974    
  0.4055716410727934    0.4385906564930897    0.4332579685977418    0.4040148481853981    0.36621671917974263    
  0.3296199555102116    0.29870441517388835    0.2749385095687126    0.2583990112280076    0.24869798397842618    
  0.24550178131680678    0.24869798397842618    0.2583990112280076    0.2749385095687126    0.29870441517388835    
  0.3296199555102116    0.36621671917974263    0.4040148481853981    0.4332579685977418    0.4385906564930897    
  0.4055716410727934    0.33345576059765974    0.24153777922131753    0.15767450684829312    0.09948451270035333    
  0.06857158451747175    0.05928173573402968    0.06857158451747174    0.0784256680070745    0.11070760372814002    
  0.1700551387241246    0.2535214942600062    0.34295458971478604    0.4114857712395772    0.44145608641208894    
  0.4344950131658924    0.4048752745267571    0.36737165063659144    0.3312923555089389    0.30089872265793294    
  0.27757021570134477    0.26134745462660464    0.2518331737346381    0.24869799951254418    0.2518331737346381    
  0.26134745462660464    0.27757021570134477    0.30089872265793294    0.3312923555089389    0.36737165063659144    
  0.4048752745267571    0.4344950131658924    0.44145608641208894    0.4114857712395772    0.34295458971478604    
  0.2535214942600062    0.1700551387241246    0.11070760372814002    0.0784256680070745    0.06857158451747174    
  0.09948451270035326    0.11070760372814009    0.14607739694464814    0.2072976277679253    0.2880036767721925    
  0.36921611143803296    0.42721781257556946    0.4487588280470179    0.4375582844118087    0.40718451893928237    
  0.37074112089448596    0.33630073908231867    0.3075245882542281    0.28554192378030613    0.2702901807921996    
  0.261347500547252    0.2583990726699318    0.261347500547252    0.2702901807921996    0.28554192378030613    
  0.3075245882542281    0.33630073908231867    0.37074112089448596    0.40718451893928237    0.4375582844118087    
  0.4487588280470179    0.42721781257556946    0.36921611143803296    0.2880036767721925    0.2072976277679253    
  0.14607739694464814    0.11070760372814009    0.09948451270035326    0.15767450684829312    0.17005513872412473    
  0.20729762776792526    0.267044085930166    0.33923697489670424    0.40545207649517306    0.4472854114087452    
  0.457210986214076    0.44092022461965397    0.41039203942314684    0.3762221233487134    0.3447517348642045    
  0.31880194471275297    0.299136484313493    0.2855420001351891    0.27757033811153914    0.2749386475241843    
  0.27757033811153914    0.2855420001351891    0.299136484313493    0.31880194471275297    0.3447517348642045    
  0.3762221233487134    0.41039203942314684    0.44092022461965397    0.457210986214076    0.4472854114087452    
  0.40545207649517306    0.33923697489670424    0.267044085930166    0.20729762776792526    0.17005513872412473    
  0.15767450684829312    0.24153777922131747    0.2535214942600062    0.2880036767721925    0.33923697489670424    
  0.3954525804951005    0.44121549800478854    0.4645707857174645    0.46308697310352115    0.44313820355448713    
  0.41420842931926205    0.3840115321429698    0.35703239830823075    0.33518000202057047    0.3188020527865372    
  0.3075247736832941    0.3008989549338011    0.2987046632322268    0.3008989549338011    0.3075247736832941    
  0.3188020527865372    0.33518000202057047    0.35703239830823075    0.3840115321429698    0.41420842931926205    
  0.44313820355448713    0.46308697310352115    0.4645707857174645    0.44121549800478854    0.3954525804951005    
  0.33923697489670424    0.2880036767721925    0.2535214942600062    0.24153777922131747    0.33345576059765974    
  0.3429545897147861    0.3692161114380329    0.405452076495173    0.44121549800478854    0.46584667415583964    
  0.4732101796144014    0.4639745381341604    0.44367792289874947    0.4188905908726127    0.3946055176020198    
  0.37363370329687456    0.3570325368749849    0.3447519836994649    0.33630106806469534    0.3312927332433216    