#     DFTpy    
  CRYSTAL 
    
  PRIMVEC    
  3.5693793103448304    0.0    0.0    
  0.0    3.5693793103448304    0.0    
  0.0    0.0    3.5693793103448304    
  PRIMCOORD    
  4    1    
  Si    0.0    0.0    0.0    
  Si    0.0    1.7846896551724105    1.7846896551724105    
  Si    1.7846896551724105    0.0    1.7846896551724105    
  Si    1.7846896551724105    1.7846896551724105    0.0    
  BEGIN_BLOCK_DATAGRID_3D    
  3d_datagrid_density    
  BEGIN_DATAGRID_3D#0    
  37    37    37    
  0.0    0.0    0.0    
  3.5693793236586835    0.0    0.0    
  0.0    3.5693793236586835    0.0    
  0.0    0.0    3.5693793236586835    
  0.05237876151285284    0.05976242207000821    0.0842826924871862    0.13095075204839263    0.20096533414884532    
  0.2842074146748051    0.3594686494587275    0.4060077887672829    0.41618877370041507    0.3970825655729226    
  0.36222889389058155    0.32333778384605244    0.2872996428576232    0.25704120451789675    0.2332272227941945    
  0.21550244848528347    0.20325309703514363    0.19602659608177894    0.19363057787055943    0.19602659608177897    
  0.20325309703514363    0.21550244848528347    0.2332272227941945    0.25704120451789664    0.2872996428576232    
  0.32333778384605255    0.36222889389058155    0.3970825655729226    0.41618877370041507    0.40600778876728283    
  0.3594686494587275    0.28420741467480515    0.20096533414884532    0.13095075204839265    0.0842826924871862    
  0.05976242207000823    0.05237876151285284    0.05976242207000826    0.06757589719483503    0.0931923381017614    
  0.14098155560757003    0.21116415552103715    0.29294511306220256    0.36543308977975375    0.4090313932167847    
  0.41714776065272213    0.39715135225384207    0.3622732825020139    0.32377556093734994    0.28823965610050595    
  0.25844676702945174    0.23501076469286275    0.21756638351352103    0.20550601585185163    0.1983876031371686    
  0.19602670343042553    0.1983876031371687    0.20550601585185163    0.21756638351352103    0.23501076469286275    
  0.25844676702945163    0.28823965610050595    0.32377556093735005    0.3622732825020139    0.39715135225384207    
  0.41714776065272213    0.40903139321678456    0.36543308977975375    0.29294511306220256    0.21116415552103715    
  0.14098155560757006    0.09319233810176143    0.06757589719483502    0.05976242207000826    0.08428269248718613    
  0.0931923381017614    0.12146944202910363    0.17156263154055673    0.24105598560572336    0.31764947154085627    
  0.381717468156576    0.4169327163484961    0.41941800312956184    0.39714833614556927    0.3623832011468495    
  0.3251196995585849    0.291092466157589    0.26268796196607064    0.24038171802248234    0.22378079675413157    
  0.21229389860188916    0.20550634292873127    0.20325353158278095    0.2055063429287313    0.21229389860188916    
  0.22378079675413157    0.24038171802248234    0.26268796196607064    0.291092466157589    0.325119699558585    
  0.3623832011468495    0.3971483361455693    0.41941800312956184    0.41693271634849605    0.381717468156576    
  0.31764947154085627    0.24105598560572336    0.1715626315405568    0.12146944202910363    0.09319233810176136    
  0.08428269248718613    0.1309507520483926    0.14098155560757009    0.17156263154055668    0.22224661627767706    
  0.28731774677527216    0.35342812562167153    0.40369969887026813    0.4265612527901228    0.4214350421443138    
  0.3965618440646004    0.3625294834405459    0.327487492323136    0.29599334958240575    0.2698924973748485    
  0.24946843749341502    0.2342881899401374    0.2237813584322592    0.21756727374894475    0.21550344689095097    
  0.2175672737489448    0.2237813584322592    0.2342881899401374    0.24946843749341502    0.26989249737484844    
  0.29599334958240575    0.32748749232313606    0.36252948344054586    0.3965618440646004    0.4214350421443138    
  0.4265612527901227    0.40369969887026813    0.35342812562167153    0.28731774677527216    0.22224661627767708    
  0.17156263154055668    0.14098155560757006    0.1309507520483926    0.2009653341488453    0.2111641555210372    
  0.24105598560572336    0.28731774677527216    0.3418202404190693    0.39184824351791114    0.4247000838968135    
  0.43385291348887567    0.42136240540784065    0.39488470658258784    0.3627891782123451    0.331145825356676    
  0.3032561565977061    0.28039068422604724    0.26262166733548753    0.2494692537545911    0.2403831016994465    
  0.23501248246973255    0.2332290508877534    0.23501248246973255    0.2403831016994465    0.2494692537545911    
  0.2626216673354875    0.2803906842260471    0.3032561565977061    0.3311458253566761    0.3627891782123451    
  0.39488470658258784    0.42136240540784065    0.4338529134888756    0.4247000838968135    0.39184824351791114    
  0.3418202404190692    0.2873177467752722    0.24105598560572336    0.21116415552103715    0.2009653341488453    
  0.2842074146748051    0.29294511306220256    0.31764947154085627    0.35342812562167153    0.39184824351791114    
  0.42273860589548806    0.43807185641451696    0.43537595383980743    0.41793198483107585    0.39196873105799424    
  0.3634705519694364    0.33655590626212284    0.31339121774034057    0.29471488508996657    0.2803917682364112    
  0.2698944107945658    0.2626904595636699    0.2584496115346176    0.257044164013632    0.2584496115346177    
  0.2626904595636699    0.2698944107945658    0.2803917682364112    0.29471488508996646    0.31339121774034057    
  0.3365559062621229    0.3634705519694364    0.39196873105799424    0.41793198483107585    0.4353759538398073    
  0.43807185641451696    0.4227386058954883    0.39184824351791114    0.35342812562167153    0.31764947154085627    
  0.2929451130622025    0.2842074146748051    0.3594686494587274    0.3654330897797538    0.381717468156576    
  0.40369969887026813    0.4247000838968135    0.43807185641451696    0.439754122266886    0.4296696302365993    
  0.4110143368424798    0.38821713114592904    0.3651376794996617    0.3443066001299911    0.32696613661793295    
  0.3133925636276049    0.3032586081318225    0.2959966629019345    0.29109639542951843    0.2882439546189488    
  0.2873040643089848    0.2882439546189488    0.29109639542951843    0.2959966629019345    0.3032586081318225    
  0.3133925636276049    0.3269661366179329    0.3443066001299912    0.3651376794996617    0.38821713114592904    
  0.4110143368424798    0.4296696302365992    0.439754122266886    0.43807185641451696    0.4247000838968135    
  0.40369969887026813    0.381717468156576    0.36543308977975375    0.3594686494587274    0.40600778876728283    
  0.40903139321678456    0.41693271634849605    0.4265612527901228    0.43385291348887567    0.4353759538398073    
  0.4296696302365992    0.41760132782267484    0.40160896648982386    0.38448351070501147    0.36846327608515295    
  0.354900434009984    0.3443081766131434    0.3365588574268636    0.3311499291206435    0.3274925100587781    
  0.3251253787046438    0.32378163954533734    0.32334399588868884    0.3237816395453374    0.3251253787046438    
  0.3274925100587781    0.3311499291206435    0.33655885742686353    0.3443081766131434    0.3549004340099841    
  0.36846327608515295    0.38448351070501147    0.40160896648982386    0.4176013278226748    0.4296696302365992    
  0.4353759538398073    0.43385291348887567    0.4265612527901227    0.41693271634849605    0.40903139321678456    
  0.40600778876728283    0.416188773700415    0.41714776065272213    0.41941800312956184    0.4214350421443138    
  0.42136240540784053    0.4179319848310758    0.41101433684247973    0.4016089664898239    0.39132679121381103    
  0.38174416870913297    0.3739645396563359    0.3684650253602261    0.36514103868250886    0.3634753419876291    
  0.3627951850848744    0.362536462889455    0.3623908860070685    0.36228139298247064    0.3622371463443222    
  0.36228139298247064    0.3623908860070685    0.36253646288945507    0.3627951850848744    0.36347534198762904    
  0.36514103868250886    0.36846502536022613    0.3739645396563359    0.38174416870913297    0.39132679121381103    
  0.4016089664898238    0.41101433684247973    0.41793198483107585    0.42136240540784053    0.42143504214431377    
  0.41941800312956184    0.41714776065272213    0.416188773700415    0.3970825655729226    0.3971513522538421    
  0.3971483361455693    0.39656184406460054    0.39488470658258795    0.3919687310579942    0.3882171311459291    
  0.3844835107050116    0.381744168709133    0.38074083859910274    0.38174601062465846    0.38448713736217216    
  0.38822242682072344    0.39197552098908106    0.3948927616512957    0.3965708943382441    0.3971580918913667    
  0.39716152421374734    0.39709287445214186    0.39716152421374745    0.3971580918913667    0.3965708943382441    
  0.3948927616512957    0.391975520989081    0.38822242682072344    0.38448713736217227    0.38174601062465846    
  0.38074083859910274    0.381744168709133    0.3844835107050115    0.3882171311459291    0.39196873105799424    
  0.394884706582588    0.3965618440646005    0.3971483361455693    0.39715135225384207    0.3970825655729226    
  0.36222889389058155    0.36227328250201396    0.3623832011468495    0.3625294834405459    0.3627891782123451    
  0.3634705519694363    0.36513767949966164    0.36846327608515306    0.37396453965633586    0.3817460106246584    
  0.39133051094193755    0.4016145295795934    0.4110216237541656    0.41794078461312384    0.4213724304913052    
  0.4214459674600836    0.41942951510355275    0.41715959157558397    0.4162007041974969    0.417159591575584    
  0.41942951510355275    0.42144596746008367    0.4213724304913052    0.41794078461312384    0.4110216237541656    
  0.40161452957959354    0.39133051094193755    0.3817460106246584    0.37396453965633586    0.36846327608515295    
  0.36513767949966164    0.3634705519694364    0.3627891782123451    0.3625294834405459    0.3623832011468495    
  0.36227328250201396    0.36222889389058155    0.32333778384605244    0.32377556093735    0.325119699558585    
  0.327487492323136    0.3311458253566761    0.3365559062621229    0.34430660012999115    0.35490043400998417    
  0.36846502536022613    0.3844871373621722    0.4016145295795934    0.4176087841161198    0.4296788028657258    
  0.4353865284267028    0.4338644847595555    0.42657341407375476    0.4169451496667241    0.409043913383106    
  0.4060203233886908    0.409043913383106    0.4169451496667241    0.42657341407375476    0.4338644847595555    
  0.4353865284267027    0.4296788028657258    0.41760878411611996    0.4016145295795935    0.3844871373621722    
  0.36846502536022613    0.35490043400998406    0.34430660012999115    0.3365559062621229    0.3311458253566761    
  0.327487492323136    0.325119699558585    0.32377556093734994    0.32333778384605244    0.2872996428576231    
  0.288239656100506    0.291092466157589    0.29599334958240575    0.3032561565977061    0.31339121774034046    
  0.3269661366179329    0.34430817661314345    0.36514103868250897    0.3882224268207234    0.4110216237541657    
  0.4296788028657257    0.43976486905236734    0.4380836798273202    0.4247124122514369    0.40371204882649786    
  0.38172957141942043    0.3654449230588986    0.35948037094724533    0.3654449230588986    0.38172957141942043    
  0.40371204882649797    0.4247124122514369    0.4380836798273201    0.43976486905236734    0.4296788028657258    
  0.4110216237541657    0.3882224268207234    0.36514103868250897    0.3443081766131434    0.3269661366179329    
  0.31339121774034057    0.3032561565977061    0.29599334958240575    0.291092466157589    0.28823965610050595    
  0.2872996428576231    0.25704120451789675    0.25844676702945174    0.26268796196607064    0.2698924973748485    
  0.2803906842260472    0.2947148850899665    0.3133925636276049    0.3365588574268636    0.3634753419876291    
  0.39197552098908095    0.4179407846131239    0.4353865284267028    0.4380836798273203    0.4227509410251088    
  0.39186035388850565    0.35343951245145805    0.3176600002379474    0.2929549850707673    0.28421704450210206    
  0.29295498507076734    0.3176600002379474    0.35343951245145805    0.39186035388850565    0.4227509410251088    
  0.4380836798273203    0.4353865284267029    0.4179407846131239    0.39197552098908095    0.3634753419876291    
  0.33655885742686353    0.3133925636276049    0.2947148850899666    0.2803906842260472    0.2698924973748485    
  0.26268796196607064    0.2584467670294517    0.25704120451789675    0.2332272227941945    0.23501076469286283    
  0.2403817180224824    0.24946843749341513    0.26262166733548736    0.28039176823641115    0.30325860813182254    
  0.3311499291206436    0.36279518508487446    0.3948927616512957    0.42137243049130524    0.4338644847595555    
  0.4247124122514369    0.39186035388850565    0.34183130120755584    0.2873273496960343    0.24106420956299493    
  0.21117143626132667    0.20097228462998712    0.21117143626132667    0.24106420956299493    0.2873273496960343    
  0.34183130120755584    0.3918603538885056    0.4247124122514369    0.43386448475955564    0.42137243049130524    
  0.3948927616512957    0.36279518508487446    0.3311499291206435    0.3032586081318226    0.2803917682364112    
  0.26262166733548736    0.24946843749341513    0.2403817180224824    0.23501076469286275    0.2332272227941945    
  0.2155024484852836    0.21756638351352098    0.22378079675413165    0.23428818994013748    0.2494692537545911    
  0.2698944107945657    0.29599666290193455    0.3274925100587783    0.36253646288945507    0.39657089433824405    
  0.4214459674600838    0.42657341407375476    0.40371204882649797    0.3534395124514581    0.28732734969603424    
  0.22225421453649552    0.17156854960893864    0.14098641415861518    0.13095525546252282    0.14098641415861524    
  0.17156854960893864    0.2222542145364955    0.28732734969603424    0.35343951245145805    0.40371204882649797    
  0.4265734140737549    0.4214459674600838    0.39657089433824405    0.36253646288945507    0.32749251005877816    
  0.29599666290193455    0.26989441079456583    0.2494692537545911    0.23428818994013748    0.22378079675413165    
  0.21756638351352092    0.2155024484852836    0.2032530970351436    0.20550601585185171    0.21229389860188908    
  0.22378135843225908    0.2403831016994465    0.2626904595636698    0.29109639542951843    0.3251253787046438    
  0.3623908860070685    0.39715809189136664    0.41942951510355275    0.4169451496667241    0.38172957141942043    
  0.31766000023794744    0.24106420956299485    0.17156854960893858    0.12147359205367794    0.09319544921716169    
  0.08428546955884504    0.09319544921716173    0.12147359205367796    0.17156854960893858    0.24106420956299485    
  0.3176600002379474    0.38172957141942043    0.41694514966672414    0.41942951510355275    0.39715809189136664    
  0.3623908860070685    0.32512537870464375    0.29109639542951843    0.2626904595636699    0.2403831016994465    
  0.22378135843225908    0.21229389860188908    0.20550601585185163    0.2032530970351436    0.19602659608177886    
  0.19838760313716858    0.20550634292873118    0.21756727374894475    0.23501248246973266    0.25844961153461765    
  0.2882439546189488    0.3237816395453374    0.36228139298247064    0.39716152421374723    0.41715959157558397    
  0.4090439133831059    0.3654449230588985    0.2929549850707672    0.21117143626132653    0.14098641415861518    
  0.0931954492171617    0.06757803500738559    0.05976425729189281    0.06757803500738563    0.0931954492171617    
  0.14098641415861513    0.21117143626132653    0.29295498507076717    0.3654449230588985    0.40904391338310603    
  0.41715959157558397    0.39716152421374723    0.36228139298247064    0.32378163954533734    0.2882439546189488    
  0.2584496115346178    0.23501248246973266    0.21756727374894475    0.2055063429287312    0.19838760313716852    
  0.19602659608177886    0.19363057787055937    0.19602670343042558    0.20325353158278095    0.2155034468909509    
  0.23322905088775334    0.25704416401363195    0.28730406430898486    0.323343995888689    0.36223714634432225    
  0.3970928744521418    0.4162007041974969    0.4060203233886908    0.35948037094724533    0.2842170445021021    
  0.20097228462998712    0.13095525546252285    0.08428546955884512    0.05976425729189288    0.05238030785670491    
  0.05976425729189294    0.08428546955884512    0.1309552554625228    0.20097228462998712    0.2842170445021021    
  0.35948037094724533    0.4060203233886909    0.4162007041974969    0.3970928744521418    0.36223714634432225    
  0.3233439958886889    0.28730406430898486    0.257044164013632    0.23322905088775334    0.21550344689095086    
  0.20325353158278092    0.19602670343042558    0.19363057787055937    0.19602659608177886    0.1983876031371686    
  0.20550634292873118    0.21756727374894475    0.2350124824697326    0.25844961153461765    0.28824395461894875    
  0.3237816395453374    0.36228139298247064    0.3971615242137473    0.41715959157558397    0.4090439133831059    
  0.3654449230588985    0.2929549850707673    0.21117143626132656    0.14098641415861524    0.09319544921716166    
  0.06757803500738555    0.059764257291892775    0.06757803500738563    0.09319544921716166    0.14098641415861518    
  0.21117143626132656    0.29295498507076717    0.3654449230588985    0.40904391338310603    0.41715959157558397    
  0.3971615242137473    0.36228139298247064    0.32378163954533734    0.28824395461894875    0.25844961153461776    
  0.2350124824697326    0.21756727374894475    0.20550634292873118    0.19838760313716858    0.19602659608177886    
  0.2032530970351436    0.20550601585185171    0.21229389860188908    0.22378135843225908    0.2403831016994465    
  0.2626904595636698    0.29109639542951843    0.3251253787046438    0.3623908860070685    0.39715809189136664    
  0.41942951510355275    0.4169451496667241    0.38172957141942043    0.31766000023794744    0.24106420956299485    
  0.1715685496089386    0.12147359205367796    0.09319544921716169    0.08428546955884504    0.09319544921716172    
  0.12147359205367794    0.17156854960893858    0.24106420956299485    0.3176600002379474    0.38172957141942043    
  0.41694514966672414    0.41942951510355275    0.39715809189136664    0.3623908860070685    0.3251253787046437    
  0.29109639542951843    0.2626904595636699    0.2403831016994465    0.22378135843225908    0.21229389860188908    
  0.20550601585185163    0.2032530970351436    0.21550244848528347    0.21756638351352103    0.22378079675413162    
  0.2342881899401374    0.24946925375459114    0.2698944107945658    0.29599666290193455    0.3274925100587783    
  0.36253646288945507    0.39657089433824405    0.4214459674600837    0.42657341407375476    0.40371204882649797    
  0.3534395124514581    0.28732734969603424    0.22225421453649558    0.1715685496089387    0.14098641415861515    
  0.13095525546252282    0.14098641415861518    0.1715685496089387    0.2222542145364955    0.2873273496960343    
  0.35343951245145805    0.40371204882649797    0.4265734140737549    0.4214459674600837    0.39657089433824405    
  0.36253646288945507    0.32749251005877816    0.29599666290193455    0.26989441079456583    0.24946925375459114    
  0.2342881899401374    0.22378079675413162    0.21756638351352098    0.21550244848528347    0.2332272227941945    
  0.23501076469286283    0.2403817180224824    0.24946843749341513    0.26262166733548736    0.28039176823641115    
  0.3032586081318226    0.3311499291206436    0.36279518508487446    0.3948927616512957    0.42137243049130524    
  0.4338644847595555    0.4247124122514369    0.39186035388850565    0.34183130120755584    0.2873273496960343    
  0.24106420956299493    0.21117143626132667    0.20097228462998712    0.21117143626132667    0.24106420956299499    
  0.2873273496960343    0.34183130120755584    0.3918603538885056    0.4247124122514369    0.43386448475955564    
  0.42137243049130524    0.3948927616512957    0.36279518508487446    0.3311499291206435    0.3032586081318226    
  0.2803917682364112    0.26262166733548736    0.24946843749341513    0.2403817180224824    0.23501076469286275    
  0.2332272227941945    0.25704120451789675    0.2584467670294517    0.26268796196607064    0.2698924973748485    
  0.2803906842260471    0.29471488508996646    0.3133925636276049    0.33655885742686364    0.3634753419876291    
  0.391975520989081    0.4179407846131239    0.4353865284267028    0.4380836798273202    0.4227509410251089    
  0.3918603538885056    0.3534395124514581    0.3176600002379474    0.2929549850707671    0.2842170445021021    
  0.2929549850707672    0.3176600002379474    0.3534395124514581    0.3918603538885056    0.4227509410251088    
  0.4380836798273202    0.4353865284267029    0.4179407846131239    0.391975520989081    0.3634753419876291    
  0.3365588574268636    0.3133925636276049    0.2947148850899665    0.2803906842260471    0.2698924973748485    
  0.26268796196607064    0.25844676702945163    0.25704120451789675    0.2872996428576231    0.288239656100506    
  0.291092466157589    0.29599334958240575    0.3032561565977061    0.31339121774034046    0.3269661366179329    
  0.34430817661314345    0.36514103868250897    0.3882224268207234    0.4110216237541657    0.4296788028657257    
  0.43976486905236734    0.4380836798273202    0.4247124122514369    0.4037120488264979    0.38172957141942043    
  0.3654449230588986    0.35948037094724533    0.3654449230588986    0.38172957141942043    0.40371204882649797    
  0.4247124122514369    0.4380836798273201    0.43976486905236734    0.4296788028657258    0.4110216237541657    
  0.3882224268207234    0.36514103868250897    0.3443081766131434    0.3269661366179329    0.31339121774034057    
  0.3032561565977061    0.29599334958240575    0.291092466157589    0.28823965610050595    0.2872996428576231    
  0.3233377838460525    0.32377556093735005    0.32511969955858494    0.32748749232313606    0.331145825356676    
  0.33655590626212284    0.34430660012999115    0.35490043400998417    0.3684650253602262    0.3844871373621722    
  0.4016145295795934    0.4176087841161199    0.4296788028657258    0.4353865284267028    0.4338644847595555    
  0.4265734140737549    0.4169451496667241    0.4090439133831059    0.4060203233886908    0.409043913383106    
  0.4169451496667241    0.42657341407375476    0.4338644847595555    0.4353865284267028    0.4296788028657258    
  0.41760878411612    0.4016145295795934    0.3844871373621722    0.3684650253602262    0.35490043400998406    
  0.34430660012999115    0.3365559062621229    0.331145825356676    0.327487492323136    0.32511969955858494    
  0.32377556093734994    0.3233377838460525    0.36222889389058155    0.36227328250201396    0.3623832011468495    
  0.3625294834405459    0.3627891782123451    0.3634705519694363    0.36513767949966164    0.36846327608515306    
  0.37396453965633586    0.3817460106246584    0.39133051094193755    0.4016145295795934    0.4110216237541656    
  0.41794078461312384    0.4213724304913052    0.4214459674600836    0.41942951510355275    0.41715959157558397    
  0.4162007041974969    0.417159591575584    0.41942951510355275    0.42144596746008367    0.4213724304913052    
  0.41794078461312384    0.4110216237541656    0.40161452957959354    0.39133051094193755    0.3817460106246584    
  0.37396453965633586    0.36846327608515295    0.36513767949966164    0.3634705519694364    0.3627891782123451    
  0.3625294834405459    0.3623832011468495    0.36227328250201396    0.36222889389058155    0.3970825655729226    
  0.3971513522538421    0.3971483361455693    0.39656184406460054    0.394884706582588    0.3919687310579942    
  0.3882171311459291    0.3844835107050116    0.381744168709133    0.38074083859910274    0.38174601062465846    
  0.38448713736217216    0.38822242682072344    0.39197552098908106    0.3948927616512957    0.3965708943382441    
  0.3971580918913667    0.39716152421374734    0.39709287445214186    0.39716152421374745    0.3971580918913667    
  0.3965708943382441    0.3948927616512957    0.391975520989081    0.38822242682072344    0.38448713736217227    
  0.38174601062465846    0.38074083859910274    0.381744168709133    0.3844835107050115    0.3882171311459291    
  0.39196873105799424    0.394884706582588    0.3965618440646005    0.3971483361455693    0.39715135225384207    
  0.3970825655729226    0.416188773700415    0.41714776065272213    0.41941800312956184    0.4214350421443138    
  0.42136240540784053    0.4179319848310758    0.41101433684247973    0.4016089664898239    0.39132679121381103    
  0.38174416870913297    0.3739645396563359    0.3684650253602261    0.36514103868250886    0.3634753419876291    
  0.3627951850848744    0.362536462889455    0.3623908860070685    0.36228139298247064    0.3622371463443222    
  0.36228139298247064    0.3623908860070685    0.36253646288945507    0.3627951850848744    0.36347534198762904    
  0.36514103868250886    0.36846502536022613    0.3739645396563359    0.38174416870913297    0.39132679121381103    
  0.4016089664898238    0.41101433684247973    0.41793198483107585    0.42136240540784053    0.42143504214431377    
  0.41941800312956184    0.41714776065272213    0.416188773700415    0.4060077887672828    0.40903139321678456    
  0.4169327163484961    0.4265612527901227    0.43385291348887567    0.4353759538398073    0.4296696302365992    
  0.41760132782267484    0.40160896648982386    0.38448351070501147    0.36846327608515295    0.35490043400998394    
  0.3443081766131434    0.33655885742686353    0.3311499291206435    0.3274925100587781    0.3251253787046438    
  0.32378163954533734    0.3233439958886889    0.3237816395453374    0.3251253787046438    0.3274925100587782    
  0.3311499291206435    0.3365588574268635    0.3443081766131434    0.35490043400998406    0.36846327608515295    
  0.38448351070501147    0.40160896648982386    0.4176013278226748    0.4296696302365992    0.43537595383980743    
  0.43385291348887567    0.4265612527901227    0.4169327163484961    0.40903139321678456    0.4060077887672828    
  0.3594686494587274    0.3654330897797538    0.381717468156576    0.40369969887026813    0.4247000838968135    
  0.43807185641451696    0.439754122266886    0.4296696302365993    0.4110143368424798    0.38821713114592904    
  0.3651376794996617    0.3443066001299911    0.3269661366179329    0.3133925636276049    0.3032586081318225    
  0.29599666290193455    0.29109639542951843    0.2882439546189488    0.2873040643089848    0.2882439546189488    
  0.29109639542951843    0.2959966629019345    0.3032586081318225    0.31339256362760487    0.32696613661793295    
  0.3443066001299912    0.3651376794996617    0.38821713114592904    0.4110143368424798    0.4296696302365992    
  0.439754122266886    0.43807185641451696    0.4247000838968135    0.40369969887026813    0.381717468156576    
  0.36543308977975375    0.3594686494587274    0.28420741467480504    0.29294511306220256    0.31764947154085627    
  0.35342812562167153    0.39184824351791114    0.4227386058954882    0.43807185641451696    0.4353759538398073    
  0.41793198483107585    0.3919687310579941    0.3634705519694364    0.3365559062621228    0.31339121774034057    
  0.29471488508996657    0.28039176823641127    0.2698944107945658    0.2626904595636699    0.2584496115346177    
  0.257044164013632    0.2584496115346178    0.2626904595636699    0.2698944107945658    0.28039176823641127    
  0.2947148850899665    0.31339121774034057    0.3365559062621229    0.3634705519694364    0.3919687310579941    
  0.41793198483107585    0.4353759538398072    0.43807185641451696    0.4227386058954883    0.39184824351791114    
  0.35342812562167153    0.31764947154085627    0.29294511306220256    0.28420741467480504    0.2009653341488453    
  0.2111641555210372    0.24105598560572336    0.28731774677527216    0.3418202404190692    0.39184824351791114    
  0.4247000838968135    0.43385291348887567    0.42136240540784065    0.39488470658258784    0.3627891782123451    
  0.331145825356676    0.3032561565977061    0.28039068422604724    0.2626216673354875    0.2494692537545911    
  0.2403831016994465    0.23501248246973255    0.2332290508877534    0.23501248246973255    0.2403831016994465    
  0.2494692537545911    0.26262166733548753    0.2803906842260471    0.3032561565977061    0.3311458253566761    
  0.3627891782123451    0.39488470658258784    0.42136240540784065    0.4338529134888756    0.4247000838968135    
  0.39184824351791114    0.3418202404190693    0.2873177467752722    0.24105598560572336    0.21116415552103715    
  0.2009653341488453    0.1309507520483927    0.14098155560757003    0.17156263154055673    0.22224661627767708    
  0.2873177467752721    0.3534281256216714    0.4036996988702681    0.4265612527901228    0.4214350421443138    
  0.3965618440646004    0.362529483440546    0.327487492323136    0.29599334958240575    0.2698924973748485    
  0.24946843749341502    0.2342881899401374    0.22378135843225913    0.21756727374894475    0.215503446890951    
  0.2175672737489448    0.22378135843225913    0.23428818994013745    0.24946843749341502    0.26989249737484844    
  0.29599334958240575    0.3274874923231361    0.362529483440546    0.3965618440646004    0.4214350421443138    
  0.4265612527901227    0.4036996988702681    0.35342812562167153    0.2873177467752721    0.22224661627767714    
  0.17156263154055673    0.14098155560756997    0.1309507520483927    0.08428269248718613    0.09319233810176142    
  0.12146944202910363    0.17156263154055673    0.24105598560572336    0.31764947154085627    0.381717468156576    
  0.4169327163484961    0.41941800312956184    0.39714833614556927    0.3623832011468495    0.3251196995585849    