#     DFTpy    
  CRYSTAL 
    
  PRIMVEC    
  4.062517241379311    0.0    0.0    
  0.0    4.062517241379311    0.0    
  0.0    0.0    4.062517241379311    
  PRIMCOORD    
  4    1    
  Si    0.0    0.0    0.0    
  Si    0.0    2.0312586206896603    2.0312586206896603    
  Si    2.0312586206896603    0.0    2.0312586206896603    
  Si    2.0312586206896603    2.0312586206896603    0.0    
  BEGIN_BLOCK_DATAGRID_3D    
  3d_datagrid_density    
  BEGIN_DATAGRID_3D#0    
  41    41    41    
  0.0    0.0    0.0    
  4.062517256532578    0.0    0.0    
  0.0    4.062517256532578    0.0    
  0.0    0.0    4.062517256532578    
  0.05718124728551354    0.06506023334492195    0.09098792275530171    0.1392855259279194    0.20893767667831917    
  0.28636080573794226    0.34833917327311203    0.37627832898984304    0.3677094519090658    0.33395705315747676    
  0.28966338344995535    0.24537012161531313    0.20633204310542852    0.17427690648642732    0.14912940404063596    
  0.13003276050113366    0.11594052193015807    0.105935132481772    0.09931495016568431    0.09556702465076769    
  0.09435748388619883    0.0955670246507677    0.09931495016568435    0.10593513248177194    0.11594052193015807    
  0.1300327605011336    0.14912940404063593    0.17427690648642727    0.20633204310542844    0.245370121615313    
  0.2896633834499553    0.33395705315747676    0.3677094519090658    0.376278328989843    0.34833917327311203    
  0.2863608057379422    0.20893767667831917    0.1392855259279194    0.09098792275530171    0.06506023334492197    
  0.05718124728551354    0.06506023334492211    0.07335506291978612    0.10028638392185514    0.14940922079622332    
  0.2186541421981407    0.29390327207232625    0.35257607373743743    0.37742091749154477    0.366917485289975    
  0.3324596814752214    0.28824507171053654    0.2443645270600924    0.20581104379027457    0.1742013340045165    
  0.14942394453519697    0.13061943794726805    0.11675284964963124    0.10691912269344775    0.10042279556768896    
  0.09675083978010517    0.09556701833466819    0.09675083978010512    0.10042279556768899    0.10691912269344767    
  0.11675284964963124    0.130619437947268    0.14942394453519692    0.17420133400451646    0.2058110437902745    
  0.2443645270600923    0.28824507171053654    0.33245968147522154    0.366917485289975    0.3774209174915447    
  0.35257607373743743    0.29390327207232625    0.2186541421981407    0.14940922079622332    0.10028638392185507    
  0.07335506291978615    0.06506023334492211    0.09098792275530183    0.10028638392185518    0.12946230588158858    
  0.17984016993370674    0.24660556345681742    0.31463131818313866    0.363485454896571    0.379645282613044    
  0.3639661313179336    0.32780263415345284    0.28402284125793864    0.24145706210839377    0.20438256992286988    
  0.17411507794962106    0.15044694887595916    0.13251553855946477    0.11932194844826714    0.10999893207688405    
  0.10386998809292018    0.10042277629715862    0.09931492453640572    0.10042277629715861    0.10386998809292027    
  0.109998932076884    0.11932194844826714    0.1325155385594648    0.15044694887595914    0.17411507794962106    
  0.20438256992286985    0.24145706210839368    0.28402284125793864    0.3278026341534529    0.3639661313179336    
  0.379645282613044    0.3634854548965711    0.31463131818313866    0.24660556345681742    0.17984016993370674    
  0.12946230588158855    0.10028638392185524    0.09098792275530183    0.13928552592791948    0.14940922079622324    
  0.17984016993370674    0.2287283062569876    0.2881061972317256    0.3427356283169291    0.3761223419145535    
  0.37988513679226776    0.3575094575207004    0.3196901666897621    0.2771768843442871    0.2369950809730216    
  0.20243608692598877    0.17440735782924735    0.15257636999998464    0.13608796633017758    0.12400593834188345    
  0.11552471055843762    0.10999889852093883    0.10691906957460699    0.10593507283986417    0.10691906957460696    
  0.1099988985209389    0.11552471055843758    0.12400593834188345    0.13608796633017758    0.1525763699999847    
  0.17440735782924732    0.20243608692598872    0.23699508097302147    0.27717688434428706    0.3196901666897622    
  0.3575094575207004    0.3798851367922677    0.3761223419145535    0.3427356283169291    0.28810619723172554    
  0.2287283062569876    0.17984016993370672    0.14940922079622332    0.13928552592791948    0.20893767667831925    
  0.21865414219814064    0.24660556345681742    0.2881061972317255    0.3333912861097331    0.36909582697036586    
  0.3839675355053884    0.37466412281651584    0.3463415638722259    0.30813256033188896    0.2681937625649007    
  0.23158340122342158    0.2005657913624801    0.1756321234998988    0.15633353279086168    0.14184321539261424    
  0.131310279460564    0.1240058880492254    0.11932186396399616    0.11675274485530915    0.11594041028595777    
  0.1167527448553091    0.11932186396399616    0.12400588804922535    0.131310279460564    0.1418432153926142    
  0.15633353279086165    0.1756321234998988    0.20056579136248    0.2315834012234215    0.2681937625649007    
  0.30813256033188896    0.3463415638722259    0.37466412281651584    0.3839675355053884    0.36909582697036586    
  0.3333912861097331    0.2881061972317255    0.24660556345681736    0.2186541421981407    0.20893767667831925    
  0.28636080573794226    0.2939032720723263    0.3146313181831386    0.3427356283169291    0.36909582697036586    
  0.3840317147343563    0.38152545704679613    0.3618204706437089    0.3302622006067659    0.2937709365613301    
  0.257930238422364    0.22604007780927243    0.19948610159910982    0.17841475742497856    0.16229846061427394    
  0.15036085905710456    0.14184314624493394    0.1360878457914329    0.1325153822842338    0.13061926005653776    
  0.13003257525404702    0.1306192600565377    0.13251538228423382    0.13608784579143288    0.14184314624493394    
  0.15036085905710453    0.16229846061427394    0.17841475742497853    0.19948610159910973    0.22604007780927232    
  0.257930238422364    0.2937709365613301    0.3302622006067659    0.3618204706437089    0.38152545704679613    
  0.3840317147343563    0.36909582697036586    0.3427356283169291    0.31463131818313855    0.2939032720723263    
  0.28636080573794226    0.34833917327311203    0.3525760737374375    0.3634854548965711    0.3761223419145534    
  0.3839675355053885    0.3815254570467962    0.36673184160024636    0.3415321090360411    0.3103481174981319    
  0.2778446872247848    0.24749833218065315    0.22128349101883907    0.19994797081185225    0.1834035146078431    
  0.17109240280504479    0.1622983725845275    0.15633337375517983    0.15257615670014804    0.1504466968919832    
  0.1494236688085743    0.14912912019587504    0.14942366880857424    0.1504466968919832    0.152576156700148    
  0.15633337375517983    0.1622983725845275    0.17109240280504479    0.1834035146078431    0.19994797081185217    
  0.22128349101883898    0.24749833218065315    0.2778446872247848    0.3103481174981319    0.34153210903604103    
  0.36673184160024636    0.3815254570467962    0.3839675355053885    0.3761223419145534    0.3634854548965711    
  0.3525760737374375    0.34833917327311203    0.376278328989843    0.3774209174915447    0.3796452826130439    
  0.37988513679226765    0.37466412281651584    0.3618204706437088    0.341532109036041    0.31605330402595255    
  0.28853543317779196    0.26185752254659567    0.23804456720299147    0.2182060857643719    0.2026871167826327    
  0.19127005087331303    0.183403409487245    0.17841456142589124    0.17563185172766863    0.17440702619356555    
  0.17411470258264394    0.17420093155293848    0.17427649477730714    0.17420093155293845    0.17411470258264394    
  0.1744070261935655    0.17563185172766863    0.17841456142589118    0.183403409487245    0.19127005087331303    
  0.20268711678263265    0.2182060857643718    0.23804456720299147    0.26185752254659567    0.28853543317779196    
  0.3160533040259525    0.341532109036041    0.3618204706437088    0.37466412281651584    0.37988513679226765    
  0.3796452826130438    0.37742091749154466    0.376278328989843    0.3677094519090658    0.3669174852899749    
  0.36396613131793354    0.3575094575207003    0.3463415638722259    0.3302622006067659    0.3103481174981319    
  0.28853543317779196    0.2669138594374913    0.24720250999660148    0.23055743015874908    0.21757993871635925    
  0.20838316128153603    0.20268699711452534    0.19994774207038307    0.1994857751713885    0.20056538056798373    
  0.20243560737882968    0.20438203925906914    0.2058104814243464    0.20633146995849486    0.20581048142434638    
  0.20438203925906914    0.20243560737882965    0.20056538056798373    0.19948577517138846    0.19994774207038307    
  0.20268699711452534    0.20838316128153594    0.21757993871635914    0.23055743015874908    0.24720250999660154    
  0.2669138594374913    0.28853543317779196    0.3103481174981319    0.3302622006067659    0.3463415638722259    
  0.3575094575207003    0.3639661313179335    0.3669174852899749    0.3677094519090658    0.33395705315747676    
  0.3324596814752214    0.3278026341534529    0.3196901666897621    0.3081325603318889    0.29377093656133    
  0.2778446872247848    0.26185752254659567    0.24720250999660143    0.2349449669618398    0.22576857785219967    
  0.21998937083517034    0.21757980820293768    0.21820583061515242    0.221283118046349    0.22603959592374315    
  0.231582822700489    0.23699442221288886    0.24145634337973526    0.24436377139061305    0.24536935349027922    
  0.2443637713906129    0.24145634337973526    0.23699442221288886    0.231582822700489    0.22603959592374315    
  0.221283118046349    0.21820583061515242    0.21757980820293765    0.21998937083517026    0.22576857785219967    
  0.2349449669618398    0.24720250999660143    0.2618575225465956    0.2778446872247848    0.2937709365613301    
  0.3081325603318889    0.3196901666897621    0.3278026341534528    0.3324596814752214    0.33395705315747676    
  0.28966338344995546    0.2882450717105366    0.28402284125793864    0.2771768843442871    0.2681937625649008    
  0.257930238422364    0.24749833218065315    0.2380445672029916    0.2305574301587491    0.22576857785219973    
  0.22412252924588766    0.22576844164932117    0.23055715793263099    0.23804416022252683    0.24749779412133485    
  0.25792957678353273    0.26819299006888236    0.27717601968827    0.2840219083115257    0.28824409729664974    
  0.28966239521039644    0.2882440972966497    0.2840219083115257    0.27717601968827    0.26819299006888236    
  0.2579295767835327    0.2474977941213349    0.23804416022252683    0.23055715793263087    0.22576844164932108    
  0.22412252924588766    0.22576857785219978    0.2305574301587491    0.23804456720299158    0.24749833218065312    
  0.257930238422364    0.2681937625649008    0.2771768843442871    0.2840228412579386    0.2882450717105366    
  0.28966338344995546    0.24537012161531313    0.24436452706009246    0.24145706210839374    0.23699508097302147    
  0.23158340122342158    0.22604007780927238    0.22128349101883898    0.21820608576437198    0.21757993871635925    
  0.2199893708351704    0.22576844164932108    0.234944688940106    0.247202085370875    0.26185694892225886    
  0.2778439665134816    0.2937700768267793    0.3081315771241009    0.31968908296894083    0.3278014780305383    
  0.33245848262392685    0.3339558403219059    0.33245848262392674    0.3278014780305382    0.3196890829689408    
  0.3081315771241009    0.2937700768267793    0.2778439665134816    0.26185694892225886    0.24720208537087499    
  0.23494468894010587    0.22576844164932108    0.2199893708351704    0.21757993871635925    0.21820608576437195    
  0.22128349101883898    0.22604007780927238    0.23158340122342158    0.23699508097302147    0.24145706210839368    
  0.24436452706009246    0.24537012161531313    0.20633204310542852    0.20581104379027457    0.20438256992286988    
  0.20243608692598872    0.20056579136248007    0.19948610159910976    0.19994797081185217    0.20268711678263268    
  0.20838316128153606    0.2175798082029378    0.23055715793263082    0.247202085370875    0.2669132737968858    
  0.28853468221429585    0.310347204009549    0.3302611370095617    0.34634037285449587    0.3575081694653206    
  0.3639647788570582    0.36691609780786855    0.3677080535735865    0.36691609780786855    0.36396477885705814    
  0.3575081694653206    0.34634037285449587    0.3302611370095618    0.310347204009549    0.28853468221429585    
  0.26691327379688573    0.24720208537087493    0.23055715793263082    0.21757980820293782    0.20838316128153606    
  0.20268711678263263    0.19994797081185217    0.19948610159910973    0.2005657913624801    0.20243608692598872    
  0.20438256992286985    0.20581104379027457    0.20633204310542852    0.17427690648642735    0.17420133400451657    
  0.17411507794962106    0.17440735782924738    0.17563212349989882    0.17841475742497853    0.1834035146078431    
  0.19127005087331309    0.20268699711452534    0.21820583061515236    0.23804416022252683    0.2618569489222589    
  0.2885346822142959    0.3160523725757704    0.3415310059860125    0.36181922015697215    0.3746627624199845    
  0.37988370890298845    0.37964382320402174    0.3774194484445931    0.3762768585756944    0.377419448444593    
  0.3796438232040217    0.3798837089029884    0.3746627624199845    0.36181922015697215    0.34153100598601255    
  0.3160523725757705    0.28853468221429585    0.2618569489222588    0.23804416022252683    0.21820583061515245    
  0.20268699711452534    0.19127005087331306    0.1834035146078431    0.17841475742497853    0.17563212349989882    
  0.17440735782924738    0.17411507794962103    0.17420133400451657    0.17427690648642735    0.14912940404063602    
  0.14942394453519706    0.1504469488759591    0.1525763699999847    0.15633353279086168    0.16229846061427403    
  0.17109240280504473    0.1834034094872451    0.19994774207038307    0.221283118046349    0.2474977941213349    
  0.2778439665134817    0.310347204009549    0.3415310059860126    0.36673057290318384    0.3815240701469416    
  0.3839660924121272    0.3761208997078955    0.3634840469446548    0.352574702618019    0.3483378174039671    
  0.35257470261801893    0.36348404694465475    0.3761208997078954    0.3839660924121272    0.3815240701469417    
  0.36673057290318384    0.3415310059860127    0.310347204009549    0.2778439665134816    0.2474977941213349    
  0.22128311804634912    0.19994774207038307    0.18340340948724504    0.17109240280504473    0.16229846061427397    
  0.1563335327908617    0.1525763699999847    0.15044694887595908    0.149423944535197    0.14912940404063602    
  0.1300327605011337    0.130619437947268    0.13251553855946469    0.13608796633017758    0.14184321539261419    
  0.15036085905710453    0.16229837258452742    0.17841456142589127    0.19948577517138855    0.22603959592374315    
  0.25792957678353257    0.2937700768267793    0.3302611370095617    0.3618192201569721    0.3815240701469416    
  0.3840302739075889    0.36909442328991077    0.34273432688653355    0.3146301362259737    0.29390218091904574    
  0.2863597479332431    0.29390218091904574    0.3146301362259737    0.3427343268865335    0.36909442328991077    
  0.384030273907589    0.38152407014694156    0.3618192201569721    0.3302611370095617    0.29377007682677914    
  0.25792957678353257    0.2260395959237432    0.19948577517138855    0.17841456142589113    0.16229837258452742    
  0.15036085905710445    0.14184321539261419    0.13608796633017758    0.1325155385594647    0.130619437947268    
  0.1300327605011337    0.11594052193015804    0.11675284964963127    0.11932194844826714    0.12400593834188349    
  0.13131027946056398    0.14184314624493385    0.1563333737551799    0.1756318517276687    0.20056538056798381    
  0.23158282270048902    0.26819299006888236    0.30813157712410083    0.34634037285449587    0.37466276241998436    
  0.3839660924121272    0.36909442328991077    0.3333900338735264    0.28810515069005416    0.2466047066398066    
  0.21865341152603004    0.20893698933754878    0.21865341152603    0.2466047066398066    0.2881051506900541    
  0.3333900338735264    0.3690944232899108    0.3839660924121272    0.3746627624199845    0.3463403728544958    
  0.3081315771241008    0.26819299006888236    0.23158282270048908    0.20056538056798381    0.17563185172766865    
  0.1563333737551799    0.14184314624493383    0.131310279460564    0.12400593834188349    0.11932194844826714    
  0.1167528496496313    0.11594052193015804    0.10593513248177204    0.10691912269344774    0.10999893207688391    
  0.11552471055843748    0.12400588804922526    0.13608784579143285    0.15257615670014796    0.17440702619356555    
  0.20243560737882965    0.23699442221288886    0.2771760196882698    0.31968908296894066    0.3575081694653205    
  0.37988370890298834    0.3761208997078954    0.3427343268865335    0.2881051506900541    0.2287275363404411    
  0.1798396180814136    0.14940879717277816    0.1392851432850558    0.14940879717277816    0.1798396180814136    
  0.22872753634044107    0.2881051506900541    0.3427343268865336    0.3761208997078954    0.3798837089029884    
  0.3575081694653205    0.31968908296894055    0.2771760196882698    0.23699442221288894    0.20243560737882965    
  0.1744070261935655    0.15257615670014796    0.13608784579143277    0.12400588804922529    0.11552471055843748    
  0.10999893207688394    0.10691912269344771    0.10593513248177204    0.09931495016568444    0.10042279556768904    
  0.10386998809292013    0.1099988985209389    0.1193218639639962    0.13251538228423382    0.15044669689198317    
  0.174114702582644    0.2043820392590692    0.24145634337973526    0.2840219083115257    0.3278014780305383    
  0.36396477885705825    0.3796438232040217    0.3634840469446547    0.31463013622597374    0.24660470663980663    
  0.17983961808141366    0.12946196297518842    0.10028614857229748    0.09098771886088215    0.10028614857229744    
  0.1294619629751884    0.1798396180814136    0.24660470663980663    0.31463013622597374    0.36348404694465475    
  0.3796438232040218    0.36396477885705814    0.32780147803053816    0.2840219083115257    0.24145634337973532    
  0.2043820392590692    0.17411470258264392    0.1504466968919832    0.13251538228423382    0.1193218639639962    
  0.1099988985209389    0.10386998809292013    0.10042279556768902    0.09931495016568444    0.09556702465076768    
  0.09675083978010514    0.10042277629715869    0.10691906957460696    0.11675274485530919    0.1306192600565378    
  0.14942366880857433    0.17420093155293856    0.2058104814243465    0.24436377139061297    0.28824409729664974    
  0.33245848262392697    0.36691609780786866    0.3774194484445931    0.3525747026180189    0.29390218091904574    
  0.21865341152603004    0.1494087971727783    0.1002861485722975    0.07335491328635622    0.06506010653972834    
  0.07335491328635625    0.1002861485722975    0.14940879717277822    0.21865341152603004    0.2939021809190458    
  0.35257470261801893    0.37741944844459313    0.36691609780786866    0.33245848262392685    0.2882440972966497    
  0.24436377139061305    0.2058104814243465    0.17420093155293848    0.14942366880857433    0.1306192600565378    
  0.11675274485530918    0.10691906957460696    0.10042277629715865    0.09675083978010514    0.09556702465076768    
  0.09435748388619888    0.09556701833466828    0.09931492453640581    0.10593507283986418    0.11594041028595777    
  0.13003257525404702    0.1491291201958751    0.17427649477730717    0.20633146995849494    0.24536935349027927    
  0.28966239521039644    0.33395584032190595    0.3677080535735866    0.3762768585756944    0.3483378174039671    
  0.2863597479332432    0.20893698933754878    0.13928514328505592    0.0909877188608822    0.06506010653972838    
  0.05718114009115886    0.06506010653972831    0.09098771886088226    0.13928514328505587    0.20893698933754878    
  0.2863597479332432    0.3483378174039672    0.3762768585756945    0.36770805357358655    0.3339558403219059    
  0.2896623952103965    0.24536935349027933    0.20633146995849494    0.17427649477730708    0.1491291201958751    
  0.13003257525404693    0.11594041028595778    0.10593507283986418    0.0993149245364058    0.09556701833466823    
  0.09435748388619888    0.0955670246507677    0.09675083978010515    0.10042277629715865    0.10691906957460696    
  0.11675274485530919    0.13061926005653776    0.14942366880857427    0.1742009315529386    0.2058104814243465    
  0.244363771390613    0.2882440972966497    0.33245848262392697    0.3669160978078687    0.3774194484445931    
  0.35257470261801893    0.2939021809190458    0.21865341152603    0.1494087971727783    0.1002861485722975    
  0.07335491328635625    0.06506010653972834    0.07335491328635622    0.1002861485722975    0.1494087971727782    
  0.21865341152603    0.2939021809190458    0.352574702618019    0.37741944844459313    0.36691609780786866    
  0.33245848262392685    0.2882440972966497    0.24436377139061305    0.2058104814243465    0.1742009315529385    
  0.14942366880857427    0.13061926005653773    0.11675274485530922    0.10691906957460696    0.10042277629715862    
  0.09675083978010517    0.0955670246507677    0.0993149501656844    0.10042279556768907    0.10386998809292018    
  0.10999889852093893    0.1193218639639962    0.13251538228423385    0.1504466968919832    0.17411470258264405    
  0.2043820392590692    0.24145634337973523    0.2840219083115257    0.3278014780305383    0.3639647788570583    
  0.3796438232040217    0.3634840469446547    0.31463013622597374    0.24660470663980663    0.17983961808141372    
  0.12946196297518836    0.10028614857229748    0.0909877188608822    0.10028614857229748    0.1294619629751884    
  0.17983961808141366    0.24660470663980663    0.3146301362259738    0.3634840469446548    0.3796438232040218    
  0.36396477885705825    0.32780147803053816    0.2840219083115257    0.24145634337973532    0.2043820392590692    
  0.17411470258264394    0.1504466968919832    0.13251538228423382    0.1193218639639962    0.10999889852093893    
  0.10386998809292018    0.10042279556768907    0.0993149501656844    0.10593513248177204    0.10691912269344771    
  0.10999893207688387    0.11552471055843754    0.12400588804922531    0.13608784579143285    0.15257615670014796    
  0.17440702619356555    0.20243560737882965    0.2369944222128888    0.27717601968826977    0.31968908296894066    
  0.3575081694653205    0.37988370890298834    0.3761208997078954    0.34273432688653355    0.2881051506900541    
  0.22872753634044107    0.1798396180814136    0.14940879717277816    0.1392851432850558    0.14940879717277816    
  0.1798396180814136    0.22872753634044102    0.2881051506900541    0.34273432688653366    0.3761208997078954    
  0.3798837089029884    0.3575081694653205    0.31968908296894066    0.2771760196882698    0.2369944222128889    
  0.20243560737882965    0.17440702619356543    0.15257615670014796    0.13608784579143277    0.12400588804922531    
  0.11552471055843754    0.10999893207688387    0.10691912269344768    0.10593513248177204    0.11594052193015804    
  0.11675284964963127    0.11932194844826714    0.12400593834188349    0.13131027946056398    0.14184314624493385    
  0.1563333737551799    0.1756318517276687    0.20056538056798381    0.23158282270048902    0.26819299006888236    
  0.30813157712410083    0.34634037285449587    0.37466276241998436    0.3839660924121272    0.36909442328991077    
  0.3333900338735264    0.28810515069005416    0.2466047066398066    0.21865341152603004    0.20893698933754878    
  0.21865341152603    0.2466047066398066    0.2881051506900541    0.3333900338735264    0.3690944232899108    
  0.3839660924121272    0.3746627624199845    0.3463403728544958    0.3081315771241008    0.26819299006888236    
  0.23158282270048908    0.20056538056798381    0.17563185172766865    0.1563333737551799    0.14184314624493383    
  0.131310279460564    0.12400593834188349    0.11932194844826714    0.1167528496496313    0.11594052193015804    
  0.13003276050113372    0.13061943794726802    0.1325155385594647    0.13608796633017758    0.14184321539261413    
  0.15036085905710447    0.16229837258452742    0.17841456142589118    0.19948577517138846    0.22603959592374315    
  0.25792957678353257    0.29377007682677925    0.3302611370095617    0.36181922015697204    0.3815240701469415    
  0.3840302739075888    0.36909442328991077    0.3427343268865336    0.31463013622597374    0.29390218091904574    
  0.2863597479332431    0.29390218091904574    0.31463013622597374    0.34273432688653355    0.36909442328991077    
  0.3840302739075889    0.38152407014694156    0.3618192201569721    0.3302611370095617    0.29377007682677914    
  0.25792957678353257    0.2260395959237432    0.19948577517138846    0.17841456142589113    0.1622983725845274    
  0.15036085905710442    0.14184321539261419    0.13608796633017758    0.1325155385594647    0.13061943794726802    
  0.13003276050113372    0.149129404040636    0.14942394453519706    0.15044694887595908    0.15257636999998464    
  0.15633353279086168    0.16229846061427397    0.1710924028050447    0.1834034094872451    0.19994774207038307    
  0.221283118046349    0.24749779412133482    0.2778439665134817    0.310347204009549    0.3415310059860126    
  0.3667305729031839    0.3815240701469416    0.3839660924121272    0.3761208997078955    0.36348404694465475    
  0.352574702618019    0.34833781740396713    0.35257470261801893    0.36348404694465475    0.3761208997078954    
  0.3839660924121272    0.3815240701469416    0.3667305729031839    0.3415310059860126    0.310347204009549    
  0.2778439665134816    0.24749779412133485    0.22128311804634906    0.19994774207038307    0.18340340948724504    
  0.17109240280504476    0.16229846061427397    0.15633353279086168    0.15257636999998464    0.15044694887595905    
  0.149423944535197    0.149129404040636    0.17427690648642732    0.17420133400451657    0.17411507794962106    
  0.17440735782924732    0.1756321234998988    0.17841475742497856    0.18340351460784313    0.19127005087331314    
  0.2026869971145254    0.21820583061515245    0.23804416022252683    0.2618569489222589    0.2885346822142959    
  0.31605237257577046    0.3415310059860125    0.36181922015697215    0.37466276241998436    0.37988370890298845    
  0.3796438232040217    0.37741944844459296    0.3762768585756944    0.377419448444593    0.3796438232040217    
  0.37988370890298845    0.37466276241998436    0.36181922015697215    0.3415310059860125    0.3160523725757704    
  0.28853468221429585    0.26185694892225875    0.23804416022252683    0.2182058306151525    0.2026869971145254    
  0.19127005087331309    0.18340351460784313    0.17841475742497856    0.1756321234998989    0.17440735782924732    
  0.174115077949621    0.17420133400451657    0.17427690648642732    0.20633204310542858    0.20581104379027454    
  0.20438256992286982    0.2024360869259887    0.20056579136248007    0.1994861015991097    0.19994797081185214    
  0.2026871167826327    0.20838316128153603    0.21757980820293774    0.23055715793263087    0.24720208537087512    
  0.26691327379688584    0.28853468221429585    0.310347204009549    0.3302611370095618    0.3463403728544958    
  0.3575081694653206    0.3639647788570582    0.3669160978078686    0.3677080535735865    0.3669160978078686    
  0.3639647788570582    0.3575081694653206    0.3463403728544958    0.33026113700956183    0.310347204009549    
  0.28853468221429585    0.26691327379688584    0.247202085370875    0.23055715793263087    0.2175798082029378    
  0.20838316128153603    0.20268711678263268    0.19994797081185214    0.1994861015991097    0.2005657913624801    
  0.2024360869259887    0.2043825699228698    0.20581104379027457    0.20633204310542858    0.24537012161531313    
  0.24436452706009235    0.24145706210839377    0.2369950809730215    0.23158340122342158    0.22604007780927238    
  0.22128349101883898    0.21820608576437198    0.21757993871635928    0.2199893708351704    0.22576844164932108    
  0.234944688940106    0.24720208537087507    0.2618569489222588    0.2778439665134816    0.29377007682677925    
  0.30813157712410083    0.3196890829689407    0.32780147803053816    0.33245848262392685    0.3339558403219059    
  0.33245848262392685    0.32780147803053816    0.3196890829689407    0.30813157712410083    0.29377007682677925    
  0.2778439665134816    0.2618569489222588    0.247202085370875    0.23494468894010592    0.22576844164932108    
  0.21998937083517045    0.21757993871635928    0.2182060857643719    0.22128349101883898    0.22604007780927243    
  0.23158340122342158    0.23699508097302155    0.24145706210839377    0.2443645270600924    0.24537012161531313    
  0.28966338344995546    0.2882450717105366    0.28402284125793864    0.277176884344287    0.26819376256490074    
  0.257930238422364    0.24749833218065315    0.2380445672029916    0.2305574301587491    0.22576857785219973    
  0.22412252924588766    0.22576844164932114    0.23055715793263099    0.23804416022252683    0.2474977941213349    
  0.25792957678353273    0.26819299006888236    0.27717601968826994    0.2840219083115257    0.28824409729664974    
  0.28966239521039644    0.2882440972966497    0.2840219083115257    0.2771760196882699    0.26819299006888236    
  0.25792957678353273    0.24749779412133485    0.23804416022252683    0.23055715793263093    0.22576844164932103    
  0.22412252924588766    0.22576857785219973    0.2305574301587491    0.23804456720299158    0.24749833218065315    