#     DFTpy    
  CRYSTAL 
    
  PRIMVEC    
  3.9920689655172406    0.0    0.0    
  0.0    3.9920689655172406    0.0    
  0.0    0.0    3.9920689655172406    
  PRIMCOORD    
  4    1    
  Si    0.0    0.0    0.0    
  Si    0.0    1.9960344827586207    1.9960344827586207    
  Si    1.9960344827586207    0.0    1.9960344827586207    
  Si    1.9960344827586207    1.9960344827586207    0.0    
  BEGIN_BLOCK_DATAGRID_3D    
  3d_datagrid_density    
  BEGIN_DATAGRID_3D#0    
  41    41    41    
  0.0    0.0    0.0    
  3.992068980407734    0.0    0.0    
  0.0    3.992068980407734    0.0    
  0.0    0.0    3.992068980407734    
  0.0567413221330658    0.0643137102573493    0.08920484691323691    0.135662425692281    0.20332978824479966    
  0.2802640672300203    0.3446892833156221    0.3776406931835787    0.374645022064214    0.34516397964720064    
  0.3032502855510346    0.25980627720202354    0.2206498677823076    0.18793666392091188    0.16188947632347686    
  0.14186455729256783    0.126947308571815    0.11628365472310329    0.1091957101548359    0.10517323072772906    
  0.10387401977778055    0.10517323072772902    0.1091957101548359    0.11628365472310338    0.126947308571815    
  0.14186455729256786    0.1618894763234769    0.18793666392091188    0.22064986778230772    0.25980627720202354    
  0.3032502855510346    0.34516397964720064    0.374645022064214    0.37764069318357874    0.34468928331562215    
  0.28026406723002034    0.20332978824479966    0.13566242569228096    0.089204846913237    0.0643137102573493    
  0.0567413221330658    0.06431371025734932    0.0722802911363465    0.09813751883567812    0.14544637364869947    
  0.21287624172432923    0.2879231736330751    0.34929494202633865    0.37923831343214764    0.37423785279542593    
  0.3439235804293186    0.3019812430895288    0.2588842864834655    0.22018193380398987    0.18790782567807776    
  0.1622390319265543    0.1425200059727261    0.12784041012389266    0.11735536110358077    0.1103935853805843    
  0.10644701789856645    0.10517322916201456    0.10644701789856638    0.11039358538058429    0.11735536110358082    
  0.12784041012389266    0.1425200059727261    0.16223903192655434    0.18790782567807776    0.22018193380398993    
  0.2588842864834655    0.30198124308952873    0.34392358042931853    0.37423785279542593    0.37923831343214764    
  0.3492949420263387    0.2879231736330752    0.21287624172432928    0.14544637364869942    0.09813751883567816    
  0.07228029113634646    0.06431371025734932    0.08920484691323698    0.09813751883567819    0.12620868615705855    
  0.17496296877530232    0.24049620563362398    0.3091552219052589    0.36136605744163436    0.3827928515658644    
  0.37237359309074103    0.3399837573657514    0.2981794859214445    0.25621984170787293    0.21891407955321454    
  0.18796508359835704    0.16342872612277454    0.1446219369278724    0.13065071512223034    0.12069851031361771    
  0.11411344751853246    0.11039358132737356    0.10919570461015236    0.1103935813273735    0.11411344751853253    
  0.12069851031361783    0.13065071512223034    0.1446219369278724    0.1634287261227745    0.18796508359835704    
  0.21891407955321457    0.256219841707873    0.2981794859214445    0.3399837573657514    0.37237359309074103    
  0.3827928515658644    0.3613660574416344    0.30915522190525896    0.24049620563362395    0.17496296877530232    
  0.1262086861570586    0.09813751883567813    0.08920484691323698    0.135662425692281    0.14544637364869942    
  0.1749629687753023    0.22282579639165723    0.2820602515833966    0.3385497415930016    0.37606116497228953    
  0.3851153591632431    0.3675188752894372    0.3329055340818016    0.2919502056822927    0.2521341002422499    
  0.21723322341005719    0.188500967269684    0.16583634889233978    0.1485316813369997    0.13572864797745643    
  0.12665832071583993    0.12069850479658757    0.11735535194808248    0.11628364433191847    0.11735535194808241    
  0.12069850479658757    0.12665832071584002    0.13572864797745643    0.1485316813369997    0.16583634889233978    
  0.188500967269684    0.21723322341005724    0.25213410024224997    0.2919502056822927    0.3329055340818016    
  0.3675188752894372    0.3851153591632431    0.37606116497228964    0.33854974159300166    0.2820602515833966    
  0.22282579639165725    0.17496296877530232    0.1454463736486994    0.135662425692281    0.20332978824479966    
  0.21287624172432934    0.24049620563362395    0.28206025158339665    0.328622133090921    0.3673964956987823    
  0.3868503528684601    0.38248772488316257    0.35820207225178863    0.3225100580150082    0.28367415023831183    
  0.24718256026858565    0.21571469087861958    0.1900621931374358    0.16997545510125767    0.15474250675337486    
  0.1435627648691159    0.135728641515486    0.1306507035670231    0.12784039568619063    0.12694729328846074    
  0.12784039568619052    0.1306507035670231    0.13572864151548608    0.1435627648691159    0.1547425067533749    
  0.16997545510125767    0.19006219313743578    0.21571469087861964    0.24718256026858565    0.28367415023831183    
  0.32251005801500815    0.35820207225178863    0.3824877248831626    0.38685035286846015    0.3673964956987823    
  0.32862213309092103    0.28206025158339665    0.24049620563362395    0.21287624172432923    0.20332978824479966    
  0.2802640672300203    0.2879231736330752    0.30915522190525896    0.3385497415930016    0.36739649569878224    
  0.38605779013186264    0.3879555711201586    0.3723942077541308    0.3439412153941713    0.3092530438279977    
  0.2740934005289635    0.24211497748526753    0.2150363808539645    0.19325702724255    0.17641575449054445    
  0.16382114520707922    0.154742499717825    0.14853166768883191    0.144621918436732    0.1425199851829764    
  0.14186453597072465    0.14251998518297632    0.144621918436732    0.14853166768883203    0.154742499717825    
  0.16382114520707924    0.17641575449054445    0.19325702724255003    0.21503638085396456    0.24211497748526753    
  0.2740934005289635    0.3092530438279977    0.3439412153941713    0.37239420775413085    0.38795557112015866    
  0.3860577901318627    0.3673964956987823    0.33854974159300166    0.309155221905259    0.2879231736330751    
  0.2802640672300203    0.34468928331562204    0.34929494202633865    0.3613660574416343    0.37606116497228953    
  0.38685035286846015    0.3879555711201586    0.3767640654337103    0.35462501185339373    0.3255806308951153    
  0.2942325686888075    0.26422366300319206    0.2377837978593803    0.2159112876093599    0.19871758775723422    
  0.18577215936411542    0.17641574692684361    0.16997543985135194    0.16583632623115346    0.16342869814738972    
  0.16223900156308318    0.1618894454530855    0.16223900156308316    0.1634286981473897    0.16583632623115355    
  0.16997543985135194    0.17641574692684367    0.18577215936411542    0.1987175877572342    0.21591128760935996    
  0.23778379785938025    0.26422366300319206    0.2942325686888075    0.3255806308951153    0.3546250118533937    
  0.3767640654337104    0.3879555711201586    0.38685035286846015    0.37606116497228953    0.3613660574416343    
  0.34929494202633865    0.34468928331562204    0.37764069318357874    0.37923831343214764    0.3827928515658644    
  0.385115359163243    0.3824877248831626    0.3723942077541308    0.35462501185339373    0.3311298599660312    
  0.3049161984516373    0.2788776132063882    0.2551604854797466    0.23504619495057888    0.2190540237612808    
  0.20710246801230855    0.19871757894928052    0.19325701006830726    0.19006216696046208    0.1885009322288823    
  0.18796504192457775    0.18790778064789998    0.1879366180174458    0.18790778064789987    0.1879650419245777    
  0.1885009322288823    0.19006216696046208    0.19325701006830728    0.19871757894928052    0.20710246801230855    
  0.21905402376128089    0.23504619495057888    0.2551604854797466    0.2788776132063882    0.3049161984516373    
  0.3311298599660312    0.3546250118533938    0.3723942077541309    0.3824877248831627    0.385115359163243    
  0.3827928515658644    0.37923831343214764    0.37764069318357874    0.37464502206421413    0.37423785279542604    
  0.3723735930907411    0.3675188752894372    0.35820207225178863    0.3439412153941713    0.3255806308951154    
  0.3049161984516373    0.2839956304635499    0.2645743838727874    0.24789726017531832    0.23467894981692605    
  0.22513634479620592    0.21905401315267606    0.21591126723857626    0.21503635046946692    0.2157146495459896    
  0.21723317115628185    0.21891401851845138    0.22018186755877037    0.22064979989947425    0.2201818675587703    
  0.21891401851845138    0.2172331711562819    0.2157146495459896    0.21503635046946698    0.21591126723857626    
  0.21905401315267606    0.22513634479620598    0.23467894981692605    0.24789726017531832    0.2645743838727874    
  0.2839956304635499    0.3049161984516373    0.3255806308951155    0.3439412153941713    0.35820207225178863    
  0.3675188752894372    0.3723735930907411    0.374237852795426    0.37464502206421413    0.3451639796472006    
  0.34392358042931864    0.3399837573657514    0.3329055340818016    0.3225100580150082    0.3092530438279977    
  0.2942325686888075    0.27887761320638815    0.26457438387278737    0.25243330772512007    0.2432097469180454    
  0.23728815145857984    0.2346789378243362    0.23504617118941007    0.23778376204154839    0.2421149286831428    
  0.24718249749208565    0.25213402362576787    0.25621975338446307    0.2588841904511732    0.2598061785045329    
  0.2588841904511731    0.25621975338446307    0.2521340236257679    0.24718249749208565    0.2421149286831428    
  0.23778376204154833    0.23504617118941007    0.23467893782433624    0.23728815145857984    0.2432097469180454    
  0.25243330772512007    0.26457438387278737    0.27887761320638826    0.2942325686888076    0.3092530438279978    
  0.3225100580150082    0.3329055340818016    0.3399837573657514    0.3439235804293186    0.3451639796472006    
  0.3032502855510345    0.30198124308952873    0.2981794859214445    0.2919502056822927    0.2836741502383118    
  0.27409340052896347    0.264223663003192    0.25516048547974657    0.24789726017531824    0.2432097469180454    
  0.24159075606470726    0.24320973433970994    0.24789723434594724    0.255160445034101    0.2642236061530203    
  0.274093325730928    0.28367405695118275    0.2919500948920883    0.2981793604416031    0.30198110768233155    
  0.30325014661498223    0.30198110768233155    0.2981793604416031    0.29195009489208834    0.28367405695118275    
  0.2740933257309281    0.26422360615302026    0.255160445034101    0.24789723434594735    0.24320973433970994    
  0.24159075606470726    0.2432097469180454    0.24789726017531824    0.2551604854797465    0.2642236630031921    
  0.2740934005289635    0.2836741502383118    0.29195020568229263    0.2981794859214445    0.3019812430895287    
  0.3032502855510345    0.25980627720202365    0.25888428648346556    0.256219841707873    0.25213410024224997    
  0.24718256026858565    0.24211497748526759    0.23778379785938034    0.23504619495057888    0.23467894981692605    
  0.23728815145857984    0.24320973433971    0.2524332812954379    0.2645743411570815    0.27887755078551824    
  0.29423248332972285    0.3092529340002522    0.3225099246614142    0.33290538028276234    0.3399835876381824    
  0.3439234004323653    0.3451637960731803    0.34392340043236524    0.3399835876381824    0.33290538028276234    
  0.3225099246614142    0.3092529340002523    0.29423248332972285    0.27887755078551824    0.26457434115708156    
  0.2524332812954379    0.24320973433971    0.23728815145857984    0.23467894981692605    0.23504619495057888    
  0.2377837978593804    0.24211497748526759    0.24718256026858565    0.25213410024224997    0.256219841707873    
  0.2588842864834655    0.25980627720202365    0.22064986778230766    0.22018193380398993    0.21891407955321454    
  0.21723322341005724    0.21571469087861958    0.21503638085396465    0.21591128760935996    0.2190540237612808    
  0.22513634479620592    0.2346789378243362    0.24789723434594735    0.26457434115708156    0.28399556624171407    
  0.30491610760576043    0.32558050994286586    0.3439410642913468    0.35820189467739316    0.3675186773334492    
  0.3723733813948368    0.37423763337365723    0.37464480016722623    0.37423763337365723    0.3723733813948368    
  0.36751867733344923    0.35820189467739316    0.34394106429134685    0.32558050994286586    0.3049161076057604    
  0.28399556624171407    0.2645743411570815    0.24789723434594735    0.2346789378243362    0.22513634479620592    
  0.2190540237612808    0.21591128760936001    0.21503638085396465    0.21571469087861958    0.21723322341005724    
  0.21891407955321457    0.22018193380398993    0.22064986778230766    0.18793666392091188    0.1879078256780777    
  0.187965083598357    0.18850096726968402    0.19006219313743575    0.19325702724255003    0.19871758775723414    
  0.20710246801230853    0.219054013152676    0.23504617118941004    0.255160445034101    0.2788775507855181    
  0.30491610760576027    0.33112973549611047    0.3546248523155059    0.372394016357476    0.3824875085678241    
  0.3851151265209112    0.3827926104057998    0.3792380690107266    0.3776404480552455    0.3792380690107265    
  0.38279261040579976    0.3851151265209112    0.3824875085678241    0.37239401635747604    0.3546248523155059    
  0.33112973549611047    0.3049161076057604    0.2788775507855181    0.255160445034101    0.23504617118941007    
  0.219054013152676    0.20710246801230853    0.1987175877572342    0.19325702724255    0.1900621931374357    
  0.188500967269684    0.18796508359835695    0.18790782567807768    0.18793666392091188    0.16188947632347686    
  0.1622390319265544    0.16342872612277448    0.16583634889233978    0.16997545510125764    0.17641575449054445    
  0.18577215936411537    0.19871757894928052    0.2159112672385762    0.23778376204154833    0.2642236061530204    
  0.29423248332972274    0.3255805099428657    0.35462485231550595    0.37676387019783125    0.387955347613602    
  0.38685011048793294    0.3760609129541761    0.36136580297554166    0.34929468864448787    0.34468903082421615    
  0.3492946886444878    0.36136580297554166    0.3760609129541761    0.38685011048793294    0.3879553476136021    
  0.37676387019783125    0.35462485231550595    0.32558050994286575    0.29423248332972274    0.2642236061530204    
  0.23778376204154839    0.2159112672385762    0.19871757894928052    0.18577215936411542    0.17641575449054445    
  0.16997545510125764    0.16583634889233975    0.16342872612277448    0.16223903192655434    0.16188947632347686    
  0.14186455729256786    0.1425200059727262    0.14462193692787245    0.14853168133699984    0.1547425067533749    
  0.16382114520707927    0.17641574692684373    0.19325701006830728    0.21503635046946692    0.24211492868314274    
  0.2740933257309281    0.30925293400025233    0.34394106429134685    0.3723940163574761    0.38795534761360223    
  0.3860575457043386    0.36739624077387584    0.33854948454581013    0.30915496826168043    0.28792292481886483    
  0.2802638205994439    0.28792292481886483    0.30915496826168043    0.33854948454581013    0.36739624077387584    
  0.3860575457043387    0.3879553476136021    0.3723940163574761    0.34394106429134685    0.30925293400025233    
  0.2740933257309281    0.2421149286831428    0.21503635046946692    0.19325701006830723    0.17641574692684373    
  0.16382114520707927    0.15474250675337486    0.14853168133699982    0.14462193692787242    0.14252000597272615    
  0.14186455729256786    0.126947308571815    0.12784041012389263    0.13065071512223042    0.13572864797745648    
  0.1435627648691158    0.15474249971782497    0.16997543985135194    0.19006216696046208    0.2157146495459895    
  0.2471824974920857    0.28367405695118275    0.32250992466141426    0.3582018946773931    0.3824875085678241    
  0.386850110487933    0.3673962407738757    0.32862187633720447    0.2820600007043268    0.2404959647127707    
  0.21287600986242927    0.20332956000102553    0.21287600986242922    0.24049596471277077    0.2820600007043268    
  0.32862187633720447    0.3673962407738758    0.38685011048793294    0.3824875085678241    0.35820189467739316    
  0.32250992466141426    0.28367405695118275    0.24718249749208573    0.2157146495459895    0.19006216696046208    
  0.16997543985135202    0.15474249971782494    0.14356276486911576    0.13572864797745648    0.1306507151222304    
  0.1278404101238926    0.126947308571815    0.11628365472310329    0.11735536110358079    0.12069851031361781    
  0.12665832071584007    0.1357286415154861    0.14853166768883203    0.16583632623115352    0.1885009322288823    
  0.2172331711562819    0.2521340236257679    0.29195009489208834    0.33290538028276245    0.36751867733344934    
  0.3851151265209113    0.37606091295417615    0.33854948454580996    0.2820600007043268    0.22282555973787818    
  0.1749627492874572    0.14544616768188767    0.13566222476512765    0.1454461676818877    0.17496274928745725    
  0.22282555973787818    0.2820600007043268    0.3385494845458101    0.3760609129541761    0.38511512652091123    
  0.36751867733344934    0.3329053802827624    0.29195009489208834    0.2521340236257679    0.2172331711562819    
  0.18850093222888226    0.16583632623115357    0.14853166768883205    0.13572864151548608    0.12665832071584007    
  0.12069851031361781    0.11735536110358072    0.11628365472310329    0.1091957101548358    0.11039358538058429    
  0.11411344751853257    0.12069850479658759    0.13065070356702302    0.14462191843673203    0.16342869814738972    
  0.18796504192457764    0.21891401851845135    0.25621975338446296    0.2981793604416031    0.33998358763818237    
  0.37237338139483667    0.38279261040579987    0.36136580297554155    0.3091549682616803    0.2404959647127707    
  0.17496274928745717    0.1262084895792217    0.09813733869880939    0.08920467256417049    0.09813733869880928    
  0.12620848957922173    0.17496274928745717    0.2404959647127707    0.30915496826168043    0.36136580297554155    
  0.38279261040579987    0.3723733813948368    0.3399835876381823    0.2981793604416031    0.256219753384463    
  0.21891401851845135    0.18796504192457764    0.16342869814738978    0.144621918436732    0.13065070356702302    
  0.12069850479658754    0.1141134475185325    0.11039358538058422    0.1091957101548358    0.10517323072772902    
  0.10644701789856645    0.11039358132737356    0.11735535194808243    0.1278403956861905    0.14251998518297646    
  0.16223900156308313    0.18790778064789984    0.22018186755877037    0.25888419045117306    0.30198110768233155    
  0.3439234004323652    0.37423763337365723    0.37923806901072654    0.34929468864448787    0.28792292481886467    
  0.21287600986242922    0.14544616768188764    0.09813733869880928    0.07228012833047699    0.06431355328404446    
  0.07228012833047694    0.09813733869880932    0.1454461676818877    0.21287600986242922    0.28792292481886483    
  0.3492946886444878    0.3792380690107265    0.37423763337365723    0.34392340043236513    0.30198110768233155    
  0.25888419045117306    0.22018186755877037    0.18790778064789984    0.16223900156308318    0.14251998518297637    
  0.12784039568619054    0.11735535194808241    0.1103935813273735    0.10644701789856638    0.10517323072772902    
  0.10387401977778053    0.10517322916201459    0.1091957046101524    0.11628364433191847    0.1269472932884608    
  0.14186453597072474    0.16188944545308545    0.18793661801744566    0.22064979989947428    0.25980617850453286    
  0.3032501466149823    0.3451637960731804    0.3746448001672261    0.37764044805524555    0.34468903082421615    
  0.2802638205994438    0.20332956000102542    0.13566222476512765    0.08920467256417058    0.06431355328404452    
  0.056741170903988995    0.06431355328404444    0.0892046725641706    0.13566222476512765    0.20332956000102542    
  0.2802638205994439    0.34468903082421615    0.37764044805524555    0.3746448001672262    0.3451637960731803    
  0.3032501466149823    0.25980617850453286    0.22064979989947428    0.18793661801744566    0.1618894454530855    
  0.14186453597072468    0.1269472932884608    0.11628364433191843    0.10919570461015234    0.10517322916201455    
  0.10387401977778053    0.10517323072772898    0.1064470178985664    0.11039358132737352    0.11735535194808246    
  0.12784039568619054    0.14251998518297643    0.16223900156308313    0.1879077806478999    0.22018186755877045    
  0.25888419045117306    0.30198110768233155    0.3439234004323652    0.3742376333736572    0.37923806901072654    
  0.34929468864448787    0.28792292481886467    0.21287600986242916    0.1454461676818877    0.09813733869880928    
  0.07228012833047699    0.06431355328404444    0.07228012833047694    0.09813733869880939    0.1454461676818877    
  0.21287600986242916    0.2879229248188648    0.3492946886444878    0.3792380690107265    0.37423763337365723    
  0.34392340043236513    0.3019811076823315    0.25888419045117306    0.22018186755877045    0.1879077806478999    
  0.16223900156308318    0.14251998518297637    0.12784039568619052    0.11735535194808246    0.11039358132737347    
  0.10644701789856635    0.10517323072772898    0.1091957101548358    0.11039358538058433    0.1141134475185325    
  0.12069850479658759    0.13065070356702296    0.144621918436732    0.16342869814738972    0.18796504192457764    
  0.21891401851845135    0.25621975338446296    0.2981793604416031    0.3399835876381823    0.37237338139483667    
  0.38279261040579987    0.36136580297554166    0.3091549682616803    0.24049596471277065    0.17496274928745717    
  0.1262084895792217    0.09813733869880935    0.08920467256417053    0.09813733869880929    0.12620848957922173    
  0.17496274928745717    0.24049596471277065    0.3091549682616804    0.3613658029755416    0.38279261040579987    
  0.37237338139483667    0.3399835876381823    0.2981793604416031    0.256219753384463    0.21891401851845135    
  0.18796504192457764    0.16342869814738975    0.14462191843673194    0.13065070356702302    0.12069850479658754    
  0.11411344751853246    0.11039358538058422    0.1091957101548358    0.11628365472310334    0.11735536110358082    
  0.12069851031361785    0.12665832071584007    0.13572864151548608    0.1485316676888321    0.1658363262311536    
  0.18850093222888228    0.21723317115628185    0.25213402362576787    0.29195009489208834    0.33290538028276234    
  0.3675186773334493    0.38511512652091123    0.3760609129541761    0.33854948454580996    0.2820600007043268    
  0.22282555973787818    0.1749627492874572    0.1454461676818877    0.13566222476512776    0.14544616768188767    
  0.17496274928745725    0.22282555973787818    0.2820600007043268    0.33854948454581    0.3760609129541761    
  0.38511512652091123    0.36751867733344934    0.33290538028276234    0.29195009489208834    0.25213402362576787    
  0.21723317115628185    0.18850093222888223    0.16583632623115363    0.1485316676888321    0.13572864151548603    
  0.12665832071584002    0.12069851031361783    0.11735536110358072    0.11628365472310334    0.126947308571815    
  0.12784041012389263    0.13065071512223042    0.13572864797745648    0.1435627648691158    0.15474249971782497    
  0.16997543985135194    0.19006216696046208    0.2157146495459895    0.2471824974920857    0.28367405695118275    
  0.32250992466141426    0.3582018946773931    0.3824875085678241    0.386850110487933    0.3673962407738757    
  0.32862187633720447    0.2820600007043268    0.2404959647127707    0.21287600986242927    0.20332956000102553    
  0.21287600986242922    0.24049596471277077    0.2820600007043268    0.32862187633720447    0.3673962407738758    
  0.38685011048793294    0.3824875085678241    0.35820189467739316    0.32250992466141426    0.28367405695118275    
  0.24718249749208573    0.2157146495459895    0.19006216696046208    0.16997543985135202    0.15474249971782494    
  0.14356276486911576    0.13572864797745648    0.1306507151222304    0.1278404101238926    0.126947308571815    
  0.14186455729256783    0.14252000597272615    0.14462193692787237    0.14853168133699984    0.1547425067533749    
  0.16382114520707927    0.17641574692684361    0.19325701006830726    0.21503635046946692    0.2421149286831428    
  0.2740933257309281    0.30925293400025233    0.34394106429134685    0.3723940163574761    0.38795534761360223    
  0.38605754570433864    0.3673962407738759    0.3385494845458101    0.30915496826168043    0.28792292481886483    
  0.28026382059944394    0.2879229248188648    0.30915496826168043    0.3385494845458101    0.3673962407738759    
  0.3860575457043387    0.38795534761360223    0.3723940163574761    0.34394106429134685    0.30925293400025233    
  0.2740933257309281    0.24211492868314285    0.21503635046946692    0.19325701006830717    0.17641574692684367    
  0.1638211452070793    0.15474250675337486    0.14853168133699984    0.14462193692787237    0.14252000597272607    
  0.14186455729256783    0.1618894763234769    0.16223903192655437    0.16342872612277454    0.16583634889233978    
  0.16997545510125767    0.17641575449054445    0.1857721593641154    0.19871757894928058    0.2159112672385763    
  0.23778376204154833    0.2642236061530204    0.29423248332972274    0.3255805099428658    0.354624852315506    
  0.37676387019783125    0.3879553476136021    0.3868501104879329    0.3760609129541761    0.36136580297554166    
  0.3492946886444879    0.34468903082421615    0.3492946886444878    0.3613658029755416    0.3760609129541761    
  0.3868501104879329    0.38795534761360223    0.37676387019783125    0.354624852315506    0.32558050994286586    
  0.29423248332972274    0.2642236061530204    0.23778376204154839    0.2159112672385763    0.19871757894928058    
  0.18577215936411545    0.1764157544905444    0.16997545510125767    0.16583634889233978    0.16342872612277448    
  0.16223903192655426    0.1618894763234769    0.1879366639209119    0.1879078256780777    0.18796508359835695    
  0.18850096726968404    0.19006219313743572    0.19325702724255    0.19871758775723422    0.2071024680123085    
  0.219054013152676    0.23504617118940999    0.255160445034101    0.2788775507855181    0.30491610760576027    
  0.33112973549611047    0.3546248523155059    0.372394016357476    0.38248750856782404    0.3851151265209112    
  0.38279261040579976    0.3792380690107265    0.3776404480552455    0.37923806901072643    0.38279261040579976    
  0.38511512652091123    0.38248750856782404    0.37239401635747604    0.3546248523155059    0.33112973549611047    
  0.3049161076057603    0.2788775507855181    0.255160445034101    0.23504617118941004    0.219054013152676    
  0.20710246801230847    0.19871758775723425    0.19325702724254998    0.19006219313743572    0.188500967269684    
  0.18796508359835698    0.18790782567807768    0.1879366639209119    0.22064986778230766    0.22018193380398993    
  0.21891407955321457    0.2172332234100573    0.21571469087861958    0.21503638085396465    0.21591128760935996    
  0.21905402376128086    0.22513634479620592    0.2346789378243362    0.24789723434594735    0.26457434115708156    
  0.28399556624171407    0.30491610760576043    0.32558050994286586    0.3439410642913468    0.3582018946773931    
  0.3675186773334492    0.3723733813948368    0.3742376333736572    0.37464480016722623    0.3742376333736572    
  0.3723733813948367    0.36751867733344923    0.3582018946773931    0.34394106429134685    0.32558050994286586    
  0.30491610760576043    0.28399556624171407    0.26457434115708156    0.24789723434594735    0.2346789378243362    
  0.22513634479620592    0.2190540237612808    0.21591128760936001    0.2150363808539646    0.21571469087861955    
  0.21723322341005724    0.21891407955321457    0.22018193380398993    0.22064986778230766    0.25980627720202354    
  0.25888428648346556    0.256219841707873    0.25213410024225    0.2471825602685856    0.2421149774852676    
  0.2377837978593803    0.23504619495057888    0.23467894981692605    0.23728815145857984    0.24320973433971    
  0.2524332812954379    0.26457434115708145    0.2788775507855182    0.29423248332972274    0.3092529340002522    
  0.32250992466141426    0.33290538028276234    0.33998358763818237    0.34392340043236524    0.3451637960731803    
  0.34392340043236524    0.33998358763818237    0.3329053802827624    0.32250992466141426    0.3092529340002523    
  0.2942324833297228    0.27887755078551824    0.2645743411570815    0.2524332812954379    0.24320973433971    
  0.2372881514585799    0.23467894981692605    0.23504619495057888    0.23778379785938034    0.2421149774852676    
  0.2471825602685856    0.25213410024224997    0.256219841707873    0.2588842864834655    0.25980627720202354    
  0.3032502855510345    0.30198124308952873    0.2981794859214445    0.2919502056822927    0.2836741502383118    
  0.2740934005289635    0.264223663003192    0.2551604854797465    0.24789726017531818    0.24320974691804545    
  0.24159075606470728    0.24320973433970988    0.24789723434594724    0.25516044503410107    0.2642236061530204    
  0.27409332573092804    0.2836740569511827    0.29195009489208834    0.2981793604416031    0.30198110768233155    
  0.3032501466149822    0.3019811076823315    0.2981793604416031    0.29195009489208834    0.2836740569511827    
  0.2740933257309281    0.2642236061530203    0.25516044503410107    0.24789723434594735    0.24320973433970988    
  0.24159075606470728    0.24320974691804545    0.24789726017531818    0.2551604854797465    0.26422366300319206    