#     DFTpy    
  CRYSTAL 
    
  PRIMVEC    
  3.498931034482761    0.0    0.0    
  0.0    3.498931034482761    0.0    
  0.0    0.0    3.498931034482761    
  PRIMCOORD    
  4    1    
  Si    0.0    0.0    0.0    
  Si    0.0    1.7494655172413804    1.7494655172413804    
  Si    1.7494655172413804    0.0    1.7494655172413804    
  Si    1.7494655172413804    1.7494655172413804    0.0    
  BEGIN_BLOCK_DATAGRID_3D    
  3d_datagrid_density    
  BEGIN_DATAGRID_3D#0    
  37    37    37    
  0.0    0.0    0.0    
  3.49893104753384    0.0    0.0    
  0.0    3.49893104753384    0.0    
  0.0    0.0    3.49893104753384    
  0.05149959486514907    0.058583327245554234    0.0820918104685745    0.12695355526539367    0.19498884446990938    
  0.2777800289455258    0.35589617357244935    0.4086670422623812    0.42649757936471777    0.41410033284985714    
  0.38381076252975704    0.347377514082983    0.3122509888459134    0.2819327844617899    0.25756611447032607    
  0.23917460838370314    0.22638609626819917    0.21883929951519646    0.21634065117992723    0.2188392995151965    
  0.22638609626819917    0.23917460838370314    0.25756611447032607    0.2819327844617898    0.3122509888459134    
  0.34737751408298306    0.38381076252975704    0.4141003328498572    0.42649757936471777    0.4086670422623812    
  0.35589617357244935    0.27778002894552584    0.19498884446990938    0.1269535552653937    0.0820918104685745    
  0.058583327245554234    0.05149959486514907    0.05858332724555429    0.06607608511601999    0.09064366469066988    
  0.1366509882688993    0.2050320443318139    0.28669276824536294    0.3623754676038588    0.41238413894941406    
  0.4281232743797646    0.4146869245456531    0.3842051048103306    0.3480331159964066    0.31332399388496834    
  0.28342801083646785    0.25942668195379665    0.2413204985400289    0.22873114889216117    0.22130016297797941    
  0.218839298612182    0.22130016297797944    0.22873114889216117    0.24132049854002893    0.25942668195379665    
  0.2834280108364678    0.31332399388496834    0.3480331159964066    0.3842051048103306    0.4146869245456531    
  0.4281232743797646    0.41238413894941406    0.3623754676038588    0.2866927682453631    0.2050320443318139    
  0.1366509882688993    0.09064366469066988    0.06607608511602    0.05858332724555429    0.0820918104685745    
  0.09064366469066983    0.1178390186353139    0.16633886075407048    0.23465250701839127    0.3121072785814887    
  0.3802806426416615    0.4223144085809314    0.4322693964856656    0.41610709021762593    0.38526563837167843    
  0.34996985957946214    0.31654663975998987    0.28793090076872463    0.26503420558803215    0.24779212240660542    
  0.23580833116270317    0.22873114510408823    0.22638609157188752    0.22873114510408823    0.23580833116270317    
  0.24779212240660542    0.26503420558803215    0.2879309007687246    0.31654663975998987    0.34996985957946214    
  0.38526563837167843    0.416107090217626    0.4322693964856656    0.4223144085809314    0.3802806426416615    
  0.3121072785814888    0.23465250701839127    0.1663388607540705    0.1178390186353139    0.09064366469066983    
  0.0820918104685745    0.1269535552653937    0.13665098826889924    0.16633886075407048    0.2160512683988732    
  0.28114931345805655    0.3496233797951797    0.4051436302529033    0.43513367817092885    0.437040012944666    
  0.4175273399416252    0.386731314599753    0.3531708058838382    0.32199470835017174    0.2955563118945256    
  0.27452651453266447    0.2587462847940278    0.24779211259317638    0.2413204848298589    0.2391745937191959    
  0.24132048482985885    0.24779211259317638    0.2587462847940278    0.27452651453266447    0.2955563118945255    
  0.32199470835017174    0.3531708058838382    0.386731314599753    0.4175273399416252    0.437040012944666    
  0.43513367817092885    0.4051436302529033    0.3496233797951798    0.28114931345805655    0.2160512683988732    
  0.1663388607540705    0.1366509882688992    0.1269535552653937    0.19498884446990944    0.20503204433181388    
  0.23465250701839133    0.28114931345805666    0.3373583984632624    0.39135928942721027    0.4303186049142402    
  0.44645118603455153    0.44016685374857806    0.41808133138604764    0.3884484520360013    0.35778260325204486    
  0.3299321351047646    0.306616065075425    0.28823638676398944    0.27452649476443935    0.2650341754935258    
  0.2594266474737875    0.2575660788513383    0.2594266474737875    0.2650341754935258    0.27452649476443935    
  0.28823638676398944    0.306616065075425    0.3299321351047646    0.35778260325204486    0.3884484520360013    
  0.41808133138604764    0.44016685374857806    0.44645118603455153    0.4303186049142402    0.3913592894272103    
  0.3373583984632624    0.28114931345805666    0.23465250701839133    0.2050320443318139    0.19498884446990944    
  0.2777800289455259    0.28669276824536294    0.31210727858148873    0.3496233797951797    0.3913592894272102    
  0.42730702804162224    0.44885821707932927    0.4523654825897114    0.4399699427304535    0.4173484853432753    
  0.390573879458997    0.3641864553759343    0.34081526846404836    0.3215793166038289    0.30661603289078715    
  0.2955562587707739    0.2879308356946242    0.28342794006480043    0.281932712061576    0.28342794006480043    
  0.2879308356946242    0.2955562587707739    0.30661603289078715    0.3215793166038289    0.3408152684640484    
  0.3641864553759343    0.390573879458997    0.4173484853432753    0.4399699427304535    0.4523654825897114    
  0.44885821707932927    0.42730702804162235    0.3913592894272102    0.3496233797951797    0.31210727858148873    
  0.28669276824536294    0.2777800289455259    0.35589617357244946    0.36237546760385886    0.3802806426416615    
  0.40514363025290334    0.4303186049142402    0.44885821707932927    0.4560188048452663    0.45088136275436436    
  0.43599665348890876    0.4155598225633881    0.3935666837914703    0.37287577334567185    0.3550944858826913    
  0.34081522349697585    0.32993205613205895    0.3219946053726163    0.3165465214089294    0.31332386719214694    
  0.31225085953960685    0.31332386719214694    0.3165465214089294    0.3219946053726163    0.32993205613205895    
  0.3408152234969758    0.3550944858826913    0.37287577334567185    0.3935666837914703    0.4155598225633881    
  0.43599665348890876    0.45088136275436436    0.4560188048452663    0.44885821707932927    0.4303186049142402    
  0.40514363025290334    0.3802806426416615    0.36237546760385886    0.35589617357244946    0.40866704226238126    
  0.41238413894941406    0.4223144085809314    0.43513367817092885    0.4464511860345514    0.4523654825897114    
  0.45088136275436436    0.4423884601110455    0.4290092076340692    0.4134259559049854    0.3979584566892216    
  0.38417702772321444    0.3728757165967652    0.3641863510813466    0.3577824605028665    0.3531706335285121    
  0.3499696662580792    0.3480329101969581    0.347377304148154    0.3480329101969581    0.3499696662580792    
  0.3531706335285121    0.3577824605028665    0.3641863510813466    0.3728757165967652    0.38417702772321444    
  0.3979584566892216    0.4134259559049854    0.4290092076340692    0.4423884601110455    0.45088136275436436    
  0.4523654825897114    0.4464511860345514    0.43513367817092885    0.4223144085809314    0.41238413894941406    
  0.40866704226238126    0.42649757936471777    0.4281232743797646    0.4322693964856656    0.4370400129446661    
  0.4401668537485779    0.43996994273045337    0.43599665348890854    0.4290092076340691    0.4204403707877072    
  0.41175569730036027    0.4040586537798829    0.39795839080735607    0.39356655767391796    0.39057369981477735    
  0.3884482265456659    0.38673105184000184    0.3852653479227741    0.3842047972654358    0.383810449202851    
  0.3842047972654358    0.3852653479227741    0.38673105184000184    0.3884482265456659    0.3905736998147773    
  0.39356655767391796    0.3979583908073561    0.4040586537798829    0.41175569730036027    0.4204403707877072    
  0.4290092076340691    0.43599665348890854    0.43996994273045337    0.4401668537485779    0.437040012944666    
  0.4322693964856656    0.4281232743797646    0.42649757936471777    0.41410033284985714    0.4146869245456531    
  0.416107090217626    0.4175273399416252    0.4180813313860476    0.41734848534327523    0.4155598225633881    
  0.4134259559049854    0.41175569730036027    0.4111307866124718    0.41175562660997683    0.4134258153009816    
  0.41555961454636753    0.41734821509909265    0.4180810069425216    0.41752697156133617    0.41610668960597785    
  0.41468650427092596    0.4140999059663059    0.4146865042709259    0.41610668960597785    0.41752697156133617    
  0.4180810069425216    0.4173482150990926    0.41555961454636753    0.4134258153009816    0.41175562660997683    
  0.4111307866124718    0.41175569730036027    0.4134259559049854    0.4155598225633881    0.41734848534327523    
  0.4180813313860476    0.4175273399416252    0.416107090217626    0.4146869245456531    0.41410033284985714    
  0.383810762529757    0.38420510481033054    0.3852656383716784    0.38673131459975296    0.38844845203600126    
  0.39057387945899696    0.3935666837914702    0.3979584566892216    0.4040586537798829    0.41175562660997683    
  0.42044022527785085    0.42900898473957577    0.4359963542576265    0.43996957354160027    0.44016642597691463    
  0.4370395406062779    0.4322688936532548    0.42812275394609745    0.426497053184544    0.42812275394609733    
  0.4322688936532548    0.43703954060627803    0.44016642597691463    0.43996957354160016    0.4359963542576265    
  0.42900898473957577    0.42044022527785085    0.41175562660997683    0.4040586537798829    0.3979584566892216    
  0.3935666837914702    0.390573879458997    0.38844845203600126    0.38673131459975296    0.3852656383716784    
  0.38420510481033054    0.383810762529757    0.347377514082983    0.3480331159964065    0.3499698595794621    
  0.3531708058838382    0.3577826032520448    0.36418645537593425    0.37287577334567185    0.3841770277232143    
  0.3979583908073561    0.41342581530098155    0.42900898473957577    0.4423881511550712    0.45088097098989094    
  0.4523650195828139    0.4464506691383541    0.43513312549690547    0.422313834902672    0.41238355467180576    
  0.40866645478090413    0.41238355467180576    0.422313834902672    0.43513312549690547    0.4464506691383541    
  0.4523650195828138    0.45088097098989094    0.4423881511550712    0.42900898473957577    0.41342581530098155    
  0.3979583908073561    0.3841770277232143    0.37287577334567185    0.36418645537593425    0.3577826032520448    
  0.3531708058838382    0.3499698595794621    0.3480331159964065    0.347377514082983    0.3122509888459134    
  0.31332399388496823    0.31654663975998987    0.32199470835017174    0.3299321351047645    0.3408152684640483    
  0.35509448588269127    0.3728757165967652    0.393566557673918    0.4155596145463675    0.4359963542576265    
  0.45088097098989083    0.45601833056225494    0.448857680237711    0.4303180293044987    0.4051430363342359    
  0.38028004335440757    0.3623748683598545    0.3558955748818099    0.3623748683598545    0.38028004335440757    
  0.40514303633423576    0.4303180293044987    0.4488576802377109    0.45601833056225494    0.45088097098989083    
  0.4359963542576265    0.4155596145463675    0.393566557673918    0.3728757165967652    0.35509448588269127    
  0.3408152684640483    0.3299321351047645    0.32199470835017174    0.31654663975998987    0.3133239938849683    
  0.3122509888459134    0.2819327844617899    0.28342801083646785    0.28793090076872463    0.2955563118945256    
  0.306616065075425    0.32157931660382894    0.3408152234969758    0.36418635108134667    0.39057369981477735    
  0.41734821509909265    0.43996957354160027    0.4523650195828139    0.4488576802377109    0.4273064464430465    
  0.3913586921104359    0.3496227882269106    0.31210670289356973    0.28669220736672923    0.2777794739292944    
  0.28669220736672923    0.3121067028935697    0.3496227882269106    0.3913586921104359    0.4273064464430464    
  0.4488576802377109    0.45236501958281394    0.43996957354160027    0.41734821509909265    0.39057369981477735    
  0.3641863510813466    0.3408152234969758    0.32157931660382894    0.306616065075425    0.2955563118945256    
  0.28793090076872463    0.28342801083646785    0.2819327844617899    0.25756611447032607    0.25942668195379665    
  0.26503420558803215    0.2745265145326646    0.2882363867639893    0.3066160328907872    0.32993205613205895    
  0.35778246050286655    0.388448226545666    0.4180810069425216    0.44016642597691463    0.4464506691383541    
  0.4303180293044987    0.39135869211043606    0.33735781338530696    0.28114876437304265    0.23465200202225367    
  0.205031574322882    0.19498838762693538    0.205031574322882    0.23465200202225367    0.2811487643730427    
  0.33735781338530696    0.391358692110436    0.4303180293044987    0.4464506691383541    0.44016642597691463    
  0.4180810069425216    0.388448226545666    0.3577824605028665    0.32993205613205895    0.3066160328907872    
  0.2882363867639893    0.2745265145326646    0.26503420558803215    0.25942668195379665    0.25756611447032607    
  0.23917460838370322    0.24132049854002893    0.24779212240660548    0.2587462847940277    0.27452649476443947    
  0.2955562587707739    0.32199460537261637    0.3531706335285121    0.386731051840002    0.4175269715613362    
  0.43703954060627803    0.43513312549690547    0.4051430363342359    0.3496227882269106    0.28114876437304265    
  0.2160507899294979    0.1663384587258942    0.1366506433952713    0.12695323125659788    0.13665064339527133    
  0.16633845872589414    0.2160507899294979    0.2811487643730427    0.34962278822691056    0.4051430363342359    
  0.43513312549690547    0.43703954060627803    0.41752697156133617    0.386731051840002    0.353170633528512    
  0.32199460537261637    0.29555625877077396    0.27452649476443947    0.2587462847940277    0.24779212240660548    
  0.24132049854002893    0.23917460838370322    0.2263860962681993    0.2287311488921612    0.2358083311627031    
  0.24779211259317632    0.2650341754935258    0.28793083569462424    0.3165465214089294    0.3499696662580792    
  0.3852653479227741    0.4161066896059778    0.4322688936532548    0.42231383490267194    0.3802800433544075    
  0.31210670289356984    0.23465200202225373    0.16633845872589403    0.11783872102935505    0.0906434411884108    
  0.08209161314652424    0.09064344118841079    0.11783872102935505    0.16633845872589406    0.23465200202225373    
  0.31210670289356973    0.3802800433544075    0.42231383490267194    0.4322688936532548    0.4161066896059778    
  0.3852653479227741    0.3499696662580792    0.3165465214089294    0.2879308356946243    0.2650341754935258    
  0.24779211259317632    0.23580833116270317    0.2287311488921612    0.2263860962681993    0.2188392995151966    
  0.2213001629779793    0.22873114510408818    0.2413204848298588    0.2594266474737874    0.2834279400648003    
  0.31332386719214694    0.34803291019695803    0.3842047972654359    0.4146865042709259    0.42812275394609733    
  0.41238355467180576    0.3623748683598545    0.28669220736672923    0.20503157432288194    0.13665064339527125    
  0.09064344118841079    0.06607594412826533    0.058583214584585305    0.06607594412826533    0.09064344118841079    
  0.13665064339527122    0.20503157432288194    0.2866922073667292    0.3623748683598545    0.41238355467180576    
  0.42812275394609733    0.4146865042709259    0.3842047972654359    0.34803291019695803    0.31332386719214694    
  0.2834279400648003    0.2594266474737874    0.24132048482985885    0.22873114510408815    0.22130016297797928    
  0.2188392995151966    0.21634065117992735    0.21883929861218188    0.22638609157188752    0.23917459371919583    
  0.2575660788513382    0.28193271206157605    0.3122508595396068    0.347377304148154    0.38381044920285107    
  0.4140999059663059    0.426497053184544    0.4086664547809042    0.3558955748818099    0.2777794739292945    
  0.19498838762693527    0.12695323125659788    0.08209161314652423    0.05858321458458528    0.05149951092666948    
  0.05858321458458528    0.08209161314652423    0.12695323125659788    0.19498838762693527    0.2777794739292944    
  0.3558955748818099    0.4086664547809042    0.426497053184544    0.4140999059663059    0.38381044920285107    
  0.34737730414815404    0.3122508595396068    0.28193271206157605    0.2575660788513382    0.2391745937191958    
  0.22638609157188752    0.21883929861218185    0.21634065117992735    0.2188392995151965    0.22130016297797936    
  0.22873114510408815    0.24132048482985885    0.2594266474737874    0.28342794006480027    0.31332386719214694    
  0.34803291019695803    0.3842047972654358    0.4146865042709259    0.42812275394609745    0.41238355467180576    
  0.3623748683598545    0.28669220736672923    0.20503157432288194    0.13665064339527125    0.09064344118841072    
  0.06607594412826533    0.058583214584585326    0.06607594412826533    0.09064344118841072    0.13665064339527122    
  0.20503157432288194    0.2866922073667292    0.3623748683598545    0.41238355467180576    0.42812275394609745    
  0.4146865042709259    0.3842047972654358    0.34803291019695803    0.31332386719214694    0.2834279400648003    
  0.2594266474737874    0.24132048482985885    0.22873114510408815    0.2213001629779793    0.2188392995151965    
  0.2263860962681993    0.2287311488921612    0.2358083311627031    0.24779211259317632    0.2650341754935258    
  0.28793083569462424    0.3165465214089294    0.3499696662580792    0.3852653479227741    0.4161066896059778    
  0.4322688936532548    0.42231383490267194    0.3802800433544075    0.31210670289356984    0.23465200202225373    
  0.16633845872589406    0.11783872102935505    0.0906434411884108    0.08209161314652424    0.09064344118841079    
  0.11783872102935505    0.16633845872589403    0.23465200202225373    0.3121067028935698    0.3802800433544075    
  0.42231383490267194    0.4322688936532548    0.4161066896059778    0.3852653479227741    0.3499696662580792    
  0.3165465214089294    0.2879308356946243    0.2650341754935258    0.24779211259317632    0.2358083311627031    
  0.2287311488921612    0.2263860962681993    0.23917460838370322    0.24132049854002893    0.24779212240660542    
  0.2587462847940278    0.2745264947644394    0.29555625877077396    0.3219946053726163    0.3531706335285121    
  0.38673105184000195    0.4175269715613363    0.43703954060627803    0.43513312549690536    0.4051430363342359    
  0.34962278822691073    0.28114876437304265    0.21605078992949797    0.1663384587258941    0.13665064339527133    
  0.12695323125659788    0.1366506433952713    0.16633845872589412    0.21605078992949797    0.28114876437304265    
  0.3496227882269106    0.4051430363342359    0.43513312549690536    0.43703954060627803    0.4175269715613362    
  0.38673105184000195    0.3531706335285121    0.32199460537261626    0.295556258770774    0.2745264947644394    
  0.2587462847940278    0.24779212240660548    0.24132049854002893    0.23917460838370322    0.25756611447032607    
  0.25942668195379665    0.26503420558803215    0.2745265145326646    0.2882363867639893    0.3066160328907872    
  0.32993205613205895    0.35778246050286655    0.388448226545666    0.4180810069425216    0.44016642597691463    
  0.4464506691383541    0.4303180293044987    0.391358692110436    0.33735781338530696    0.2811487643730427    
  0.23465200202225367    0.205031574322882    0.19498838762693538    0.205031574322882    0.23465200202225367    
  0.2811487643730427    0.33735781338530696    0.391358692110436    0.4303180293044987    0.4464506691383541    
  0.44016642597691463    0.4180810069425216    0.388448226545666    0.3577824605028665    0.32993205613205895    
  0.30661603289078726    0.2882363867639893    0.2745265145326646    0.26503420558803215    0.25942668195379665    
  0.25756611447032607    0.2819327844617898    0.2834280108364678    0.28793090076872463    0.29555631189452547    
  0.306616065075425    0.3215793166038288    0.3408152234969758    0.36418635108134667    0.39057369981477735    
  0.4173482150990926    0.43996957354160027    0.4523650195828139    0.4488576802377109    0.4273064464430465    
  0.3913586921104359    0.34962278822691056    0.31210670289356973    0.2866922073667293    0.2777794739292944    
  0.2866922073667293    0.31210670289356973    0.34962278822691056    0.3913586921104359    0.4273064464430464    
  0.4488576802377109    0.4523650195828139    0.43996957354160027    0.4173482150990926    0.39057369981477735    
  0.3641863510813466    0.3408152234969758    0.3215793166038288    0.306616065075425    0.29555631189452547    
  0.28793090076872463    0.2834280108364678    0.2819327844617898    0.3122509888459134    0.31332399388496823    
  0.31654663975998987    0.32199470835017174    0.3299321351047645    0.3408152684640483    0.35509448588269127    
  0.3728757165967652    0.393566557673918    0.4155596145463675    0.4359963542576265    0.45088097098989083    
  0.45601833056225494    0.448857680237711    0.4303180293044987    0.4051430363342359    0.3802800433544075    
  0.3623748683598545    0.3558955748818099    0.3623748683598545    0.38028004335440757    0.40514303633423576    
  0.4303180293044987    0.4488576802377109    0.45601833056225494    0.45088097098989083    0.4359963542576265    
  0.4155596145463675    0.393566557673918    0.3728757165967652    0.35509448588269127    0.3408152684640483    
  0.3299321351047645    0.32199470835017174    0.31654663975998987    0.3133239938849683    0.3122509888459134    
  0.3473775140829831    0.3480331159964065    0.34996985957946214    0.35317080588383815    0.3577826032520448    
  0.36418645537593425    0.3728757733456718    0.3841770277232143    0.3979583908073561    0.41342581530098155    
  0.4290089847395759    0.4423881511550713    0.45088097098989083    0.4523650195828139    0.4464506691383541    
  0.43513312549690547    0.42231383490267194    0.41238355467180576    0.40866645478090413    0.41238355467180576    
  0.42231383490267194    0.43513312549690547    0.4464506691383541    0.4523650195828139    0.45088097098989083    
  0.4423881511550713    0.4290089847395759    0.41342581530098155    0.3979583908073561    0.3841770277232143    
  0.3728757733456718    0.36418645537593425    0.3577826032520448    0.35317080588383815    0.34996985957946214    
  0.3480331159964065    0.3473775140829831    0.383810762529757    0.38420510481033054    0.3852656383716784    
  0.38673131459975296    0.38844845203600126    0.39057387945899696    0.3935666837914702    0.3979584566892216    
  0.4040586537798829    0.41175562660997683    0.42044022527785085    0.42900898473957577    0.4359963542576265    
  0.43996957354160027    0.44016642597691463    0.4370395406062779    0.4322688936532548    0.42812275394609745    
  0.426497053184544    0.42812275394609733    0.4322688936532548    0.43703954060627803    0.44016642597691463    
  0.43996957354160016    0.4359963542576265    0.42900898473957577    0.42044022527785085    0.41175562660997683    
  0.4040586537798829    0.3979584566892216    0.3935666837914702    0.390573879458997    0.38844845203600126    
  0.38673131459975296    0.3852656383716784    0.38420510481033054    0.383810762529757    0.41410033284985714    
  0.4146869245456531    0.41610709021762593    0.4175273399416252    0.4180813313860476    0.41734848534327523    
  0.4155598225633881    0.4134259559049854    0.41175569730036027    0.4111307866124718    0.41175562660997683    
  0.4134258153009816    0.41555961454636753    0.41734821509909265    0.4180810069425216    0.41752697156133617    
  0.41610668960597785    0.41468650427092596    0.4140999059663059    0.4146865042709259    0.41610668960597785    
  0.41752697156133617    0.4180810069425216    0.4173482150990926    0.41555961454636753    0.4134258153009816    
  0.41175562660997683    0.4111307866124718    0.41175569730036027    0.4134259559049854    0.4155598225633881    
  0.41734848534327523    0.4180813313860476    0.4175273399416252    0.41610709021762593    0.4146869245456531    
  0.41410033284985714    0.42649757936471777    0.4281232743797646    0.4322693964856656    0.4370400129446661    
  0.4401668537485779    0.43996994273045337    0.43599665348890854    0.4290092076340691    0.4204403707877072    
  0.41175569730036027    0.4040586537798829    0.39795839080735607    0.39356655767391796    0.39057369981477735    
  0.3884482265456659    0.38673105184000184    0.3852653479227741    0.3842047972654358    0.383810449202851    
  0.3842047972654358    0.3852653479227741    0.38673105184000184    0.3884482265456659    0.3905736998147773    
  0.39356655767391796    0.3979583908073561    0.4040586537798829    0.41175569730036027    0.4204403707877072    
  0.4290092076340691    0.43599665348890854    0.43996994273045337    0.4401668537485779    0.437040012944666    
  0.4322693964856656    0.4281232743797646    0.42649757936471777    0.4086670422623812    0.41238413894941406    
  0.4223144085809314    0.43513367817092896    0.4464511860345514    0.45236548258971127    0.45088136275436436    
  0.4423884601110455    0.4290092076340692    0.4134259559049854    0.3979584566892216    0.3841770277232144    
  0.3728757165967652    0.3641863510813466    0.3577824605028665    0.3531706335285121    0.3499696662580792    
  0.3480329101969581    0.34737730414815404    0.3480329101969581    0.34996966625807924    0.3531706335285121    
  0.3577824605028665    0.36418635108134656    0.3728757165967652    0.3841770277232144    0.3979584566892216    
  0.4134259559049854    0.4290092076340692    0.4423884601110455    0.45088136275436436    0.4523654825897114    
  0.4464511860345514    0.43513367817092896    0.4223144085809314    0.41238413894941406    0.4086670422623812    
  0.35589617357244946    0.36237546760385886    0.3802806426416615    0.40514363025290334    0.4303186049142402    
  0.44885821707932927    0.4560188048452663    0.45088136275436436    0.43599665348890876    0.4155598225633881    
  0.3935666837914703    0.37287577334567185    0.3550944858826913    0.34081522349697585    0.32993205613205895    
  0.3219946053726163    0.3165465214089294    0.31332386719214694    0.31225085953960685    0.31332386719214694    
  0.3165465214089294    0.3219946053726163    0.32993205613205895    0.3408152234969758    0.3550944858826913    
  0.37287577334567185    0.3935666837914703    0.4155598225633881    0.43599665348890876    0.45088136275436436    
  0.4560188048452663    0.44885821707932927    0.4303186049142402    0.40514363025290334    0.3802806426416615    
  0.36237546760385886    0.35589617357244946    0.2777800289455259    0.286692768245363    0.3121072785814888    
  0.3496233797951798    0.3913592894272102    0.42730702804162235    0.44885821707932927    0.4523654825897114    
  0.43996994273045337    0.41734848534327534    0.390573879458997    0.36418645537593436    0.34081526846404836    
  0.32157931660382894    0.3066160328907872    0.29555625877077396    0.2879308356946242    0.2834279400648003    
  0.28193271206157605    0.2834279400648003    0.2879308356946242    0.29555625877077396    0.3066160328907872    
  0.32157931660382894    0.3408152684640484    0.3641864553759344    0.390573879458997    0.41734848534327534    
  0.43996994273045337    0.4523654825897114    0.44885821707932927    0.42730702804162235    0.3913592894272102    
  0.3496233797951798    0.3121072785814888    0.286692768245363    0.2777800289455259    0.19498884446990944    
  0.20503204433181388    0.23465250701839133    0.28114931345805666    0.3373583984632624    0.39135928942721027    
  0.4303186049142402    0.44645118603455153    0.44016685374857806    0.41808133138604764    0.3884484520360013    
  0.35778260325204486    0.3299321351047646    0.306616065075425    0.28823638676398944    0.27452649476443935    
  0.2650341754935258    0.2594266474737875    0.2575660788513383    0.2594266474737875    0.2650341754935258    
  0.27452649476443935    0.28823638676398944    0.306616065075425    0.3299321351047646    0.35778260325204486    
  0.3884484520360013    0.41808133138604764    0.44016685374857806    0.44645118603455153    0.4303186049142402    
  0.3913592894272103    0.3373583984632624    0.28114931345805666    0.23465250701839133    0.2050320443318139    
  0.19498884446990944    0.1269535552653937    0.1366509882688992    0.1663388607540705    0.2160512683988731    
  0.2811493134580566    0.3496233797951797    0.40514363025290334    0.43513367817092885    0.437040012944666    
  0.4175273399416252    0.3867313145997531    0.3531708058838382    0.32199470835017174    0.2955563118945255    
  0.27452651453266447    0.2587462847940277    0.2477921125931764    0.24132048482985885    0.2391745937191959    
  0.2413204848298589    0.2477921125931764    0.2587462847940277    0.27452651453266447    0.29555631189452547    
  0.32199470835017174    0.35317080588383826    0.3867313145997531    0.4175273399416252    0.437040012944666    
  0.43513367817092885    0.40514363025290334    0.3496233797951798    0.28114931345805666    0.2160512683988731    
  0.1663388607540705    0.1366509882688992    0.1269535552653937    0.0820918104685745    0.09064366469066983    
  0.1178390186353139    0.1663388607540705    0.23465250701839127    0.3121072785814887    0.3802806426416615    
  0.4223144085809314    0.4322693964856656    0.41610709021762593    0.38526563837167843    0.34996985957946214    
  0.31654663975998987    0.28793090076872463    0.26503420558803215    0.24779212240660542    0.23580833116270317    