#     DFTpy    
  CRYSTAL 
    
  PRIMVEC    
  4.27386206896552    0.0    0.0    
  0.0    4.27386206896552    0.0    
  0.0    0.0    4.27386206896552    
  PRIMCOORD    
  4    1    
  Si    0.0    0.0    0.0    
  Si    0.0    2.1369310344827603    2.1369310344827603    
  Si    2.1369310344827603    0.0    2.1369310344827603    
  Si    2.1369310344827603    2.1369310344827603    0.0    
  BEGIN_BLOCK_DATAGRID_3D    
  3d_datagrid_density    
  BEGIN_DATAGRID_3D#0    
  41    41    41    
  0.0    0.0    0.0    
  4.273862084907107    0.0    0.0    
  0.0    4.273862084907107    0.0    
  0.0    0.0    4.273862084907107    
  0.058415123910954415    0.06722703532314077    0.09636848442361645    0.15043226702507007    0.22613193452402328    
  0.3044506407499434    0.35804449894054213    0.3705265603116023    0.3461561589444689    0.3013905476946173    
  0.2517759896940747    0.20633684560886076    0.16859900426019145    0.13903844679813027    0.1167299167434406    
  0.10031516783667996    0.0885492189361771    0.08045895156004934    0.07528431257234339    0.07243599672423484    
  0.07153075727594782    0.07243599672423491    0.07528431257234343    0.08045895156004931    0.0885492189361771    
  0.10031516783667993    0.11672991674344056    0.13903844679813024    0.16859900426019142    0.20633684560886076    
  0.25177598969407466    0.30139054769461726    0.3461561589444689    0.3705265603116023    0.3580444989405422    
  0.3044506407499434    0.22613193452402328    0.15043226702507007    0.09636848442361642    0.06722703532314082    
  0.058415123910954415    0.0672270353231408    0.07652951713222343    0.10680206428884678    0.1615900067806976    
  0.23628643358180557    0.31148410812175736    0.3610276739831293    0.370260871853383    0.34426630019027893    
  0.299216485308352    0.2499970293122082    0.20515007033098173    0.16797685251048672    0.1388783782391285    
  0.11692014620416354    0.10076126503740315    0.08917931582287045    0.08121801059876986    0.07612767246640051    
  0.07332627236291256    0.07243595948769745    0.07332627236291261    0.07612767246640054    0.08121801059876986    
  0.08917931582287045    0.10076126503740315    0.1169201462041635    0.1388783782391285    0.1679768525104867    
  0.20515007033098173    0.24999702931220819    0.299216485308352    0.34426630019027893    0.370260871853383    
  0.36102767398312935    0.31148410812175736    0.23628643358180557    0.16159000678069757    0.10680206428884678    
  0.07652951713222347    0.0672270353231408    0.09636848442361638    0.10680206428884668    0.1394114750350213    
  0.19476234062824446    0.2649661748918599    0.33023608063361926    0.3680922231227663    0.3684667275502814    
  0.33830570510841007    0.2927518619879339    0.24482136364156243    0.20175136145391123    0.166246205300779    
  0.13851093842502976    0.11759179925958972    0.10219985651726607    0.09117639418830459    0.08361112394732621    
  0.07878225142836898    0.07612756034990935    0.07528416318779516    0.07612756034990935    0.078782251428369    
  0.08361112394732617    0.09117639418830459    0.10219985651726599    0.11759179925958965    0.13851093842502973    
  0.166246205300779    0.2017513614539112    0.24482136364156237    0.2927518619879338    0.33830570510841007    
  0.3684667275502814    0.36809222312276635    0.3302360806336193    0.2649661748918599    0.19476234062824446    
  0.1394114750350213    0.10680206428884675    0.09636848442361638    0.15043226702507012    0.16159000678069763    
  0.19476234062824446    0.2465309860687406    0.30570865439303435    0.35379129229234224    0.37422486146816003    
  0.3626905152678322    0.32765855497470286    0.2822360856974467    0.23672563119123166    0.19660609348197788    
  0.1638020193986277    0.1382709438306044    0.11904948049829532    0.10493381229024912    0.09485940501922305    
  0.08797987667439941    0.08361093315129291    0.08121770716674759    0.0804586106313803    0.08121770716674759    
  0.08361093315129293    0.0879798766743994    0.09485940501922305    0.10493381229024909    0.11904948049829528    
  0.1382709438306044    0.16380201939862768    0.19660609348197786    0.23672563119123166    0.2822360856974466    
  0.32765855497470286    0.3626905152678322    0.3742248614681601    0.35379129229234224    0.30570865439303435    
  0.2465309860687406    0.19476234062824446    0.16159000678069765    0.15043226702507012    0.22613193452402336    
  0.23628643358180557    0.26496617489186003    0.30570865439303446    0.346312939840194    0.3720798492531198    
  0.373289367020185    0.3504142617785126    0.31199634371046564    0.2682397755186774    0.22648043922734076    
  0.190430022039609    0.1612555510571801    0.1386880340128273    0.12178310390290573    0.10945024837752226    
  0.1007350285713359    0.09485912706688238    0.09117592307605746    0.08917872985565366    0.08854859463621581    
  0.08917872985565369    0.0911759230760575    0.09485912706688233    0.1007350285713359    0.10945024837752224    
  0.12178310390290568    0.13868803401282728    0.16125555105718006    0.19043002203960896    0.22648043922734076    
  0.26823977551867734    0.31199634371046564    0.3504142617785126    0.373289367020185    0.3720798492531198    
  0.346312939840194    0.30570865439303446    0.26496617489186003    0.23628643358180568    0.22613193452402336    
  0.3044506407499434    0.3114841081217574    0.3302360806336193    0.3537912922923423    0.3720798492531198    
  0.37577529647198027    0.36094656582015133    0.33059443489531987    0.2918424310817794    0.2517692075271193    
  0.21510124229339378    0.18410807318170716    0.15935667145833732    0.14041975585722438    0.1264102169661397    
  0.11636871614230837    0.10944987534176027    0.10493315550895742    0.10219899907732674    0.10076028696993802    
  0.10031414933611034    0.10076028696993806    0.10219899907732674    0.10493315550895742    0.10944987534176027    
  0.11636871614230831    0.12641021696613963    0.14041975585722438    0.15935667145833732    0.18410807318170716    
  0.21510124229339378    0.25176920752711923    0.2918424310817794    0.33059443489531987    0.36094656582015133    
  0.37577529647198027    0.3720798492531198    0.3537912922923423    0.3302360806336193    0.3114841081217575    
  0.3044506407499434    0.35804449894054213    0.3610276739831293    0.3680922231227663    0.37422486146816003    
  0.3732893670201849    0.36094656582015133    0.3368333440470407    0.3043918931718588    0.26869787619990165    
  0.23420736050162774    0.2037470296083408    0.17858918748620994    0.15889881446092358    0.14417457746028384    
  0.1336210691933056    0.12640974617494682    0.12178224971759712    0.11904832684953488    0.11759042898457191    
  0.11691864380230889    0.11672836978661587    0.1169186438023089    0.11759042898457191    0.11904832684953483    
  0.12178224971759712    0.1264097461749468    0.13362106919330557    0.14417457746028384    0.15889881446092352    
  0.17858918748620994    0.2037470296083408    0.2342073605016277    0.26869787619990165    0.30439189317185883    
  0.3368333440470407    0.36094656582015133    0.3732893670201849    0.3742248614681601    0.3680922231227663    
  0.3610276739831293    0.35804449894054213    0.37052656031160225    0.370260871853383    0.3684667275502815    
  0.3626905152678322    0.3504142617785126    0.33059443489531987    0.30439189317185883    0.2746518000775824    
  0.2446590682413    0.21708564418907617    0.19356996072648913    0.17477631083510198    0.16064405804559762    
  0.15067321687977486    0.14417401258320964    0.1404187037454719    0.13868657205259016    0.13826915203994486    
  0.13850890230497478    0.1388761909217562    0.13903620818925622    0.13887619092175624    0.13850890230497476    
  0.13826915203994483    0.13868657205259016    0.1404187037454719    0.1441740125832096    0.15067321687977486    
  0.16064405804559762    0.17477631083510195    0.19356996072648916    0.21708564418907614    0.2446590682413    
  0.27465180007758244    0.30439189317185883    0.33059443489531987    0.3504142617785126    0.3626905152678322    
  0.36846672755028154    0.3702608718533831    0.37052656031160225    0.3461561589444689    0.34426630019027893    
  0.3383057051084101    0.3276585549747028    0.31199634371046564    0.2918424310817793    0.2686978761999016    
  0.2446590682413    0.2218183502727617    0.2017990326226593    0.18556420441677327    0.1734451245178772    
  0.1652893117148842    0.1606434107685099    0.15889757871883947    0.15935490870348104    0.16125333017139537    
  0.16379941991910751    0.16624332020718455    0.1679737888991224    0.16859587985193547    0.16797378889912234    
  0.16624332020718455    0.1637994199191075    0.16125333017139537    0.15935490870348104    0.15889757871883944    
  0.1606434107685099    0.1652893117148842    0.17344512451787714    0.18556420441677324    0.20179903262265925    
  0.2218183502727617    0.2446590682413    0.26869787619990165    0.2918424310817794    0.31199634371046564    
  0.3276585549747028    0.3383057051084101    0.34426630019027893    0.3461561589444689    0.30139054769461726    
  0.2992164853083519    0.29275186198793374    0.2822360856974466    0.26823977551867734    0.25176920752711923    
  0.2342073605016277    0.21708564418907617    0.20179903262265927    0.18939157496245201    0.18046629129412045    
  0.17520398711872556    0.17344441511973274    0.174774924538286    0.178587160169757    0.1841054517945849    
  0.19042687065869415    0.19660249668908827    0.201747425626317    0.20514592178038957    0.20633262451738446    
  0.20514592178038957    0.201747425626317    0.19660249668908825    0.19042687065869415    0.18410545179458487    
  0.17858716016975698    0.174774924538286    0.17344441511973271    0.17520398711872553    0.18046629129412048    
  0.189391574962452    0.20179903262265927    0.21708564418907614    0.2342073605016277    0.25176920752711923    
  0.2682397755186774    0.2822360856974466    0.2927518619879338    0.299216485308352    0.30139054769461726    
  0.2517759896940746    0.24999702931220819    0.24482136364156237    0.23672563119123166    0.22648043922734076    
  0.21510124229339372    0.20374702960834082    0.1935699607264892    0.18556420441677324    0.18046629129412048    
  0.1787180602780085    0.18046554775902934    0.18556271787603731    0.19356773562924112    0.2037440819605355    
  0.21509760946997786    0.22647618729086622    0.23672085706705726    0.24481619284275544    0.24999161046092114    
  0.251770486428825    0.2499916104609212    0.24481619284275538    0.2367208570670572    0.22647618729086622    
  0.21509760946997786    0.2037440819605355    0.1935677356292412    0.18556271787603731    0.1804655477590293    
  0.17871806027800846    0.18046629129412048    0.18556420441677324    0.19356996072648916    0.2037470296083408    
  0.21510124229339378    0.2264804392273407    0.2367256311912316    0.24482136364156237    0.2499970293122082    
  0.2517759896940746    0.20633684560886073    0.2051500703309818    0.20175136145391126    0.19660609348197788    
  0.190430022039609    0.18410807318170716    0.17858918748621    0.17477631083510206    0.17344512451787714    
  0.17520398711872565    0.18046554775902934    0.18939005274653825    0.20179670061324956    0.21708248313029024    
  0.2342033739090584    0.25176443383843167    0.2682342953446717    0.28223001944373893    0.29274535985674055    
  0.29920971569218985    0.301383688029792    0.29920971569218985    0.2927453598567405    0.2822300194437389    
  0.2682342953446717    0.25176443383843167    0.23420337390905846    0.2170824831302903    0.20179670061324956    
  0.18939005274653822    0.18046554775902934    0.17520398711872562    0.17344512451787714    0.17477631083510206    
  0.17858918748620997    0.18410807318170716    0.190430022039609    0.19660609348197788    0.20175136145391126    
  0.20515007033098182    0.20633684560886073    0.1685990042601915    0.16797685251048677    0.16624620530077894    
  0.16380201939862768    0.1612555510571801    0.1593566714583373    0.15889881446092358    0.16064405804559764    
  0.16528931171488417    0.17344441511973277    0.18556271787603731    0.20179670061324956    0.22181511458888395    
  0.24465489449249062    0.2686927701625112    0.2918364539066289    0.3119896154703297    0.3276512393008069    
  0.338297981819806    0.3442583422364899    0.346148125002034    0.3442583422364899    0.338297981819806    
  0.32765123930080686    0.3119896154703297    0.2918364539066289    0.26869277016251125    0.24465489449249056    
  0.22181511458888398    0.2017967006132495    0.18556271787603731    0.1734444151197328    0.16528931171488417    
  0.16064405804559762    0.15889881446092358    0.1593566714583373    0.16125555105718006    0.16380201939862768    
  0.16624620530077894    0.1679768525104868    0.1685990042601915    0.13903844679813024    0.1388783782391285    
  0.13851093842502973    0.13827094383060443    0.13868803401282723    0.14041975585722435    0.14417457746028386    
  0.1506732168797749    0.1606434107685099    0.17477492453828605    0.1935677356292412    0.2170824831302903    
  0.24465489449249056    0.2746465802345345    0.3043856634947974    0.3305873197171717    0.3504064633917001    
  0.3626822678536241    0.36845823727910415    0.3702522787608294    0.37051794137683763    0.3702522787608294    
  0.36845823727910415    0.3626822678536241    0.3504064633917001    0.3305873197171717    0.3043856634947974    
  0.2746465802345345    0.24465489449249062    0.21708248313029024    0.1935677356292412    0.17477492453828608    
  0.1606434107685099    0.1506732168797749    0.14417457746028384    0.14041975585722435    0.13868803401282723    
  0.13827094383060448    0.13851093842502976    0.13887837823912855    0.13903844679813024    0.1167299167434405    
  0.11692014620416352    0.11759179925958972    0.11904948049829532    0.12178310390290573    0.1264102169661397    
  0.13362106919330563    0.1441740125832097    0.15889757871883944    0.17858716016975706    0.20374408196053553    
  0.2342033739090584    0.2686927701625112    0.3043856634947973    0.33682610452502837    0.3609385638886004    
  0.37328093787003713    0.3742163256491888    0.36808378485482984    0.36101937947148066    0.35803626803077543    
  0.3610193794714807    0.36808378485482984    0.3742163256491888    0.37328093787003713    0.36093856388860035    
  0.3368261045250284    0.3043856634947973    0.26869277016251125    0.23420337390905832    0.20374408196053553    
  0.17858716016975706    0.15889757871883944    0.14417401258320967    0.1336210691933056    0.1264102169661397    
  0.12178310390290575    0.11904948049829532    0.11759179925958974    0.11692014620416354    0.1167299167434405    
  0.10031516783667992    0.10076126503740312    0.10219985651726606    0.10493381229024909    0.10945024837752221    
  0.1163687161423083    0.1264097461749468    0.1404187037454719    0.15935490870348099    0.18410545179458493    
  0.21509760946997786    0.2517644338384316    0.2918364539066289    0.3305873197171716    0.3609385638886004    
  0.37576683837566427    0.3720714292924982    0.3537832904023213    0.33022863565640576    0.3114771093623401    
  0.30444380960055817    0.3114771093623401    0.33022863565640576    0.35378329040232126    0.3720714292924982    
  0.37576683837566427    0.3609385638886004    0.3305873197171716    0.2918364539066289    0.2517644338384315    
  0.2150976094699778    0.18410545179458496    0.15935490870348099    0.1404187037454719    0.1264097461749469    
  0.1163687161423083    0.10945024837752221    0.10493381229024909    0.10219985651726603    0.10076126503740317    
  0.10031516783667992    0.08854921893617713    0.08917931582287052    0.09117639418830456    0.09485940501922309    
  0.10073502857133589    0.10944987534176032    0.12178224971759716    0.13868657205259025    0.16125333017139543    
  0.19042687065869418    0.22647618729086627    0.26823429534467175    0.3119896154703296    0.3504064633917    
  0.3732809378700372    0.37207142929249826    0.34630515242376375    0.30570185988026044    0.2649603686394024    
  0.23628131960779183    0.2261270652018798    0.2362813196077918    0.26496036863940237    0.3057018598802604    
  0.34630515242376375    0.37207142929249826    0.3732809378700372    0.3504064633917    0.3119896154703296    
  0.2682342953446717    0.22647618729086627    0.1904268706586942    0.16125333017139543    0.13868657205259022    
  0.12178224971759716    0.1094498753417603    0.10073502857133589    0.09485940501922309    0.09117639418830459    
  0.08917931582287057    0.08854921893617713    0.08045895156004927    0.0812180105987698    0.08361112394732621    
  0.08797987667439947    0.0948591270668823    0.10493315550895747    0.11904832684953483    0.1382691520399448    
  0.1637994199191074    0.19660249668908822    0.23672085706705726    0.28223001944373893    0.3276512393008068    
  0.3626822678536242    0.3742163256491888    0.3537832904023213    0.3057018598802604    0.24652564691736728    
  0.19475826061504808    0.16158672991439285    0.1504292599347347    0.16158672991439285    0.19475826061504808    
  0.2465256469173672    0.3057018598802604    0.3537832904023213    0.37421632564918883    0.3626822678536242    
  0.3276512393008068    0.2822300194437389    0.2367208570670572    0.19660249668908822    0.1637994199191074    
  0.1382691520399448    0.11904832684953483    0.10493315550895745    0.09485912706688236    0.08797987667439947    
  0.08361112394732617    0.08121801059876983    0.08045895156004927    0.07528431257234343    0.07612767246640055    
  0.07878225142836896    0.08361093315129291    0.09117592307605749    0.10219899907732684    0.11759042898457188    
  0.13850890230497487    0.1662433202071846    0.201747425626317    0.24481619284275544    0.2927453598567405    
  0.33829798181980597    0.36845823727910415    0.3680837848548299    0.3302286356564057    0.2649603686394023    
  0.1947582606150481    0.13940874409746407    0.10680012570686413    0.09636679900772471    0.10680012570686408    
  0.13940874409746404    0.19475826061504808    0.2649603686394023    0.3302286356564057    0.36808378485482995    
  0.36845823727910415    0.33829798181980597    0.2927453598567405    0.24481619284275538    0.20174742562631703    
  0.1662433202071846    0.13850890230497487    0.11759042898457187    0.10219899907732677    0.09117592307605749    
  0.08361093315129291    0.07878225142836898    0.07612767246640055    0.07528431257234343    0.07243599672423487    
  0.07332627236291259    0.07612756034990938    0.08121770716674756    0.08917872985565373    0.10076028696993806    
  0.11691864380230893    0.13887619092175624    0.16797378889912237    0.20514592178038957    0.24999161046092128    
  0.29920971569218985    0.34425834223648977    0.3702522787608294    0.36101937947148066    0.31147710936234013    
  0.2362813196077919    0.1615867299143929    0.10680012570686422    0.07652831548248976    0.06722605932265269    
  0.07652831548248974    0.10680012570686417    0.16158672991439285    0.2362813196077919    0.31147710936234013    
  0.3610193794714808    0.3702522787608294    0.3442583422364898    0.29920971569218985    0.24999161046092122    
  0.2051459217803896    0.16797378889912237    0.13887619092175624    0.11691864380230889    0.10076028696993802    
  0.08917872985565373    0.08121770716674759    0.07612756034990942    0.07332627236291261    0.07243599672423487    
  0.0715307572759478    0.07243595948769746    0.07528416318779516    0.08045861063138032    0.0885485946362158    
  0.10031414933611034    0.11672836978661583    0.13903620818925624    0.16859587985193542    0.20633262451738452    
  0.25177048642882505    0.30138368802979204    0.3461481250020339    0.37051794137683763    0.35803626803077554    
  0.3044438096005582    0.22612706520187983    0.15042925993473466    0.09636679900772478    0.06722605932265276    
  0.058414361309257784    0.06722605932265274    0.09636679900772482    0.15042925993473463    0.22612706520187983    
  0.30444380960055817    0.3580362680307756    0.37051794137683763    0.3461481250020339    0.30138368802979204    
  0.25177048642882505    0.20633262451738452    0.16859587985193542    0.13903620818925622    0.11672836978661577    
  0.10031414933611031    0.08854859463621581    0.08045861063138027    0.07528416318779516    0.07243595948769749    
  0.0715307572759478    0.07243599672423491    0.07332627236291256    0.0761275603499094    0.0812177071667476    
  0.08917872985565373    0.10076028696993806    0.11691864380230889    0.1388761909217563    0.16797378889912237    
  0.20514592178038957    0.24999161046092128    0.29920971569218985    0.34425834223648977    0.3702522787608294    
  0.3610193794714807    0.31147710936234013    0.23628131960779183    0.16158672991439288    0.10680012570686422    
  0.07652831548248976    0.06722605932265271    0.07652831548248976    0.10680012570686417    0.16158672991439282    
  0.23628131960779183    0.31147710936234013    0.36101937947148083    0.37025227876082945    0.3442583422364898    
  0.29920971569218985    0.24999161046092122    0.2051459217803896    0.16797378889912237    0.13887619092175624    
  0.11691864380230893    0.10076028696993802    0.08917872985565373    0.08121770716674759    0.07612756034990947    
  0.07332627236291266    0.07243599672423491    0.07528431257234341    0.07612767246640054    0.07878225142836898    
  0.08361093315129298    0.09117592307605749    0.10219899907732684    0.11759042898457191    0.13850890230497487    
  0.16624332020718458    0.20174742562631706    0.24481619284275544    0.29274535985674055    0.338297981819806    
  0.36845823727910415    0.36808378485482984    0.33022863565640576    0.2649603686394023    0.19475826061504808    
  0.13940874409746404    0.10680012570686413    0.09636679900772471    0.10680012570686413    0.13940874409746407    
  0.19475826061504808    0.2649603686394023    0.33022863565640576    0.36808378485482984    0.36845823727910415    
  0.338297981819806    0.2927453598567405    0.24481619284275538    0.20174742562631703    0.16624332020718458    
  0.13850890230497487    0.11759042898457187    0.10219899907732677    0.09117592307605749    0.08361093315129298    
  0.07878225142836905    0.07612767246640055    0.07528431257234341    0.08045895156004924    0.08121801059876983    
  0.08361112394732617    0.08797987667439947    0.09485912706688236    0.10493315550895742    0.11904832684953488    
  0.13826915203994483    0.1637994199191074    0.19660249668908822    0.23672085706705726    0.2822300194437389    
  0.3276512393008068    0.3626822678536242    0.3742163256491888    0.3537832904023213    0.30570185988026044    
  0.24652564691736734    0.19475826061504803    0.1615867299143928    0.1504292599347347    0.1615867299143928    
  0.19475826061504806    0.24652564691736728    0.30570185988026044    0.3537832904023213    0.37421632564918883    
  0.3626822678536242    0.3276512393008068    0.2822300194437388    0.2367208570670572    0.19660249668908822    
  0.1637994199191074    0.1382691520399448    0.1190483268495349    0.1049331555089574    0.09485912706688236    
  0.08797987667439947    0.08361112394732621    0.08121801059876986    0.08045895156004924    0.08854921893617713    
  0.08917931582287052    0.09117639418830456    0.09485940501922309    0.10073502857133589    0.10944987534176032    
  0.12178224971759716    0.13868657205259025    0.16125333017139543    0.19042687065869418    0.22647618729086627    
  0.26823429534467175    0.3119896154703296    0.3504064633917    0.3732809378700372    0.37207142929249826    
  0.34630515242376375    0.30570185988026044    0.2649603686394024    0.23628131960779183    0.2261270652018798    
  0.2362813196077918    0.26496036863940237    0.3057018598802604    0.34630515242376375    0.37207142929249826    
  0.3732809378700372    0.3504064633917    0.3119896154703296    0.2682342953446717    0.22647618729086627    
  0.1904268706586942    0.16125333017139543    0.13868657205259022    0.12178224971759716    0.1094498753417603    
  0.10073502857133589    0.09485940501922309    0.09117639418830459    0.08917931582287057    0.08854921893617713    
  0.10031516783667989    0.10076126503740308    0.10219985651726603    0.10493381229024902    0.10945024837752217    
  0.1163687161423083    0.1264097461749468    0.14041870374547188    0.15935490870348099    0.1841054517945849    
  0.21509760946997786    0.2517644338384316    0.2918364539066289    0.33058731971717165    0.3609385638886004    
  0.3757668383756642    0.37207142929249815    0.3537832904023213    0.33022863565640576    0.3114771093623401    
  0.3044438096005582    0.31147710936234    0.3302286356564058    0.35378329040232126    0.37207142929249815    
  0.3757668383756642    0.36093856388860046    0.33058731971717165    0.2918364539066289    0.25176443383843156    
  0.2150976094699778    0.1841054517945849    0.15935490870348099    0.1404187037454719    0.1264097461749468    
  0.1163687161423083    0.10945024837752214    0.10493381229024902    0.102199856517266    0.10076126503740312    
  0.10031516783667989    0.1167299167434405    0.11692014620416347    0.11759179925958974    0.11904948049829525    
  0.12178310390290573    0.1264102169661397    0.13362106919330566    0.1441740125832097    0.15889757871883944    
  0.17858716016975704    0.20374408196053556    0.2342033739090584    0.26869277016251125    0.30438566349479734    
  0.3368261045250284    0.36093856388860046    0.3732809378700371    0.3742163256491888    0.36808378485482984    
  0.36101937947148066    0.3580362680307755    0.3610193794714807    0.36808378485482984    0.3742163256491888    
  0.3732809378700371    0.36093856388860046    0.3368261045250284    0.3043856634947973    0.2686927701625113    
  0.23420337390905838    0.20374408196053553    0.17858716016975706    0.15889757871883944    0.1441740125832097    
  0.1336210691933056    0.12641021696613966    0.12178310390290573    0.11904948049829522    0.11759179925958974    
  0.1169201462041635    0.1167299167434405    0.13903844679813024    0.1388783782391285    0.13851093842502982    
  0.13827094383060443    0.1386880340128273    0.14041975585722438    0.14417457746028384    0.1506732168797749    
  0.16064341076850994    0.17477492453828608    0.1935677356292412    0.2170824831302903    0.24465489449249053    
  0.2746465802345345    0.30438566349479734    0.3305873197171717    0.3504064633917001    0.36268226785362423    
  0.3684582372791042    0.3702522787608294    0.3705179413768376    0.3702522787608294    0.36845823727910415    
  0.3626822678536241    0.3504064633917001    0.3305873197171717    0.3043856634947974    0.2746465802345345    
  0.24465489449249056    0.21708248313029024    0.1935677356292412    0.17477492453828608    0.16064341076850994    
  0.15067321687977486    0.1441745774602838    0.14041975585722438    0.13868803401282728    0.13827094383060443    
  0.13851093842502973    0.13887837823912857    0.13903844679813024    0.1685990042601915    0.16797685251048675    
  0.16624620530077894    0.16380201939862774    0.1612555510571801    0.1593566714583373    0.15889881446092352    
  0.16064405804559762    0.1652893117148842    0.17344441511973277    0.18556271787603731    0.20179670061324959    
  0.22181511458888398    0.24465489449249062    0.2686927701625113    0.2918364539066289    0.3119896154703296    
  0.3276512393008069    0.338297981819806    0.3442583422364899    0.34614812500203407    0.3442583422364899    
  0.338297981819806    0.3276512393008068    0.3119896154703296    0.2918364539066289    0.2686927701625113    
  0.24465489449249062    0.22181511458888398    0.20179670061324953    0.18556271787603731    0.17344441511973277    
  0.1652893117148842    0.16064405804559762    0.15889881446092352    0.1593566714583373    0.1612555510571801    
  0.16380201939862774    0.16624620530077897    0.16797685251048677    0.1685990042601915    0.20633684560886073    
  0.20515007033098176    0.20175136145391126    0.19660609348197786    0.19043002203960896    0.18410807318170716    
  0.17858918748620994    0.174776310835102    0.17344512451787716    0.1752039871187256    0.18046554775902932    
  0.18939005274653825    0.20179670061324956    0.2170824831302903    0.2342033739090584    0.2517644338384316    
  0.26823429534467175    0.28223001944373893    0.29274535985674055    0.29920971569218985    0.30138368802979204    
  0.29920971569218985    0.29274535985674055    0.2822300194437389    0.26823429534467175    0.2517644338384316    
  0.2342033739090584    0.2170824831302903    0.20179670061324956    0.18939005274653822    0.18046554775902934    
  0.1752039871187256    0.17344512451787716    0.174776310835102    0.17858918748621    0.18410807318170716    
  0.19043002203960896    0.1966060934819779    0.20175136145391126    0.20515007033098182    0.20633684560886073    
  0.2517759896940746    0.24999702931220819    0.24482136364156237    0.23672563119123166    0.22648043922734076    
  0.21510124229339372    0.20374702960834076    0.19356996072648916    0.1855642044167732    0.18046629129412048    
  0.17871806027800846    0.18046554775902934    0.18556271787603731    0.19356773562924118    0.20374408196053553    
  0.2150976094699778    0.22647618729086627    0.23672085706705726    0.24481619284275538    0.2499916104609212    
  0.25177048642882505    0.2499916104609212    0.24481619284275538    0.23672085706705726    0.22647618729086627    
  0.2150976094699778    0.20374408196053553    0.19356773562924118    0.18556271787603734    0.1804655477590293    
  0.17871806027800846    0.18046629129412048    0.1855642044167732    0.19356996072648916    0.2037470296083408    