#     DFTpy    
  CRYSTAL 
    
  PRIMVEC    
  3.6398275862069003    0.0    0.0    
  0.0    3.6398275862069003    0.0    
  0.0    0.0    3.6398275862069003    
  PRIMCOORD    
  4    1    
  Si    0.0    0.0    0.0    
  Si    0.0    1.8199137931034506    1.8199137931034506    
  Si    1.8199137931034506    0.0    1.8199137931034506    
  Si    1.8199137931034506    1.8199137931034506    0.0    
  BEGIN_BLOCK_DATAGRID_3D    
  3d_datagrid_density    
  BEGIN_DATAGRID_3D#0    
  37    37    37    
  0.0    0.0    0.0    
  3.6398275997835268    0.0    0.0    
  0.0    3.6398275997835268    0.0    
  0.0    0.0    3.6398275997835268    
  0.05322241365713971    0.06092185654027212    0.08651673990422726    0.13510901319852897    0.2071872492792163    
  0.29076003016598073    0.3628348310684494    0.4029163847913531    0.4056804018092282    0.38056035138332867    
  0.3419923709205348    0.30134545504654553    0.2648362240601492    0.23485486282073753    0.21167799567604215    
  0.194653233761072    0.18297317995387605    0.1760999894627569    0.17382195534056513    0.1760999894627569    
  0.18297317995387605    0.19465323376107194    0.21167799567604215    0.2348548628207376    0.2648362240601492    
  0.30134545504654553    0.3419923709205348    0.38056035138332867    0.4056804018092282    0.40291638479135305    
  0.3628348310684494    0.29076003016598073    0.2071872492792163    0.13510901319852908    0.08651673990422726    
  0.0609218565402721    0.05322241365713971    0.06092185654027217    0.06907203965123844    0.09579700450092823    
  0.14547047116828074    0.21750803442772657    0.2992616875409485    0.3682283892681564    0.4052292993210785    
  0.40599743338887684    0.3801535439864623    0.34171992781489885    0.3015760687027292    0.2656305872366807    
  0.23614126655706333    0.21334802087628224    0.196601162984803    0.18510774121267004    0.17834252178005952    
  0.17609998939261579    0.17834252178005955    0.18510774121267004    0.19660116298480296    0.21334802087628224    
  0.2361412665570633    0.2656305872366807    0.3015760687027292    0.34171992781489885    0.3801535439864623    
  0.40599743338887684    0.4052292993210785    0.3682283892681563    0.29926168754094856    0.21750803442772657    
  0.1454704711682808    0.09579700450092823    0.06907203965123844    0.06092185654027217    0.08651673990422727    
  0.0957970045009282    0.12519693215582453    0.1769323553503711    0.24757379074021252    0.3230995612055295    
  0.3827697850562124    0.41109314551940046    0.4064885367804484    0.378855925966629    0.3409714298161783    
  0.30235479475089894    0.26807941597615315    0.24004544233978048    0.21839218254496232    0.20247673910681044    
  0.1915456767982436    0.18510774075582118    0.18297317935164156    0.18510774075582118    0.1915456767982436    
  0.20247673910681033    0.21839218254496232    0.24004544233978048    0.26807941597615315    0.30235479475089894    
  0.3409714298161783    0.378855925966629    0.4064885367804484    0.4110931455194004    0.3827697850562124    
  0.32309956120552963    0.24757379074021252    0.17693235535037116    0.12519693215582453    0.0957970045009282    
  0.08651673990422727    0.13510901319852908    0.1454704711682808    0.17693235535037116    0.2285398387604103    
  0.29344704301742636    0.356959254560085    0.4017936646934217    0.41762676689755834    0.4059657432511136    
  0.37647862574343505    0.33993469272650745    0.3039269014812541    0.27239143326883763    0.2467415749014184    
  0.22697393322155945    0.21245213162958207    0.20247673872615635    0.19660116184547294    0.19465323226567804    
  0.19660116184547297    0.20247673872615635    0.21245213162958201    0.22697393322155948    0.24674157490141846    
  0.27239143326883763    0.3039269014812541    0.33993469272650745    0.37647862574343505    0.4059657432511136    
  0.41762676689755834    0.4017936646934217    0.356959254560085    0.29344704301742636    0.22853983876041026    
  0.17693235535037113    0.14547047116828074    0.13510901319852908    0.20718724927921636    0.2175080344277265    
  0.24757379074021257    0.2934470430174263    0.3460526044385797    0.3919475088750143    0.4186968341156215    
  0.4211652950735895    0.4030428776188732    0.37286061285259625    0.33890273018191663    0.30668045278290346    
  0.278950737346441    0.2566126006836442    0.2394991229498732    0.22697393452927217    0.21839218345029138    
  0.21334802071688838    0.21167799495528788    0.21334802071688838    0.21839218345029138    0.2269739345292722    
  0.2394991229498732    0.2566126006836443    0.278950737346441    0.30668045278290346    0.33890273018191663    
  0.37286061285259625    0.4030428776188732    0.4211652950735895    0.4186968341156215    0.3919475088750143    
  0.3460526044385797    0.2934470430174263    0.24757379074021257    0.21750803442772645    0.20718724927921636    
  0.29076003016598073    0.29926168754094856    0.3230995612055296    0.3569592545600851    0.39194750887501423    
  0.4178172211691743    0.4271806163684184    0.41873664595661314    0.3968220975220748    0.36808719115604976    
  0.33831560991582843    0.3111547413806481    0.28832826933572475    0.270259570988055    0.2566126050211759    
  0.24674158103297014    0.24004544848237494    0.23614127172366822    0.23485486739816153    0.2361412717236681    
  0.24004544848237494    0.24674158103297003    0.2566126050211759    0.27025957098805503    0.2883282693357248    
  0.311154741380648    0.33831560991582843    0.36808719115604976    0.3968220975220748    0.41873664595661314    
  0.4271806163684184    0.4178172211691743    0.3919475088750143    0.3569592545600851    0.3230995612055296    
  0.29926168754094856    0.29076003016598073    0.3628348310684493    0.36822838926815626    0.3827697850562123    
  0.40179366469342165    0.4186968341156215    0.4271806163684183    0.42383184212083175    0.4093261349313292    
  0.38740935699519846    0.3626749588276567    0.33881069628438265    0.3180133055967168    0.3011831665368249    
  0.28832827735135047    0.27895075021262805    0.2723914486400725    0.26807943188241296    0.26563060244511233    
  0.26483623876779455    0.26563060244511233    0.26807943188241296    0.2723914486400725    0.27895075021262805    
  0.28832827735135047    0.3011831665368249    0.3180133055967168    0.33881069628438265    0.3626749588276567    
  0.38740935699519846    0.4093261349313292    0.42383184212083175    0.4271806163684183    0.4186968341156215    
  0.4017936646934217    0.3827697850562123    0.36822838926815626    0.3628348310684493    0.4029163847913531    
  0.4052292993210785    0.41109314551940057    0.41762676689755834    0.4211652950735895    0.4187366459566132    
  0.4093261349313293    0.39417162075912904    0.3759583736241537    0.35756859808004643    0.34116698642337684    
  0.32789876941096857    0.318013317229083    0.3111547611132931    0.3066804775872464    0.30392692881031863    
  0.3023548224689243    0.3015760956694739    0.3013454815313997    0.30157609566947385    0.3023548224689243    
  0.30392692881031863    0.3066804775872464    0.3111547611132931    0.318013317229083    0.32789876941096857    
  0.34116698642337684    0.35756859808004643    0.3759583736241537    0.39417162075912904    0.4093261349313293    
  0.4187366459566132    0.4211652950735895    0.4176267668975584    0.4110931455194005    0.40522929932107854    
  0.4029163847913531    0.40568040180922826    0.40599743338887684    0.4064885367804484    0.4059657432511137    
  0.4030428776188732    0.39682209752207487    0.3874093569951986    0.3759583736241536    0.36422108223935046    
  0.3538908904636619    0.34608866287603945    0.34116700093935665    0.3388107218084396    0.3383156428988398    
  0.33890276750912185    0.3399347316003011    0.3409714681885896    0.34171996500806245    0.34199240755153204    
  0.34171996500806245    0.3409714681885896    0.339934731600301    0.33890276750912185    0.33831564289883975    
  0.3388107218084396    0.34116700093935665    0.34608866287603945    0.35389089046366196    0.36422108223935046    
  0.3759583736241536    0.3874093569951986    0.3968220975220749    0.4030428776188732    0.40596574325111373    
  0.4064885367804484    0.40599743338887684    0.40568040180922826    0.3805603513833286    0.3801535439864623    
  0.37885592596662915    0.376478625743435    0.37286061285259625    0.3680871911560498    0.3626749588276568    
  0.35756859808004643    0.35389089046366196    0.3525492139661106    0.3538909067127162    0.35756862765154956    
  0.3626749978602919    0.3680872362649845    0.3728606609673898    0.37647867401180035    0.37885597261220916    
  0.380153588891575    0.38056039559439614    0.38015358889157497    0.37885597261220916    0.3764786740118003    
  0.3728606609673898    0.3680872362649845    0.3626749978602919    0.35756862765154956    0.3538909067127162    
  0.3525492139661106    0.3538908904636619    0.35756859808004643    0.3626749588276568    0.36808719115604976    
  0.37286061285259625    0.37647862574343505    0.37885592596662915    0.3801535439864623    0.3805603513833286    
  0.3419923709205348    0.34171992781489874    0.3409714298161783    0.33993469272650745    0.3389027301819166    
  0.3383156099158284    0.33881069628438265    0.3411669864233768    0.34608866287603934    0.3538909067127162    
  0.3642211133871784    0.3759584161735217    0.3874094073431561    0.3968221526207844    0.4030429343529731    
  0.40596579865635435    0.40648858933332255    0.4059974835082431    0.40568045103363404    0.4059974835082431    
  0.40648858933332255    0.40596579865635435    0.4030429343529731    0.3968221526207844    0.3874094073431561    
  0.37595841617352177    0.3642211133871784    0.3538909067127162    0.34608866287603934    0.3411669864233768    
  0.33881069628438265    0.3383156099158284    0.3389027301819166    0.3399346927265075    0.3409714298161783    
  0.3417199278148988    0.3419923709205348    0.30134545504654553    0.3015760687027292    0.30235479475089905    
  0.3039269014812542    0.3066804527829035    0.3111547413806481    0.31801330559671687    0.3278987694109686    
  0.34116700093935665    0.3575686276515495    0.37595841617352177    0.39417167311522056    0.40932619412378657    
  0.418736708944222    0.4211653583564381    0.417626827603194    0.41109320280982004    0.40522935421536566    
  0.40291643889687284    0.4052293542153656    0.41109320280982004    0.417626827603194    0.42116535835643804    
  0.418736708944222    0.40932619412378657    0.39417167311522056    0.37595841617352177    0.3575686276515495    
  0.34116700093935665    0.3278987694109686    0.31801330559671687    0.3111547413806481    0.3066804527829035    
  0.30392690148125423    0.30235479475089905    0.3015760687027292    0.30134545504654553    0.26483622406014923    
  0.2656305872366807    0.2680794159761531    0.2723914332688376    0.27895073734644094    0.28832826933572475    
  0.301183166536825    0.3180133172290829    0.3388107218084395    0.36267499786029184    0.38740940734315604    
  0.40932619412378657    0.42383190755011907    0.4271806847641649    0.41869690242605273    0.40179373179444444    
  0.38276985180388046    0.36822845668180554    0.36283489894735593    0.36822845668180554    0.38276985180388046    
  0.4017937317944444    0.41869690242605273    0.4271806847641649    0.42383190755011907    0.4093261941237866    
  0.38740940734315604    0.36267499786029184    0.3388107218084395    0.3180133172290829    0.3011831665368249    
  0.28832826933572475    0.27895073734644094    0.27239143326883763    0.2680794159761531    0.26563058723668065    
  0.26483622406014923    0.23485486282073745    0.23614126655706325    0.24004544233978048    0.24674157490141846    
  0.2566126006836443    0.27025957098805503    0.28832827735135047    0.311154761113293    0.3383156428988397    
  0.3680872362649845    0.39682215262078446    0.418736708944222    0.427180684764165    0.4178172927297964    
  0.3919475836455306    0.35695933491707804    0.3230996489157587    0.29926178139694165    0.29076012636526016    
  0.29926178139694165    0.3230996489157587    0.356959334917078    0.3919475836455306    0.4178172927297964    
  0.4271806847641649    0.418736708944222    0.39682215262078446    0.3680872362649845    0.3383156428988397    
  0.311154761113293    0.28832827735135047    0.2702595709880551    0.2566126006836443    0.24674157490141851    
  0.24004544233978048    0.23614126655706325    0.23485486282073745    0.21167799567604217    0.2133480208762823    
  0.21839218254496232    0.22697393322155954    0.2394991229498731    0.2566126050211759    0.27895075021262805    
  0.3066804775872463    0.3389027675091218    0.3728606609673898    0.4030429343529731    0.4211653583564381    
  0.4186969024260528    0.3919475836455306    0.346052690564619    0.29344714403241856    0.24757390444123717    
  0.21750815497980147    0.20718737169670834    0.21750815497980153    0.24757390444123717    0.29344714403241856    
  0.346052690564619    0.3919475836455306    0.4186969024260528    0.4211653583564381    0.4030429343529731    
  0.3728606609673898    0.3389027675091218    0.3066804775872463    0.27895075021262805    0.2566126050211759    
  0.2394991229498731    0.2269739332215596    0.21839218254496232    0.2133480208762823    0.21167799567604217    
  0.1946532337610719    0.19660116298480304    0.20247673910681044    0.21245213162958201    0.2269739345292723    
  0.24674158103297017    0.2723914486400724    0.3039269288103186    0.339934731600301    0.37647867401180024    
  0.40596579865635435    0.417626827603194    0.4017937317944444    0.35695933491707804    0.2934471440324185    
  0.2285399579906843    0.17693248062039763    0.14547059271430995    0.13510913166826638    0.14547059271430995    
  0.17693248062039763    0.22853995799068427    0.2934471440324185    0.35695933491707793    0.4017937317944444    
  0.417626827603194    0.40596579865635435    0.37647867401180024    0.339934731600301    0.30392692881031863    
  0.2723914486400724    0.24674158103297014    0.2269739345292723    0.21245213162958201    0.20247673910681044    
  0.19660116298480304    0.1946532337610719    0.1829731799538761    0.18510774121267004    0.19154567679824355    
  0.20247673872615632    0.21839218345029138    0.24004544848237494    0.26807943188241296    0.3023548224689243    
  0.3409714681885896    0.37885597261220916    0.40648858933332255    0.41109320280982004    0.3827698518038805    
  0.3230996489157587    0.24757390444123717    0.1769324806203976    0.12519704548228214    0.09579709608146665    
  0.0865168211451604    0.09579709608146668    0.12519704548228214    0.17693248062039751    0.24757390444123717    
  0.32309964891575865    0.3827698518038805    0.41109320280982004    0.40648858933332255    0.37885597261220916    
  0.3409714681885896    0.3023548224689243    0.268079431882413    0.24004544848237494    0.21839218345029138    
  0.20247673872615637    0.19154567679824355    0.18510774121267004    0.1829731799538761    0.17609998946275696    
  0.1783425217800595    0.18510774075582118    0.19660116184547283    0.21334802071688835    0.2361412717236683    
  0.26563060244511233    0.30157609566947385    0.3417199650080624    0.3801535888915749    0.4059974835082431    
  0.40522935421536554    0.36822845668180554    0.2992617813969416    0.21750815497980147    0.14547059271431004    
  0.09579709608146668    0.06907209429203535    0.060921895240645126    0.06907209429203535    0.09579709608146668    
  0.14547059271430995    0.21750815497980153    0.29926178139694154    0.36822845668180554    0.40522935421536554    
  0.4059974835082431    0.3801535888915749    0.3417199650080624    0.3015760956694739    0.26563060244511233    
  0.23614127172366828    0.21334802071688835    0.19660116184547297    0.18510774075582118    0.1783425217800595    
  0.17609998946275696    0.17382195534056513    0.17609998939261573    0.18297317935164148    0.194653232265678    
  0.2116779949552878    0.23485486739816153    0.2648362387677946    0.30134548153139956    0.34199240755153204    
  0.38056039559439603    0.40568045103363404    0.4029164388968728    0.362834898947356    0.2907601263652601    
  0.20718737169670837    0.13510913166826635    0.08651682114516035    0.060921895240645126    0.0532224344677967    
  0.06092189524064513    0.08651682114516036    0.13510913166826624    0.20718737169670837    0.2907601263652601    
  0.362834898947356    0.4029164388968728    0.40568045103363404    0.38056039559439603    0.34199240755153204    
  0.3013454815313996    0.2648362387677946    0.23485486739816153    0.2116779949552878    0.19465323226567804    
  0.18297317935164148    0.1760999893926157    0.17382195534056513    0.1760999894627569    0.17834252178005947    
  0.18510774075582118    0.1966011618454729    0.21334802071688835    0.23614127172366822    0.26563060244511233    
  0.3015760956694738    0.3417199650080624    0.3801535888915749    0.4059974835082431    0.40522935421536554    
  0.36822845668180554    0.29926178139694165    0.21750815497980147    0.14547059271430998    0.09579709608146665    
  0.06907209429203535    0.06092189524064511    0.06907209429203535    0.09579709608146665    0.14547059271430995    
  0.21750815497980147    0.29926178139694154    0.36822845668180554    0.40522935421536554    0.4059974835082431    
  0.3801535888915749    0.3417199650080624    0.30157609566947385    0.26563060244511233    0.23614127172366828    
  0.21334802071688835    0.19660116184547297    0.18510774075582118    0.17834252178005947    0.1760999894627569    
  0.1829731799538761    0.18510774121267004    0.19154567679824355    0.20247673872615632    0.21839218345029138    
  0.240045448482375    0.268079431882413    0.3023548224689243    0.3409714681885896    0.37885597261220916    
  0.40648858933332255    0.41109320280982004    0.3827698518038805    0.3230996489157587    0.24757390444123717    
  0.1769324806203976    0.1251970454822821    0.09579709608146665    0.0865168211451604    0.09579709608146668    
  0.12519704548228214    0.17693248062039751    0.24757390444123717    0.32309964891575865    0.3827698518038805    
  0.41109320280982004    0.40648858933332255    0.37885597261220916    0.3409714681885896    0.3023548224689243    
  0.26807943188241296    0.24004544848237494    0.21839218345029138    0.20247673872615637    0.19154567679824355    
  0.18510774121267004    0.1829731799538761    0.19465323376107196    0.19660116298480299    0.20247673910681044    
  0.21245213162958201    0.22697393452927225    0.24674158103297014    0.2723914486400725    0.30392692881031863    
  0.339934731600301    0.3764786740118003    0.40596579865635446    0.417626827603194    0.4017937317944444    
  0.356959334917078    0.29344714403241856    0.22853995799068427    0.1769324806203976    0.14547059271430998    
  0.13510913166826638    0.14547059271431007    0.1769324806203976    0.22853995799068416    0.2934471440324185    
  0.35695933491707793    0.4017937317944444    0.417626827603194    0.40596579865635446    0.3764786740118003    
  0.339934731600301    0.30392692881031863    0.2723914486400725    0.24674158103297014    0.22697393452927225    
  0.21245213162958201    0.20247673910681044    0.19660116298480299    0.19465323376107196    0.21167799567604217    
  0.2133480208762823    0.21839218254496232    0.22697393322155954    0.2394991229498731    0.2566126050211759    
  0.27895075021262805    0.3066804775872463    0.3389027675091218    0.3728606609673898    0.4030429343529731    
  0.4211653583564381    0.4186969024260528    0.3919475836455306    0.346052690564619    0.29344714403241856    
  0.24757390444123717    0.21750815497980147    0.20718737169670834    0.21750815497980153    0.24757390444123717    
  0.29344714403241856    0.346052690564619    0.3919475836455306    0.4186969024260528    0.4211653583564381    
  0.4030429343529731    0.3728606609673898    0.3389027675091218    0.3066804775872463    0.27895075021262805    
  0.2566126050211759    0.2394991229498731    0.2269739332215596    0.21839218254496232    0.2133480208762823    
  0.21167799567604217    0.23485486282073745    0.23614126655706325    0.24004544233978042    0.2467415749014184    
  0.25661260068364433    0.2702595709880551    0.28832827735135047    0.311154761113293    0.3383156428988397    
  0.3680872362649845    0.3968221526207845    0.418736708944222    0.4271806847641649    0.41781729272979634    
  0.39194758364553056    0.35695933491707804    0.32309964891575865    0.29926178139694154    0.29076012636526016    
  0.29926178139694154    0.32309964891575865    0.356959334917078    0.39194758364553056    0.4178172927297964    
  0.4271806847641649    0.418736708944222    0.3968221526207845    0.3680872362649845    0.3383156428988397    
  0.311154761113293    0.28832827735135047    0.2702595709880551    0.25661260068364433    0.24674157490141851    
  0.24004544233978042    0.23614126655706325    0.23485486282073745    0.26483622406014923    0.2656305872366807    
  0.2680794159761531    0.2723914332688376    0.27895073734644094    0.28832826933572475    0.3011831665368249    
  0.3180133172290829    0.3388107218084395    0.36267499786029184    0.38740940734315604    0.40932619412378657    
  0.42383190755011907    0.4271806847641649    0.41869690242605273    0.40179373179444444    0.38276985180388046    
  0.36822845668180554    0.36283489894735593    0.36822845668180554    0.38276985180388046    0.4017937317944444    
  0.41869690242605273    0.4271806847641649    0.42383190755011907    0.4093261941237866    0.38740940734315604    
  0.36267499786029184    0.3388107218084395    0.3180133172290829    0.301183166536825    0.28832826933572475    
  0.27895073734644094    0.27239143326883763    0.2680794159761531    0.26563058723668065    0.26483622406014923    
  0.30134545504654553    0.3015760687027292    0.302354794750899    0.3039269014812542    0.30668045278290346    
  0.3111547413806481    0.3180133055967168    0.3278987694109685    0.3411670009393567    0.3575686276515495    
  0.37595841617352177    0.39417167311522056    0.40932619412378657    0.418736708944222    0.4211653583564381    
  0.417626827603194    0.41109320280982004    0.4052293542153656    0.4029164388968728    0.4052293542153656    
  0.41109320280982004    0.4176268276031939    0.4211653583564381    0.418736708944222    0.40932619412378657    
  0.39417167311522056    0.37595841617352177    0.3575686276515495    0.3411670009393567    0.3278987694109685    
  0.3180133055967168    0.3111547413806481    0.30668045278290346    0.3039269014812542    0.302354794750899    
  0.3015760687027292    0.30134545504654553    0.3419923709205348    0.34171992781489874    0.3409714298161783    
  0.33993469272650745    0.3389027301819166    0.3383156099158284    0.33881069628438265    0.3411669864233768    
  0.34608866287603934    0.3538909067127162    0.3642211133871784    0.3759584161735217    0.3874094073431561    
  0.3968221526207844    0.4030429343529731    0.40596579865635435    0.40648858933332255    0.4059974835082431    
  0.40568045103363404    0.4059974835082431    0.40648858933332255    0.40596579865635435    0.4030429343529731    
  0.3968221526207844    0.3874094073431561    0.37595841617352177    0.3642211133871784    0.3538909067127162    
  0.34608866287603934    0.3411669864233768    0.33881069628438265    0.3383156099158284    0.3389027301819166    
  0.3399346927265075    0.3409714298161783    0.34171992781489874    0.3419923709205348    0.3805603513833286    
  0.3801535439864623    0.37885592596662915    0.376478625743435    0.37286061285259625    0.3680871911560498    
  0.3626749588276568    0.35756859808004643    0.3538908904636619    0.3525492139661106    0.3538909067127162    
  0.35756862765154956    0.3626749978602919    0.3680872362649845    0.3728606609673898    0.37647867401180035    
  0.37885597261220916    0.380153588891575    0.38056039559439614    0.380153588891575    0.37885597261220916    
  0.3764786740118003    0.37286066096738985    0.3680872362649845    0.3626749978602919    0.35756862765154956    
  0.3538909067127162    0.3525492139661106    0.3538908904636619    0.35756859808004643    0.3626749588276568    
  0.36808719115604976    0.37286061285259625    0.37647862574343505    0.37885592596662915    0.3801535439864623    
  0.3805603513833286    0.40568040180922826    0.40599743338887684    0.4064885367804484    0.4059657432511137    
  0.4030428776188732    0.39682209752207487    0.3874093569951986    0.3759583736241536    0.36422108223935046    
  0.3538908904636619    0.34608866287603945    0.34116700093935665    0.3388107218084396    0.3383156428988398    
  0.33890276750912185    0.3399347316003011    0.3409714681885896    0.34171996500806245    0.34199240755153204    
  0.34171996500806245    0.3409714681885896    0.339934731600301    0.33890276750912185    0.33831564289883975    
  0.3388107218084396    0.34116700093935665    0.34608866287603945    0.35389089046366196    0.36422108223935046    
  0.3759583736241536    0.3874093569951986    0.3968220975220749    0.4030428776188732    0.40596574325111373    
  0.4064885367804484    0.40599743338887684    0.40568040180922826    0.4029163847913531    0.4052292993210785    
  0.4110931455194005    0.4176267668975583    0.4211652950735896    0.41873664595661325    0.40932613493132936    
  0.39417162075912904    0.3759583736241536    0.35756859808004643    0.34116698642337684    0.32789876941096857    
  0.318013317229083    0.3111547611132931    0.3066804775872463    0.3039269288103187    0.3023548224689243    
  0.3015760956694739    0.3013454815313997    0.30157609566947385    0.3023548224689243    0.30392692881031863    
  0.3066804775872463    0.3111547611132931    0.318013317229083    0.32789876941096857    0.34116698642337684    
  0.35756859808004643    0.3759583736241536    0.39417162075912904    0.40932613493132936    0.4187366459566132    
  0.4211652950735896    0.4176267668975584    0.4110931455194005    0.40522929932107854    0.4029163847913531    
  0.3628348310684493    0.36822838926815626    0.3827697850562123    0.40179366469342165    0.4186968341156215    
  0.4271806163684183    0.42383184212083175    0.4093261349313292    0.38740935699519846    0.3626749588276567    
  0.33881069628438265    0.3180133055967168    0.3011831665368249    0.28832827735135047    0.27895075021262805    
  0.2723914486400725    0.26807943188241296    0.26563060244511233    0.26483623876779455    0.26563060244511233    
  0.26807943188241296    0.2723914486400725    0.27895075021262805    0.28832827735135047    0.3011831665368249    
  0.3180133055967168    0.33881069628438265    0.3626749588276567    0.38740935699519846    0.40932613493132913    
  0.42383184212083175    0.4271806163684183    0.4186968341156215    0.4017936646934217    0.3827697850562123    
  0.36822838926815626    0.3628348310684493    0.29076003016598073    0.2992616875409485    0.32309956120552963    
  0.3569592545600851    0.39194750887501423    0.4178172211691742    0.4271806163684184    0.41873664595661314    
  0.3968220975220748    0.36808719115604976    0.33831560991582843    0.3111547413806481    0.2883282693357248    
  0.27025957098805503    0.2566126050211759    0.24674158103297017    0.24004544848237502    0.2361412717236683    
  0.23485486739816153    0.23614127172366828    0.24004544848237502    0.24674158103297014    0.2566126050211759    
  0.27025957098805503    0.2883282693357248    0.311154741380648    0.33831560991582843    0.36808719115604976    
  0.3968220975220748    0.41873664595661314    0.4271806163684184    0.4178172211691742    0.39194750887501423    
  0.3569592545600851    0.32309956120552963    0.2992616875409485    0.29076003016598073    0.20718724927921636    
  0.2175080344277265    0.24757379074021257    0.2934470430174263    0.3460526044385797    0.3919475088750143    
  0.4186968341156215    0.4211652950735895    0.4030428776188732    0.37286061285259625    0.33890273018191663    
  0.30668045278290346    0.278950737346441    0.2566126006836442    0.2394991229498732    0.22697393452927217    
  0.21839218345029138    0.21334802071688838    0.21167799495528788    0.21334802071688838    0.21839218345029138    
  0.2269739345292722    0.2394991229498732    0.2566126006836443    0.278950737346441    0.30668045278290346    
  0.33890273018191663    0.37286061285259625    0.4030428776188732    0.4211652950735895    0.4186968341156215    
  0.3919475088750143    0.3460526044385797    0.2934470430174263    0.24757379074021257    0.21750803442772645    
  0.20718724927921636    0.13510901319852908    0.14547047116828085    0.17693235535037113    0.2285398387604103    
  0.29344704301742636    0.3569592545600851    0.4017936646934217    0.41762676689755834    0.40596574325111356    
  0.37647862574343494    0.33993469272650745    0.3039269014812542    0.2723914332688377    0.24674157490141851    
  0.22697393322155945    0.21245213162958207    0.20247673872615632    0.19660116184547288    0.19465323226567804    
  0.19660116184547288    0.20247673872615632    0.21245213162958207    0.22697393322155945    0.24674157490141846    
  0.27239143326883775    0.3039269014812541    0.33993469272650745    0.37647862574343494    0.40596574325111356    
  0.41762676689755834    0.4017936646934217    0.3569592545600851    0.29344704301742636    0.22853983876041042    
  0.17693235535037113    0.1454704711682808    0.13510901319852908    0.08651673990422727    0.0957970045009282    
  0.12519693215582453    0.1769323553503711    0.24757379074021252    0.3230995612055295    0.3827697850562124    
  0.41109314551940046    0.4064885367804484    0.378855925966629    0.3409714298161783    0.30235479475089894    