#     DFTpy    
  CRYSTAL 
    
  PRIMVEC    
  3.0762413793103405    0.0    0.0    
  0.0    3.0762413793103405    0.0    
  0.0    0.0    3.0762413793103405    
  PRIMCOORD    
  4    1    
  Si    0.0    0.0    0.0    
  Si    0.0    1.5381206896551702    1.5381206896551702    
  Si    1.5381206896551702    0.0    1.5381206896551702    
  Si    1.5381206896551702    1.5381206896551702    0.0    
  BEGIN_BLOCK_DATAGRID_3D    
  3d_datagrid_density    
  BEGIN_DATAGRID_3D#0    
  31    31    31    
  0.0    0.0    0.0    
  3.0762413907847797    0.0    0.0    
  0.0    3.0762413907847797    0.0    
  0.0    0.0    3.0762413907847797    
  0.04769416858273153    0.05595453657202652    0.08423399315849604    0.1405827176950105    0.22928219011610282    
  0.3399380954053397    0.4462871094323888    0.5210512842145927    0.5531040734638547    0.5498741168437027    
  0.5267927645445055    0.4971934552014506    0.4692413057780224    0.4472496253273157    0.4334066324563795    
  0.42870264396335395    0.4334066324563795    0.4472496253273159    0.4692413057780224    0.4971934552014506    
  0.5267927645445055    0.5498741168437026    0.5531040734638547    0.5210512842145927    0.4462871094323888    
  0.33993809540533965    0.2292821901161029    0.14058271769501063    0.084233993158496    0.05595453657202652    
  0.04769416858273153    0.05595453657202666    0.06485448899741453    0.09485344510793971    0.1532514331756179    
  0.24303087968369835    0.35274517757917445    0.4563462750309479    0.5279245758347478    0.5576573306148563    
  0.553358381628318    0.5301195482622291    0.5007958633248437    0.4732402883762601    0.45161292992731067    
  0.43802129550725216    0.43340696080353874    0.4380212955072523    0.45161292992731084    0.4732402883762601    
  0.5007958633248437    0.5301195482622292    0.553358381628318    0.5576573306148563    0.5279245758347478    
  0.4563462750309479    0.35274517757917445    0.24303087968369835    0.1532514331756179    0.09485344510793961    
  0.06485448899741449    0.05595453657202666    0.0842339931584961    0.09485344510793951    0.12930288757151387    
  0.19252201749645226    0.28389587233324104    0.38952147444760277    0.484502550520918    0.546903523421756    
  0.5703040711922797    0.5632907113965737    0.5398421138141652    0.5114375258149174    0.48507001942822686    
  0.4644942621934278    0.45161392087834196    0.44725094487852946    0.45161392087834196    0.46449426219342804    
  0.48507001942822675    0.5114375258149174    0.539842113814165    0.5632907113965737    0.5703040711922797    
  0.546903523421756    0.484502550520918    0.38952147444760266    0.28389587233324104    0.1925220174964524    
  0.12930288757151379    0.09485344510793957    0.0842339931584961    0.1405827176950105    0.15325143317561776    
  0.19252201749645226    0.25951621593906266    0.34887546427378335    0.4446082167372414    0.5248189187848101    
  0.5734761392650789    0.5883015548563424    0.5781848354087906    0.5550965376434955    0.5284486526534148    
  0.5040305223027389    0.4850716763494477    0.4732429374386396    0.46924428423022585    0.4732429374386396    
  0.48507167634944787    0.5040305223027389    0.5284486526534149    0.5550965376434955    0.5781848354087906    
  0.5883015548563424    0.5734761392650789    0.5248189187848101    0.44460821673724127    0.3488754642737834    
  0.2595162159390628    0.19252201749645226    0.15325143317561776    0.1405827176950105    0.2292821901161029    
  0.24303087968369816    0.2838958723332411    0.34887546427378335    0.4287472677574727    0.5075676459309924    
  0.5683904506490272    0.6015332949000789    0.6079948362019425    0.595834613853896    0.5742657341457776    
  0.5503042715164423    0.5284509488823415    0.5114414780413783    0.5008008081051317    0.49719872986543195    
  0.5008008081051317    0.5114414780413786    0.5284509488823415    0.5503042715164423    0.5742657341457776    
  0.5958346138538959    0.6079948362019425    0.6015332949000789    0.5683904506490272    0.5075676459309922    
  0.4287472677574727    0.34887546427378346    0.28389587233324104    0.24303087968369827    0.2292821901161029    
  0.3399380954053397    0.35274517757917445    0.3895214744476028    0.4446082167372415    0.5075676459309924    
  0.565070579638106    0.6058587648981547    0.6253184900638008    0.6258913803290334    0.6136994955678748    
  0.5949225709521673    0.5742685928867115    0.5551016799417139    0.5398488971501256    0.5301273129485006    
  0.5268008550555988    0.5301273129485006    0.5398488971501259    0.5551016799417139    0.5742685928867116    
  0.5949225709521673    0.6136994955678747    0.6258913803290334    0.6253184900638008    0.6058587648981547    
  0.5650705796381059    0.5075676459309924    0.44460821673724155    0.3895214744476027    0.35274517757917445    
  0.3399380954053397    0.4462871094323888    0.4563462750309478    0.48450255052091784    0.5248189187848101    
  0.5683904506490272    0.6058587648981547    0.6307206154969092    0.6412145692208734    0.6394836431852473    
  0.6291834862871858    0.6137027852222312    0.5958407222409263    0.5781931637107569    0.5633006101622515    
  0.5533692062043437    0.5498852461609557    0.5533692062043437    0.5633006101622517    0.5781931637107569    
  0.5958407222409262    0.6137027852222312    0.6291834862871857    0.6394836431852473    0.6412145692208734    
  0.6307206154969092    0.6058587648981546    0.5683904506490272    0.5248189187848102    0.48450255052091784    
  0.4563462750309478    0.4462871094323888    0.5210512842145927    0.5279245758347478    0.5469035234217561    
  0.5734761392650789    0.6015332949000789    0.6253184900638008    0.6412145692208735    0.6482779593359319    
  0.6473053724260824    0.63948719542787    0.6258981427417232    0.608004266504362    0.5883129997945348    
  0.5703168703949361    0.5576708896845881    0.5531178749404098    0.5576708896845882    0.5703168703949363    
  0.5883129997945348    0.6080042665043621    0.6258981427417232    0.6394871954278699    0.6473053724260824    
  0.648277959335932    0.6412145692208735    0.6253184900638007    0.6015332949000789    0.5734761392650789    
  0.546903523421756    0.5279245758347478    0.5210512842145927    0.5531040734638547    0.5576573306148562    
  0.5703040711922798    0.5883015548563425    0.6079948362019424    0.6258913803290334    0.6394836431852473    
  0.6473053724260822    0.6482815981727418    0.6412216496659395    0.6253285362955981    0.6015456226559291    
  0.5734899986055221    0.5469182586858269    0.5279397193728355    0.5210665410481694    0.5279397193728355    
  0.546918258685827    0.5734899986055221    0.6015456226559291    0.6253285362955981    0.6412216496659395    
  0.6482815981727418    0.6473053724260822    0.6394836431852473    0.6258913803290332    0.6079948362019425    
  0.5883015548563425    0.5703040711922797    0.5576573306148561    0.5531040734638547    0.5498741168437027    
  0.553358381628318    0.5632907113965737    0.5781848354087906    0.5958346138538959    0.6136994955678747    
  0.6291834862871858    0.6394871954278699    0.6412216496659395    0.6307308518517111    0.6058714469057342    
  0.5684046711426038    0.524833819101941    0.48451754517836393    0.456361136329351    0.4463018915138797    
  0.456361136329351    0.4845175451783641    0.524833819101941    0.5684046711426038    0.6058714469057342    
  0.630730851851711    0.6412216496659395    0.6394871954278699    0.6291834862871858    0.6136994955678746    
  0.5958346138538959    0.5781848354087906    0.5632907113965736    0.553358381628318    0.5498741168437027    
  0.5267927645445055    0.530119548262229    0.5398421138141652    0.5550965376434955    0.5742657341457776    
  0.5949225709521673    0.6137027852222313    0.6258981427417231    0.6253285362955984    0.6058714469057345    
  0.5650848564910927    0.5075823630555525    0.4446224790187488    0.38953489041993866    0.35275786191146363    
  0.3399504983809795    0.3527578619114637    0.38953489041993883    0.4446224790187488    0.5075823630555525    
  0.5650848564910927    0.6058714469057344    0.6253285362955983    0.625898142741723    0.6137027852222313    
  0.5949225709521672    0.5742657341457776    0.5550965376434955    0.5398421138141652    0.530119548262229    
  0.5267927645445055    0.4971934552014507    0.5007958633248437    0.5114375258149175    0.5284486526534149    
  0.5503042715164423    0.5742685928867115    0.5958407222409263    0.608004266504362    0.6015456226559294    
  0.5684046711426038    0.5075823630555527    0.428761162033816    0.34888776245087627    0.2839065101313983    
  0.243040339024312    0.2292912313650615    0.243040339024312    0.28390651013139845    0.34888776245087627    
  0.428761162033816    0.5075823630555527    0.5684046711426038    0.6015456226559293    0.608004266504362    
  0.5958407222409263    0.5742685928867114    0.5503042715164423    0.528448652653415    0.5114375258149173    
  0.5007958633248436    0.4971934552014507    0.4692413057780224    0.47324028837626    0.48507001942822675    
  0.5040305223027389    0.5284509488823415    0.5551016799417139    0.5781931637107569    0.5883129997945347    
  0.5734899986055222    0.5248338191019412    0.4446224790187488    0.34888776245087627    0.25952605962853537    
  0.19252972971697868    0.15325778817044125    0.14058861729708103    0.15325778817044125    0.19252972971697885    
  0.25952605962853537    0.34888776245087616    0.4446224790187488    0.524833819101941    0.5734899986055223    
  0.5883129997945347    0.5781931637107569    0.5551016799417137    0.5284509488823415    0.5040305223027389    
  0.48507001942822675    0.47324028837625987    0.4692413057780224    0.4472496253273159    0.45161292992731084    
  0.46449426219342804    0.4850716763494478    0.5114414780413786    0.5398488971501256    0.5633006101622517    
  0.5703168703949361    0.5469182586858269    0.4845175451783641    0.38953489041993883    0.2839065101313983    
  0.19252972971697885    0.12930833365908617    0.09485756687801312    0.08423769194160892    0.09485756687801312    
  0.12930833365908637    0.19252972971697885    0.28390651013139834    0.3895348904199388    0.48451754517836393    
  0.5469182586858269    0.5703168703949362    0.5633006101622517    0.5398488971501255    0.5114414780413785    
  0.4850716763494478    0.4644942621934278    0.45161292992731067    0.4472496253273159    0.4334066324563796    
  0.43802129550725216    0.45161392087834196    0.47324293743863943    0.5008008081051317    0.5301273129485007    
  0.5533692062043437    0.5576708896845882    0.5279397193728357    0.45636113632935105    0.3527578619114635    
  0.24304033902431205    0.15325778817044125    0.09485756687801312    0.06485738445845546    0.055957055037092425    
  0.0648573844584555    0.09485756687801326    0.15325778817044128    0.24304033902431219    0.3527578619114635    
  0.456361136329351    0.5279397193728356    0.5576708896845882    0.5533692062043437    0.5301273129485006    
  0.5008008081051317    0.4732429374386395    0.45161392087834207    0.43802129550725205    0.4334066324563796    
  0.42870264396335384    0.43340696080353863    0.44725094487852946    0.46924428423022585    0.49719872986543195    
  0.5268008550555987    0.5498852461609558    0.5531178749404099    0.5210665410481695    0.44630189151387983    
  0.3399504983809794    0.22929123136506133    0.14058861729708103    0.08423769194160872    0.05595705503709228    
  0.047696329599186245    0.05595705503709228    0.08423769194160886    0.14058861729708103    0.2292912313650614    
  0.3399504983809794    0.4463018915138797    0.5210665410481694    0.5531178749404099    0.5498852461609558    
  0.5268008550555986    0.49719872986543184    0.4692442842302259    0.44725094487852946    0.43340696080353863    
  0.42870264396335384    0.43340663245637945    0.4380212955072523    0.4516139208783422    0.4732429374386396    
  0.5008008081051317    0.5301273129485007    0.5533692062043437    0.5576708896845882    0.5279397193728357    
  0.45636113632935105    0.3527578619114636    0.24304033902431205    0.15325778817044125    0.09485756687801303    
  0.06485738445845536    0.05595705503709233    0.0648573844584554    0.09485756687801322    0.15325778817044125    
  0.24304033902431205    0.3527578619114636    0.456361136329351    0.5279397193728356    0.5576708896845882    
  0.5533692062043437    0.5301273129485006    0.5008008081051317    0.4732429374386396    0.45161392087834207    
  0.4380212955072523    0.43340663245637945    0.4472496253273159    0.4516129299273108    0.46449426219342793    
  0.4850716763494478    0.5114414780413786    0.5398488971501257    0.5633006101622519    0.5703168703949361    
  0.5469182586858269    0.4845175451783641    0.38953489041993883    0.2839065101313983    0.19252972971697876    
  0.12930833365908617    0.09485756687801312    0.08423769194160886    0.09485756687801312    0.12930833365908637    
  0.19252972971697876    0.28390651013139834    0.3895348904199388    0.48451754517836393    0.5469182586858268    
  0.5703168703949361    0.5633006101622519    0.5398488971501256    0.5114414780413786    0.485071676349448    
  0.4644942621934278    0.45161292992731067    0.4472496253273159    0.4692413057780224    0.47324028837626    
  0.48507001942822675    0.5040305223027389    0.5284509488823415    0.5551016799417139    0.5781931637107569    
  0.5883129997945347    0.5734899986055222    0.5248338191019412    0.4446224790187488    0.34888776245087627    
  0.25952605962853537    0.19252972971697868    0.15325778817044125    0.14058861729708103    0.15325778817044125    
  0.19252972971697885    0.25952605962853537    0.34888776245087616    0.4446224790187488    0.524833819101941    
  0.5734899986055223    0.5883129997945347    0.5781931637107569    0.5551016799417137    0.5284509488823415    
  0.5040305223027389    0.48507001942822675    0.47324028837625987    0.4692413057780224    0.4971934552014507    
  0.5007958633248438    0.5114375258149174    0.5284486526534149    0.5503042715164423    0.5742685928867114    
  0.5958407222409262    0.6080042665043619    0.6015456226559293    0.5684046711426038    0.5075823630555526    
  0.4287611620338161    0.3488877624508763    0.2839065101313982    0.243040339024312    0.22929123136506135    
  0.24304033902431194    0.2839065101313984    0.3488877624508763    0.4287611620338161    0.5075823630555526    
  0.5684046711426038    0.6015456226559293    0.6080042665043619    0.5958407222409262    0.5742685928867113    
  0.5503042715164423    0.528448652653415    0.5114375258149173    0.5007958633248436    0.4971934552014507    
  0.5267927645445055    0.5301195482622291    0.5398421138141651    0.5550965376434954    0.5742657341457776    
  0.5949225709521673    0.6137027852222313    0.6258981427417231    0.6253285362955984    0.6058714469057344    
  0.5650848564910926    0.5075823630555527    0.4446224790187488    0.3895348904199386    0.35275786191146363    
  0.3399504983809794    0.3527578619114636    0.3895348904199388    0.4446224790187488    0.5075823630555526    
  0.5650848564910926    0.6058714469057342    0.6253285362955983    0.6258981427417231    0.6137027852222313    
  0.5949225709521673    0.5742657341457776    0.5550965376434955    0.5398421138141652    0.530119548262229    
  0.5267927645445055    0.5498741168437027    0.553358381628318    0.5632907113965737    0.5781848354087905    
  0.5958346138538959    0.6136994955678747    0.6291834862871858    0.63948719542787    0.6412216496659394    
  0.630730851851711    0.6058714469057344    0.5684046711426038    0.524833819101941    0.4845175451783638    
  0.4563611363293509    0.4463018915138796    0.4563611363293509    0.4845175451783641    0.524833819101941    
  0.5684046711426038    0.6058714469057344    0.630730851851711    0.6412216496659395    0.63948719542787    
  0.6291834862871858    0.6136994955678746    0.5958346138538959    0.5781848354087906    0.5632907113965736    
  0.553358381628318    0.5498741168437027    0.5531040734638548    0.5576573306148562    0.5703040711922797    
  0.5883015548563425    0.6079948362019425    0.6258913803290332    0.6394836431852473    0.6473053724260822    
  0.6482815981727419    0.6412216496659395    0.6253285362955981    0.6015456226559291    0.5734899986055222    
  0.5469182586858268    0.5279397193728357    0.5210665410481694    0.5279397193728356    0.5469182586858269    
  0.5734899986055222    0.6015456226559291    0.6253285362955981    0.6412216496659395    0.6482815981727419    
  0.6473053724260822    0.6394836431852473    0.6258913803290331    0.6079948362019425    0.5883015548563425    
  0.5703040711922797    0.5576573306148562    0.5531040734638548    0.5210512842145927    0.5279245758347478    
  0.546903523421756    0.573476139265079    0.6015332949000789    0.6253184900638008    0.6412145692208736    
  0.6482779593359319    0.6473053724260822    0.63948719542787    0.6258981427417232    0.608004266504362    
  0.5883129997945347    0.5703168703949361    0.5576708896845882    0.5531178749404098    0.5576708896845882    
  0.5703168703949362    0.5883129997945347    0.608004266504362    0.6258981427417232    0.6394871954278699    
  0.6473053724260823    0.6482779593359319    0.6412145692208736    0.6253184900638007    0.6015332949000789    
  0.573476139265079    0.546903523421756    0.5279245758347478    0.5210512842145927    0.4462871094323888    
  0.4563462750309478    0.48450255052091784    0.5248189187848101    0.5683904506490272    0.6058587648981547    
  0.6307206154969092    0.6412145692208734    0.6394836431852473    0.6291834862871858    0.6137027852222312    
  0.5958407222409263    0.5781931637107569    0.5633006101622515    0.5533692062043437    0.5498852461609557    
  0.5533692062043437    0.5633006101622517    0.5781931637107569    0.5958407222409262    0.6137027852222312    
  0.6291834862871857    0.6394836431852473    0.6412145692208734    0.6307206154969092    0.6058587648981546    
  0.5683904506490272    0.5248189187848102    0.48450255052091784    0.4563462750309478    0.4462871094323888    
  0.3399380954053398    0.35274517757917445    0.3895214744476028    0.4446082167372414    0.5075676459309924    
  0.565070579638106    0.6058587648981547    0.6253184900638008    0.6258913803290334    0.6136994955678748    
  0.5949225709521673    0.5742685928867115    0.5551016799417139    0.5398488971501256    0.5301273129485007    
  0.5268008550555988    0.5301273129485007    0.5398488971501259    0.5551016799417139    0.5742685928867116    
  0.5949225709521673    0.6136994955678748    0.6258913803290334    0.6253184900638007    0.6058587648981547    
  0.5650705796381059    0.5075676459309924    0.4446082167372415    0.38952147444760266    0.3527451775791746    
  0.3399380954053398    0.2292821901161029    0.24303087968369816    0.2838958723332411    0.3488754642737833    
  0.4287472677574727    0.5075676459309924    0.5683904506490272    0.6015332949000789    0.6079948362019425    
  0.595834613853896    0.5742657341457776    0.5503042715164423    0.5284509488823415    0.5114414780413783    
  0.5008008081051316    0.49719872986543195    0.5008008081051316    0.5114414780413785    0.5284509488823415    
  0.5503042715164423    0.5742657341457776    0.595834613853896    0.6079948362019425    0.6015332949000789    
  0.5683904506490272    0.5075676459309922    0.42874726775747257    0.3488754642737835    0.28389587233324093    
  0.24303087968369816    0.2292821901161029    0.1405827176950105    0.1532514331756177    0.1925220174964522    
  0.2595162159390628    0.3488754642737833    0.44460821673724127    0.5248189187848101    0.5734761392650789    
  0.5883015548563424    0.5781848354087906    0.5550965376434955    0.5284486526534149    0.5040305223027389    
  0.4850716763494477    0.4732429374386395    0.46924428423022574    0.4732429374386395    0.48507167634944787    
  0.5040305223027389    0.528448652653415    0.5550965376434955    0.5781848354087905    0.5883015548563424    
  0.5734761392650789    0.5248189187848101    0.44460821673724116    0.3488754642737833    0.2595162159390629    
  0.19252201749645215    0.15325143317561776    0.1405827176950105    0.08423399315849604    0.09485344510793951    
  0.12930288757151387    0.19252201749645215    0.283895872333241    0.38952147444760277    0.484502550520918    
  0.546903523421756    0.5703040711922797    0.5632907113965737    0.5398421138141652    0.5114375258149173    
  0.48507001942822675    0.4644942621934278    0.45161392087834207    0.4472509448785295    0.45161392087834196    
  0.4644942621934281    0.48507001942822675    0.5114375258149174    0.5398421138141652    0.5632907113965737    
  0.5703040711922797    0.546903523421756    0.484502550520918    0.38952147444760266    0.28389587233324104    
  0.19252201749645234    0.12930288757151379    0.09485344510793957    0.08423399315849604    0.05595453657202671    
  0.06485448899741453    0.09485344510793965    0.1532514331756179    0.24303087968369827    0.35274517757917445    
  0.4563462750309479    0.5279245758347478    0.5576573306148563    0.553358381628318    0.5301195482622291    
  0.5007958633248436    0.4732402883762601    0.45161292992731067    0.43802129550725216    0.43340696080353885    
  0.43802129550725216    0.4516129299273108    0.4732402883762601    0.5007958633248436    0.5301195482622292    
  0.553358381628318    0.5576573306148563    0.5279245758347478    0.4563462750309479    0.35274517757917445    
  0.24303087968369827    0.15325143317561798    0.09485344510793957    0.06485448899741449    0.05595453657202671    
  0.04769416858273153    0.05595453657202652    0.08423399315849604    0.1405827176950105    0.22928219011610282    
  0.3399380954053397    0.4462871094323888    0.5210512842145927    0.5531040734638547    0.5498741168437027    
  0.5267927645445055    0.4971934552014506    0.4692413057780224    0.4472496253273157    0.4334066324563795    
  0.42870264396335395    0.4334066324563795    0.4472496253273159    0.4692413057780224    0.4971934552014506    
  0.5267927645445055    0.5498741168437026    0.5531040734638547    0.5210512842145927    0.4462871094323888    
  0.33993809540533965    0.2292821901161029    0.14058271769501063    0.084233993158496    0.05595453657202652    
  0.04769416858273153    0.05595453657202671    0.06485448899741449    0.09485344510793961    0.15325143317561785    
  0.2430308796836983    0.35274517757917456    0.456346275030948    0.5279245758347479    0.5576573306148563    
  0.5533583816283181    0.5301195482622292    0.5007958633248437    0.47324028837625987    0.45161292992731067    
  0.4380212955072523    0.43340696080353874    0.4380212955072523    0.45161292992731084    0.47324028837625987    
  0.5007958633248437    0.5301195482622292    0.553358381628318    0.5576573306148563    0.5279245758347479    
  0.456346275030948    0.35274517757917445    0.24303087968369835    0.15325143317561793    0.09485344510793961    
  0.06485448899741453    0.05595453657202671    0.06485448899741462    0.07436395994595515    0.10597069540806077    
  0.16619864730575423    0.2567746991023603    0.3653164754157433    0.4660798496426079    0.534505751922424    
  0.5619934745681167    0.5566825931167814    0.5333149439053545    0.5042803050583993    0.4771309547524631    
  0.4558770051439947    0.4425436888834979    0.438021625704232    0.4425436888834979    0.45587700514399493    
  0.4771309547524631    0.5042803050583993    0.5333149439053545    0.5566825931167813    0.5619934745681167    
  0.534505751922424    0.4660798496426079    0.3653164754157432    0.2567746991023603    0.16619864730575423    
  0.10597069540806069    0.07436395994595511    0.06485448899741462    0.09485344510793971    0.10597069540806069    
  0.14165249587086504    0.20604017318221973    0.297428515940136    0.4013000016811805    0.4932654785783243    
  0.5526540119778126    0.574036011778659    0.5661721261124819    0.5426733529122786    0.5145942390173803    
  0.488659201880913    0.4684814050653876    0.4558780011223172    0.45161425638587854    0.4558780011223171    
  0.46848140506538777    0.488659201880913    0.5145942390173803    0.5426733529122785    0.5661721261124818    
  0.574036011778659    0.5526540119778126    0.4932654785783243    0.40130000168118046    0.297428515940136    
  0.20604017318221987    0.14165249587086495    0.10597069540806063    0.09485344510793971    0.1532514331756178    
  0.1661986473057541    0.2060401731822197    0.2731931247289293    0.3615365297919008    0.4548895539081824    
  0.5320354545084475    0.5780027272092675    0.5911760634251737    0.5804436825590349    0.557413091442807    
  0.5311393230635024    0.5071889201109668    0.4886608658081613    0.4771336160893186    0.4732432811116203    
  0.4771336160893186    0.48866086580816154    0.5071889201109668    0.5311393230635025    0.557413091442807    
  0.5804436825590349    0.5911760634251737    0.5780027272092675    0.5320354545084475    0.45488955390818236    
  0.3615365297919009    0.2731931247289295    0.2060401731822197    0.16619864730575412    0.1532514331756178    
  0.24303087968369835    0.25677469910236006    0.2974285159401361    0.3615365297919008    0.4395421239707429    
  0.5156811754941268    0.5737056987739946    0.6046838887572207    0.6099480349555235    0.597430557379538    
  0.5760291284292629    0.552490202237428    0.5311416272063    0.5145982068465643    0.5042852714521727    
  0.5008011619216864    0.5042852714521728    0.5145982068465644    0.5311416272063    0.552490202237428    
  0.5760291284292629    0.597430557379538    0.6099480349555235    0.6046838887572207    0.5737056987739946    
  0.5156811754941267    0.4395421239707429    0.3615365297919009    0.297428515940136    0.2567746991023601    
  0.24303087968369835    0.35274517757917456    0.3653164754157433    0.4013000016811806    0.45488955390818253    
  0.5156811754941268    0.5707117109245596    0.6092848788187908    0.6272170062107876    0.6270453940491891    
  0.6147272232082188    0.5962129333461403    0.5760319956780906    0.5574182517131491    0.5426801640359468    
  0.5333227441606725    0.5301276773426131    0.5333227441606725    0.542680164035947    0.5574182517131491    
  0.5760319956780907    0.5962129333461403    0.6147272232082187    0.6270453940491891    0.6272170062107876    
  0.6092848788187908    0.5707117109245595    0.5156811754941268    0.45488955390818264    0.4013000016811805    
  0.3653164754157433    0.35274517757917456    0.456346275030948    0.4660798496426078    0.4932654785783242    
  0.5320354545084475    0.5737056987739946    0.6092848788187907    0.632636294411261    0.6421942870080417    
  0.6400877393334596    0.6298463761719898    0.6147305223732569    0.5974366869407942    0.5804520465370837    
  0.5661820758168693    0.5566934805653317    0.5533695783612894    0.5566934805653317    0.5661820758168694    
  0.5804520465370837    0.5974366869407941    0.6147305223732569    0.6298463761719897    0.6400877393334597    
  0.6421942870080416    0.632636294411261    0.6092848788187906    0.5737056987739946    0.5320354545084476    
  0.4932654785783241    0.4660798496426078    0.456346275030948    0.5279245758347478    0.534505751922424    
  0.5526540119778128    0.5780027272092674    0.6046838887572207    0.6272170062107876    0.6421942870080417    
  0.6487529509350304    0.6476703984629918    0.6400913023912396    0.6270521820730561    0.6099575121144316    
  0.5911875818947455    0.574048911676356    0.562007154826847    0.5576712609171055    0.5620071548268472    
  0.5740489116763562    0.5911875818947455    0.6099575121144316    0.6270521820730561    0.6400913023912396    
  0.6476703984629918    0.6487529509350304    0.6421942870080417    0.6272170062107875    0.6046838887572207    
  0.5780027272092675    0.5526540119778126    0.534505751922424    0.5279245758347478    0.5576573306148563    
  0.5619934745681164    0.574036011778659    0.5911760634251737    0.6099480349555234    0.6270453940491891    
  0.6400877393334597    0.6476703984629917    0.6487566012258161    0.6422013966128547    0.6272271104750391    
  0.6046963158687573    0.578016734924799    0.5526689424032887    0.5345211240956325    0.5279400734119716    
  0.5345211240956325    0.5526689424032889    0.578016734924799    0.6046963158687573    0.6272271104750391    
  0.6422013966128547    0.6487566012258161    0.6476703984629917    0.6400877393334597    0.627045394049189    
  0.6099480349555235    0.5911760634251737    0.574036011778659    0.5619934745681164    0.5576573306148563    
  0.5533583816283181    0.5566825931167813    0.5661721261124818    0.5804436825590349    0.597430557379538    
  0.6147272232082187    0.6298463761719898    0.6400913023912396    0.6422013966128547    0.6326465936095557    
  0.6092976779182109    0.5737201083846667    0.5320506216943552    0.49328080763834525    0.46609509003343147    
  0.4563614516583576    0.46609509003343136    0.49328080763834536    0.5320506216943552    0.5737201083846667    
  0.6092976779182109    0.6326465936095557    0.6422013966128547    0.6400913023912396    0.6298463761719898    
  0.6147272232082186    0.597430557379538    0.5804436825590349    0.5661721261124817    0.5566825931167811    
  0.5533583816283181    0.5301195482622292    0.5333149439053544    0.5426733529122786    0.557413091442807    
  0.5760291284292629    0.5962129333461403    0.6147305223732569    0.6270521820730559    0.6272271104750392    
  0.6092976779182111    0.5707261928322868    0.5156962021911521    0.4549042245486144    0.40131390019029184    
  0.3653296850760412    0.35275811942176377    0.3653296850760412    0.401313900190292    0.4549042245486144    