#     DFTpy    
  CRYSTAL 
    
  PRIMVEC    
  3.2171379310344803    0.0    0.0    
  0.0    3.2171379310344803    0.0    
  0.0    0.0    3.2171379310344803    
  PRIMCOORD    
  4    1    
  Si    0.0    0.0    0.0    
  Si    0.0    1.6085689655172408    1.6085689655172408    
  Si    1.6085689655172408    0.0    1.6085689655172408    
  Si    1.6085689655172408    1.6085689655172408    0.0    
  BEGIN_BLOCK_DATAGRID_3D    
  3d_datagrid_density    
  BEGIN_DATAGRID_3D#0    
  31    31    31    
  0.0    0.0    0.0    
  3.217137943034466    0.0    0.0    
  0.0    3.217137943034466    0.0    
  0.0    0.0    3.217137943034466    
  0.048442766925111    0.05727996490359856    0.08753192849455729    0.14708998651579275    0.23750867970599884    
  0.34275302589311213    0.4327681633133189    0.48358195649983454    0.4922817985673457    0.47236482713346006    
  0.44010362916720613    0.40673129881225367    0.37818006540842025    0.3571484184560954    0.3445418353802604    
  0.34037601057103234    0.34454183538026045    0.35714841845609546    0.37818006540842025    0.40673129881225367    
  0.4401036291672062    0.47236482713346006    0.4922817985673457    0.48358195649983454    0.4327681633133189    
  0.3427530258931122    0.23750867970599865    0.14708998651579264    0.08753192849455729    0.0572799649035986    
  0.048442766925111    0.05727996490359856    0.06680131742611944    0.0988212242480488    0.16023773882608966    
  0.2510960445616936    0.3544887414999114    0.44111407954061116    0.4887006230153416    0.4954616328777492    
  0.4749127988884062    0.44279452201936553    0.40985254375860297    0.3817454894658532    0.3610524925770949    
  0.3486442275656095    0.3445418934783285    0.34864422756560953    0.36105249257709493    0.3817454894658532    
  0.409852543758603    0.4427945220193656    0.4749127988884062    0.4954616328777492    0.4887006230153416    
  0.44111407954061116    0.35448874149991144    0.25109604456169354    0.16023773882608958    0.0988212242480488    
  0.06680131742611944    0.05727996490359856    0.08753192849455733    0.09882122424804894    0.13518416935958907    
  0.20051793560625747    0.2908678955471256    0.38756817548773626    0.4639513450606879    0.5024595438390954    
  0.504086768380488    0.4821113377392673    0.4506809786775869    0.4191681647361758    0.39247216344065516    
  0.37284124687603787    0.3610526717939676    0.35714865594952    0.36105267179396766    0.37284124687603787    
  0.39247216344065516    0.4191681647361758    0.450680978677587    0.4821113377392674    0.504086768380488    
  0.5024595438390954    0.4639513450606879    0.38756817548773626    0.2908678955471255    0.2005179356062574    
  0.13518416935958907    0.09882122424804894    0.08753192849455733    0.14708998651579278    0.16023773882608972    
  0.20051793560625747    0.2673387491433047    0.35198297730056066    0.4351315366659835    0.4950707004529679    
  0.5206718122352642    0.5158756984758364    0.49287297407141106    0.4632734003052771    0.43446096908977394    
  0.4102648759818162    0.3924724743132686    0.3817459808521308    0.3781806157752949    0.3817459808521308    
  0.39247247431326865    0.4102648759818162    0.43446096908977394    0.4632734003052772    0.49287297407141106    
  0.5158756984758364    0.5206718122352642    0.4950707004529679    0.4351315366659835    0.35198297730056055    
  0.26733874914330463    0.2005179356062574    0.16023773882608972    0.14708998651579278    0.23750867970599884    
  0.25109604456169365    0.29086789554712555    0.3519829773005607    0.42269417608888643    0.4856954948033864    
  0.5258707386486671    0.5382064274785123    0.5282498836471785    0.5059680867294649    0.4798668070001099    
  0.4551346383432713    0.43446141889143713    0.41916892827052976    0.4098534909945397    0.4067323063670498    
  0.40985349099453977    0.41916892827052976    0.43446141889143713    0.4551346383432714    0.47986680700011003    
  0.5059680867294649    0.5282498836471785    0.5382064274785123    0.5258707386486671    0.4856954948033864    
  0.4226941760888863    0.3519829773005606    0.2908678955471256    0.25109604456169365    0.23750867970599884    
  0.34275302589311224    0.35448874149991144    0.3875681754877362    0.4351315366659835    0.48569549480338653    
  0.5263652406961874    0.5484523984624219    0.5510180284662257    0.539319097378693    0.5203301106518677    
  0.499453818729871    0.47986739144655044    0.4632744383200054    0.4506823354109146    0.44279606627157264    
  0.4401052351252044    0.4427960662715727    0.4506823354109146    0.4632744383200054    0.47986739144655044    
  0.49945381872987105    0.5203301106518677    0.539319097378693    0.5510180284662257    0.5484523984624219    
  0.5263652406961874    0.4856954948033864    0.43513153666598336    0.38756817548773626    0.3544887414999114    
  0.34275302589311224    0.4327681633133188    0.44111407954061116    0.4639513450606878    0.4950707004529679    
  0.5258707386486671    0.5484523984624219    0.5587545345865449    0.5574650703666195    0.5482148808111513    
  0.5349275640129013    0.5203308083647817    0.5059693716287736    0.49287471519164816    0.48211339801128666    
  0.47491504555931086    0.472367134807739    0.47491504555931086    0.48211339801128666    0.49287471519164816    
  0.5059693716287738    0.5203308083647818    0.5349275640129013    0.5482148808111513    0.5574650703666195    
  0.5587545345865449    0.5484523984624219    0.5258707386486668    0.4950707004529677    0.4639513450606878    
  0.44111407954061116    0.4327681633133188    0.48358195649983454    0.48870062301534156    0.5024595438390953    
  0.520671812235264    0.5382064274785123    0.5510180284662256    0.5574650703666194    0.5581564079737512    
  0.5546610548360011    0.548215653436196    0.5393205670581083    0.5282519339888203    0.5158781886684991    
  0.5040895548768779    0.495464585771718    0.49228480455198875    0.495464585771718    0.5040895548768779    
  0.5158781886684991    0.5282519339888203    0.5393205670581084    0.548215653436196    0.5546610548360011    
  0.5581564079737512    0.5574650703666194    0.5510180284662256    0.5382064274785122    0.5206718122352639    
  0.5024595438390954    0.48870062301534156    0.48358195649983454    0.4922817985673458    0.4954616328777492    
  0.5040867683804882    0.5158756984758364    0.5282498836471785    0.539319097378693    0.5482148808111514    
  0.5546610548360013    0.5581572065958124    0.5574666375523978    0.5510202737165562    0.5382092082614593    
  0.5206749626905973    0.5024629125536488    0.4887040973631585    0.4835854611056598    0.4887040973631585    
  0.5024629125536488    0.5206749626905973    0.5382092082614593    0.5510202737165562    0.5574666375523978    
  0.5581572065958124    0.5546610548360014    0.5482148808111514    0.539319097378693    0.5282498836471784    
  0.5158756984758364    0.5040867683804882    0.4954616328777492    0.4922817985673458    0.4723648271334603    
  0.4749127988884062    0.4821113377392673    0.4928729740714112    0.5059680867294651    0.5203301106518676    
  0.5349275640129014    0.5482156534361962    0.5574666375523977    0.5587568453502479    0.5484553186646689    
  0.5258740717593474    0.49507424291853885    0.4639549466857606    0.4411176715919992    0.43277174386546285    
  0.4411176715919992    0.4639549466857605    0.49507424291853885    0.5258740717593474    0.548455318664669    
  0.5587568453502479    0.5574666375523977    0.5482156534361962    0.5349275640129014    0.5203301106518676    
  0.505968086729465    0.49287297407141106    0.4821113377392673    0.4749127988884062    0.4723648271334603    
  0.4401036291672062    0.4427945220193658    0.4506809786775871    0.4632734003052772    0.47986680700011003    
  0.49945381872987105    0.5203308083647818    0.5393205670581085    0.5510202737165563    0.5484553186646689    
  0.5263686248362922    0.48569907242198984    0.4351350721177766    0.38757154597602284    0.3544919528418915    
  0.34275617392658914    0.3544919528418915    0.3875715459760229    0.4351350721177766    0.48569907242198984    
  0.5263686248362922    0.5484553186646689    0.5510202737165563    0.5393205670581085    0.5203308083647818    
  0.49945381872987105    0.4798668070001099    0.4632734003052771    0.4506809786775871    0.4427945220193658    
  0.4401036291672062    0.40673129881225367    0.40985254375860297    0.41916816473617574    0.43446096908977383    
  0.45513463834327145    0.47986739144655044    0.5059693716287736    0.5282519339888205    0.5382092082614593    
  0.5258740717593474    0.4856990724219898    0.42269765986009894    0.3519861322114549    0.29087066353459634    
  0.2510985230941157    0.23751105333115488    0.2510985230941156    0.2908706635345964    0.3519861322114549    
  0.42269765986009883    0.48569907242198984    0.5258740717593474    0.5382092082614593    0.5282519339888204    
  0.5059693716287736    0.47986739144655044    0.4551346383432714    0.4344609690897737    0.41916816473617574    
  0.40985254375860297    0.40673129881225367    0.37818006540842036    0.3817454894658534    0.3924721634406552    
  0.4102648759818162    0.4344614188914372    0.4632744383200054    0.49287471519164844    0.5158781886684991    
  0.5206749626905973    0.49507424291853885    0.4351350721177766    0.351986132211455    0.26734133430147133    
  0.2005199850968941    0.16023943302811344    0.14709155940569588    0.1602394330281134    0.20051998509689406    
  0.26734133430147133    0.351986132211455    0.4351350721177766    0.49507424291853874    0.5206749626905973    
  0.5158781886684991    0.49287471519164844    0.4632744383200054    0.43446141889143713    0.4102648759818162    
  0.39247216344065516    0.3817454894658533    0.37818006540842036    0.3571484184560954    0.36105249257709493    
  0.37284124687603776    0.39247247431326865    0.41916892827052976    0.4506823354109145    0.48211339801128666    
  0.504089554876878    0.5024629125536488    0.4639549466857606    0.3875715459760229    0.29087066353459656    
  0.200519985096894    0.13518562561351669    0.09882232243334875    0.08753291086757348    0.0988223224333487    
  0.13518562561351666    0.200519985096894    0.2908706635345965    0.38757154597602284    0.4639549466857606    
  0.5024629125536488    0.504089554876878    0.48211339801128666    0.4506823354109145    0.41916892827052976    
  0.3924724743132686    0.37284124687603776    0.36105249257709493    0.3571484184560954    0.34454183538026056    
  0.34864422756560953    0.3610526717939675    0.3817459808521308    0.4098534909945397    0.4427960662715727    
  0.47491504555931086    0.495464585771718    0.4887040973631585    0.4411176715919992    0.35449195284189144    
  0.2510985230941157    0.16023943302811344    0.0988223224333487    0.06680208038011012    0.0572806241414554    
  0.06680208038011008    0.0988223224333487    0.16023943302811344    0.2510985230941155    0.3544919528418915    
  0.4411176715919992    0.4887040973631585    0.4954645857717181    0.47491504555931086    0.44279606627157264    
  0.4098534909945396    0.38174598085213074    0.3610526717939675    0.3486442275656095    0.34454183538026056    
  0.34037601057103245    0.3445418934783285    0.35714865594951994    0.3781806157752949    0.40673230636704993    
  0.4401052351252044    0.4723671348077391    0.49228480455198875    0.4835854611056598    0.432771743865463    
  0.3427561739265891    0.23751105333115494    0.14709155940569577    0.08753291086757352    0.0572806241414554    
  0.048443327988434794    0.0572806241414554    0.08753291086757348    0.14709155940569577    0.23751105333115488    
  0.34275617392658914    0.43277174386546297    0.4835854611056598    0.49228480455198875    0.4723671348077391    
  0.4401052351252044    0.4067323063670499    0.3781806157752948    0.35714865594951994    0.3445418934783285    
  0.34037601057103245    0.3445418353802606    0.3486442275656096    0.36105267179396755    0.381745980852131    
  0.40985349099453977    0.4427960662715727    0.47491504555931097    0.495464585771718    0.4887040973631585    
  0.4411176715919992    0.3544919528418915    0.2510985230941155    0.1602394330281134    0.0988223224333487    
  0.06680208038011018    0.0572806241414554    0.06680208038011018    0.0988223224333487    0.1602394330281134    
  0.2510985230941155    0.35449195284189156    0.4411176715919992    0.4887040973631585    0.495464585771718    
  0.47491504555931097    0.44279606627157264    0.40985349099453966    0.3817459808521309    0.36105267179396755    
  0.3486442275656096    0.3445418353802606    0.3571484184560954    0.36105249257709493    0.37284124687603787    
  0.3924724743132686    0.41916892827052993    0.4506823354109145    0.48211339801128666    0.504089554876878    
  0.5024629125536487    0.4639549466857606    0.3875715459760228    0.29087066353459656    0.200519985096894    
  0.1351856256135166    0.09882232243334879    0.08753291086757338    0.09882232243334875    0.13518562561351655    
  0.200519985096894    0.2908706635345965    0.38757154597602284    0.4639549466857606    0.5024629125536487    
  0.504089554876878    0.48211339801128666    0.4506823354109145    0.4191689282705299    0.3924724743132685    
  0.3728412468760378    0.36105249257709493    0.3571484184560954    0.37818006540842036    0.3817454894658534    
  0.3924721634406552    0.4102648759818162    0.4344614188914372    0.4632744383200054    0.49287471519164844    
  0.5158781886684991    0.5206749626905973    0.49507424291853885    0.4351350721177766    0.351986132211455    
  0.26734133430147133    0.2005199850968941    0.16023943302811344    0.14709155940569588    0.1602394330281134    
  0.20051998509689406    0.26734133430147133    0.351986132211455    0.4351350721177766    0.49507424291853874    
  0.5206749626905973    0.5158781886684991    0.49287471519164844    0.4632744383200054    0.43446141889143713    
  0.4102648759818162    0.39247216344065516    0.3817454894658533    0.37818006540842036    0.40673129881225367    
  0.4098525437586029    0.41916816473617574    0.43446096908977394    0.45513463834327145    0.47986739144655044    
  0.5059693716287736    0.5282519339888204    0.5382092082614593    0.5258740717593474    0.4856990724219898    
  0.42269765986009894    0.35198613221145486    0.29087066353459645    0.2510985230941157    0.23751105333115496    
  0.2510985230941156    0.29087066353459645    0.35198613221145486    0.42269765986009883    0.4856990724219898    
  0.5258740717593474    0.5382092082614593    0.5282519339888204    0.5059693716287736    0.47986739144655044    
  0.45513463834327117    0.43446096908977383    0.41916816473617574    0.409852543758603    0.40673129881225367    
  0.4401036291672063    0.4427945220193656    0.4506809786775869    0.4632734003052771    0.47986680700011003    
  0.499453818729871    0.5203308083647818    0.5393205670581084    0.5510202737165563    0.548455318664669    
  0.526368624836292    0.48569907242198984    0.4351350721177766    0.3875715459760229    0.3544919528418915    
  0.3427561739265891    0.3544919528418915    0.3875715459760229    0.4351350721177766    0.48569907242198995    
  0.5263686248362921    0.548455318664669    0.5510202737165563    0.5393205670581085    0.5203308083647818    
  0.499453818729871    0.4798668070001099    0.4632734003052771    0.4506809786775869    0.4427945220193656    
  0.4401036291672063    0.4723648271334603    0.4749127988884063    0.4821113377392673    0.4928729740714112    
  0.505968086729465    0.5203301106518677    0.5349275640129014    0.5482156534361962    0.5574666375523977    
  0.5587568453502479    0.5484553186646689    0.5258740717593473    0.49507424291853874    0.4639549466857606    
  0.4411176715919992    0.43277174386546297    0.4411176715919992    0.4639549466857606    0.49507424291853874    
  0.5258740717593473    0.548455318664669    0.5587568453502479    0.5574666375523977    0.5482156534361962    
  0.5349275640129014    0.5203301106518677    0.5059680867294649    0.49287297407141106    0.4821113377392674    
  0.4749127988884062    0.4723648271334603    0.4922817985673459    0.4954616328777492    0.504086768380488    
  0.5158756984758365    0.5282498836471785    0.539319097378693    0.5482148808111514    0.5546610548360014    
  0.5581572065958125    0.5574666375523978    0.5510202737165562    0.5382092082614593    0.5206749626905973    
  0.5024629125536488    0.4887040973631586    0.4835854611056598    0.4887040973631585    0.5024629125536488    
  0.5206749626905973    0.5382092082614593    0.5510202737165563    0.5574666375523978    0.5581572065958125    
  0.5546610548360014    0.5482148808111514    0.539319097378693    0.5282498836471784    0.5158756984758364    
  0.504086768380488    0.4954616328777492    0.4922817985673459    0.48358195649983454    0.48870062301534156    
  0.5024595438390954    0.520671812235264    0.5382064274785123    0.5510180284662255    0.5574650703666195    
  0.5581564079737512    0.5546610548360013    0.548215653436196    0.5393205670581084    0.5282519339888203    
  0.5158781886684991    0.5040895548768777    0.4954645857717181    0.4922848045519887    0.4954645857717181    
  0.5040895548768777    0.5158781886684991    0.5282519339888203    0.5393205670581084    0.548215653436196    
  0.5546610548360013    0.5581564079737512    0.5574650703666195    0.5510180284662255    0.5382064274785122    
  0.5206718122352639    0.5024595438390954    0.48870062301534156    0.48358195649983454    0.4327681633133188    
  0.44111407954061116    0.4639513450606878    0.4950707004529679    0.5258707386486671    0.5484523984624219    
  0.5587545345865449    0.5574650703666195    0.5482148808111513    0.5349275640129013    0.5203308083647817    
  0.5059693716287736    0.49287471519164816    0.48211339801128666    0.47491504555931086    0.472367134807739    
  0.47491504555931086    0.48211339801128666    0.49287471519164816    0.5059693716287738    0.5203308083647818    
  0.5349275640129013    0.5482148808111513    0.5574650703666195    0.5587545345865449    0.5484523984624219    
  0.5258707386486668    0.4950707004529677    0.4639513450606878    0.44111407954061116    0.4327681633133188    
  0.34275302589311224    0.3544887414999115    0.38756817548773626    0.43513153666598353    0.48569549480338653    
  0.5263652406961873    0.5484523984624219    0.5510180284662257    0.539319097378693    0.5203301106518676    
  0.4994538187298709    0.47986739144655033    0.4632744383200054    0.4506823354109146    0.4427960662715728    
  0.4401052351252044    0.4427960662715728    0.4506823354109146    0.4632744383200054    0.47986739144655033    
  0.49945381872987105    0.5203301106518676    0.539319097378693    0.5510180284662257    0.5484523984624219    
  0.5263652406961873    0.4856954948033864    0.4351315366659835    0.38756817548773614    0.35448874149991144    
  0.34275302589311224    0.23750867970599884    0.25109604456169365    0.2908678955471256    0.3519829773005607    
  0.4226941760888865    0.4856954948033864    0.5258707386486672    0.5382064274785123    0.5282498836471785    
  0.505968086729465    0.4798668070001099    0.4551346383432714    0.43446141889143713    0.4191689282705299    
  0.4098534909945396    0.4067323063670498    0.4098534909945396    0.4191689282705298    0.43446141889143713    
  0.4551346383432713    0.47986680700011003    0.505968086729465    0.5282498836471785    0.5382064274785123    
  0.5258707386486672    0.4856954948033864    0.42269417608888643    0.3519829773005606    0.2908678955471256    
  0.25109604456169354    0.23750867970599884    0.14708998651579278    0.1602377388260896    0.2005179356062574    
  0.26733874914330463    0.35198297730056066    0.4351315366659835    0.4950707004529679    0.5206718122352643    
  0.5158756984758364    0.4928729740714112    0.4632734003052771    0.43446096908977394    0.4102648759818162    
  0.3924724743132686    0.38174598085213074    0.37818061577529477    0.3817459808521308    0.39247247431326865    
  0.4102648759818162    0.43446096908977394    0.4632734003052772    0.4928729740714112    0.5158756984758364    
  0.5206718122352643    0.4950707004529679    0.4351315366659835    0.3519829773005606    0.2673387491433045    
  0.20051793560625736    0.1602377388260896    0.14708998651579278    0.08753192849455729    0.09882122424804898    
  0.13518416935958907    0.20051793560625747    0.29086789554712567    0.38756817548773637    0.4639513450606878    
  0.5024595438390954    0.5040867683804882    0.4821113377392673    0.4506809786775869    0.4191681647361758    
  0.39247216344065516    0.37284124687603787    0.36105267179396755    0.35714865594952    0.36105267179396755    
  0.37284124687603787    0.39247216344065516    0.4191681647361758    0.450680978677587    0.4821113377392673    
  0.5040867683804882    0.5024595438390954    0.4639513450606878    0.38756817548773637    0.2908678955471256    
  0.20051793560625736    0.13518416935958907    0.09882122424804898    0.08753192849455729    0.05727996490359851    
  0.06680131742611944    0.09882122424804875    0.1602377388260896    0.25109604456169377    0.3544887414999114    
  0.44111407954061116    0.4887006230153416    0.4954616328777491    0.4749127988884063    0.44279452201936553    
  0.40985254375860297    0.3817454894658532    0.3610524925770949    0.34864422756560953    0.3445418934783285    
  0.34864422756560953    0.36105249257709493    0.3817454894658532    0.409852543758603    0.4427945220193657    
  0.4749127988884063    0.4954616328777492    0.4887006230153416    0.44111407954061116    0.35448874149991144    
  0.25109604456169365    0.16023773882608952    0.09882122424804875    0.06680131742611944    0.05727996490359851    
  0.048442766925111    0.05727996490359856    0.08753192849455729    0.14708998651579275    0.23750867970599884    
  0.34275302589311213    0.4327681633133189    0.48358195649983454    0.4922817985673457    0.47236482713346006    
  0.44010362916720613    0.40673129881225367    0.37818006540842025    0.3571484184560954    0.3445418353802604    
  0.34037601057103234    0.34454183538026045    0.35714841845609546    0.37818006540842025    0.40673129881225367    
  0.4401036291672062    0.47236482713346006    0.4922817985673457    0.48358195649983454    0.4327681633133189    
  0.3427530258931122    0.23750867970599865    0.14708998651579264    0.08753192849455729    0.0572799649035986    
  0.048442766925111    0.05727996490359851    0.0668013174261195    0.0988212242480488    0.16023773882608972    
  0.2510960445616937    0.35448874149991144    0.44111407954061105    0.48870062301534156    0.4954616328777491    
  0.4749127988884062    0.4427945220193656    0.40985254375860286    0.3817454894658532    0.36105249257709493    
  0.3486442275656094    0.34454189347832836    0.3486442275656095    0.36105249257709504    0.3817454894658532    
  0.40985254375860286    0.4427945220193657    0.4749127988884062    0.4954616328777491    0.48870062301534156    
  0.44111407954061105    0.35448874149991144    0.25109604456169343    0.16023773882608966    0.0988212242480489    
  0.0668013174261195    0.05727996490359851    0.0668013174261195    0.07696101457830143    0.11058814036158963    
  0.17357345161521667    0.26453871544516533    0.36585902328519015    0.4490610580523965    0.4935099688156386    
  0.4984378412589731    0.4773253081994431    0.4453823834714797    0.4128855851692469    0.38523201328596474    
  0.36488532875960633    0.35268101325467405    0.3486442868413197    0.3526810132546741    0.36488532875960633    
  0.38523201328596474    0.4128855851692469    0.4453823834714798    0.4773253081994431    0.4984378412589731    
  0.4935099688156386    0.4490610580523965    0.36585902328519015    0.2645387154451653    0.1735734516152166    
  0.11058814036158963    0.07696101457830143    0.0668013174261195    0.09882122424804894    0.11058814036158973    
  0.14804208065467428    0.2141043325125707    0.3036819102247617    0.3977947483812729    0.47074801458782256    
  0.5064085101982141    0.5065020625406702    0.48414514860494956    0.4529724533692366    0.42194060565069796    
  0.3957205972771848    0.37645538903590003    0.3648855111941329    0.3610527344546256    0.3648855111941329    
  0.37645538903590003    0.3957205972771848    0.42194060565069796    0.4529724533692366    0.48414514860494956    
  0.5065020625406702    0.5064085101982141    0.47074801458782256    0.39779474838127293    0.3036819102247616    
  0.21410433251257058    0.14804208065467428    0.11058814036158977    0.09882122424804894    0.16023773882608974    
  0.17357345161521673    0.21410433251257063    0.2804685400236754    0.36329273466959905    0.44341726458238967    
  0.500144402699788    0.5234057026387413    0.5175082081145492    0.49436065920457495    0.46511456826811287    
  0.4368201393303286    0.4131240664428612    0.3957209128570585    0.3852325125618927    0.38174604886086677    
  0.3852325125618928    0.3957209128570585    0.4131240664428612    0.4368201393303286    0.4651145682681129    
  0.49436065920457495    0.5175082081145492    0.5234057026387413    0.500144402699788    0.44341726458238967    
  0.363292734669599    0.2804685400236753    0.21410433251257058    0.17357345161521678    0.16023773882608974    
  0.2510960445616936    0.2645387154451654    0.3036819102247617    0.3632927346695991    0.4315017880073573    
  0.4914881390590134    0.5290005708786184    0.5396548135569484    0.5290554707002002    0.506845041992612    
  0.48116864596096237    0.4569759415930235    0.4368205949830336    0.42194137982910074    0.41288654626383353    
  0.40985356630830283    0.4128865462638336    0.42194137982910074    0.4368205949830336    0.45697594159302357    
  0.4811686459609624    0.506845041992612    0.5290554707002002    0.5396548135569484    0.5290005708786184    
  0.4914881390590134    0.43150178800735717    0.363292734669599    0.3036819102247617    0.2645387154451654    
  0.2510960445616936    0.35448874149991155    0.36585902328519015    0.3977947483812728    0.44341726458238967    
  0.4914881390590135    0.5296680854196325    0.549856051998568    0.5513867013273415    0.5394125939180042    
  0.5206327243817531    0.5002094671326047    0.4811692371800709    0.465115619296738    0.452973828395261    
  0.44538394958161354    0.4427961510922635    0.44538394958161354    0.452973828395261    0.465115619296738    
  0.4811692371800709    0.5002094671326048    0.5206327243817531    0.5394125939180042    0.5513867013273415    
  0.549856051998568    0.5296680854196325    0.4914881390590134    0.4434172645823896    0.3977947483812729    
  0.36585902328519015    0.35448874149991155    0.44111407954061105    0.4490610580523965    0.47074801458782245    
  0.500144402699788    0.5290005708786184    0.549856051998568    0.5589751932335429    0.5571223470286042    
  0.5478049230189922    0.5347741718573035    0.5206334296198606    0.5068463419408853    0.4943624228897868    
  0.4841472381211694    0.4773275887363504    0.47491514207313    0.4773275887363504    0.4841472381211694    
  0.4943624228897868    0.5068463419408855    0.5206334296198608    0.5347741718573035    0.5478049230189922    
  0.5571223470286042    0.5589751932335429    0.549856051998568    0.5290005708786182    0.5001444026997878    
  0.47074801458782245    0.4490610580523965    0.44111407954061105    0.48870062301534156    0.4935099688156386    
  0.5064085101982139    0.5234057026387413    0.5396548135569484    0.5513867013273415    0.5571223470286041    
  0.5574879936982763    0.5539892153089153    0.5478057037774574    0.5394140803510643    0.52905754751156    
  0.517510735290987    0.5065048957580757    0.49844084774114583    0.4954646949129189    0.49844084774114594    
  0.5065048957580756    0.517510735290987    0.52905754751156    0.5394140803510645    0.5478057037774574    
  0.5539892153089153    0.5574879936982763    0.5571223470286041    0.5513867013273415    0.5396548135569483    
  0.5234057026387412    0.506408510198214    0.49350996881563847    0.48870062301534156    0.4954616328777492    
  0.4984378412589731    0.5065020625406703    0.5175082081145492    0.5290554707002002    0.5394125939180042    
  0.5478049230189924    0.5539892153089153    0.5574888007144219    0.5571239320790163    0.5513889760718923    
  0.5396576382534457    0.5234089131230608    0.5064119538322435    0.4935135284648819    0.4887042166156941    
  0.4935135284648819    0.5064119538322435    0.5234089131230608    0.5396576382534457    0.5513889760718923    
  0.5571239320790162    0.5574888007144219    0.5539892153089155    0.5478049230189924    0.5394125939180042    
  0.5290554707002001    0.5175082081145491    0.5065020625406703    0.4984378412589732    0.4954616328777492    
  0.47491279888840643    0.4773253081994431    0.48414514860494956    0.494360659204575    0.5068450419926122    
  0.520632724381753    0.5347741718573036    0.5478057037774575    0.5571239320790161    0.5589775346870387    
  0.5498590203620802    0.5290039742216174    0.5001480391477232    0.47075173091321104    0.4490647785082529    
  0.4411177932220901    0.4490647785082529    0.47075173091321104    0.5001480391477232    0.5290039742216174    
  0.5498590203620803    0.5589775346870387    0.5571239320790161    0.5478057037774575    0.5347741718573036    
  0.5206327243817529    0.506845041992612    0.49436065920457495    0.48414514860494956    0.4773253081994431    
  0.47491279888840643    0.4427945220193657    0.4453823834714799    0.4529724533692368    0.4651145682681129    
  0.4811686459609624    0.5002094671326048    0.5206334296198608    0.5394140803510645    0.5513889760718925    