#     DFTpy    
  CRYSTAL 
    
  PRIMVEC    
  3.2875862068965502    0.0    0.0    
  0.0    3.2875862068965502    0.0    
  0.0    0.0    3.2875862068965502    
  PRIMCOORD    
  4    1    
  Si    0.0    0.0    0.0    
  Si    0.0    1.6437931034482804    1.6437931034482804    
  Si    1.6437931034482804    0.0    1.6437931034482804    
  Si    1.6437931034482804    1.6437931034482804    0.0    
  BEGIN_BLOCK_DATAGRID_3D    
  3d_datagrid_density    
  BEGIN_DATAGRID_3D#0    
  33    33    33    
  0.0    0.0    0.0    
  3.28758621915931    0.0    0.0    
  0.0    3.28758621915931    0.0    
  0.0    0.0    3.28758621915931    
  0.048983725962156124    0.05702252539329353    0.08420709164362926    0.1371433659862211    0.21779368343112776    
  0.3140859281254507    0.4009772988616498    0.45545803809572555    0.4708094453081877    0.45619430311395237    
  0.42613294843005467    0.39217994096297093    0.3610507787451003    0.33599251114834155    0.31821983397939474    
  0.3078063263243303    0.30439999154012826    0.3078063263243303    0.31821983397939474    0.33599251114834155    
  0.3610507787451003    0.39217994096297093    0.42613294843005467    0.45619430311395237    0.4708094453081877    
  0.45545803809572555    0.4009772988616498    0.3140859281254507    0.21779368343112776    0.1371433659862211    
  0.08420709164362926    0.05702252539329353    0.048983725962156124    0.05702252539329364    0.06561765779772809    
  0.09424509272082919    0.14873613957027398    0.2298578950598556    0.3247440384314679    0.40877763846205556    
  0.46027131186424186    0.47358550767779933    0.4581030803343605    0.4279866260271596    0.3943568703711424    
  0.36364421414109754    0.33895209885960786    0.32143773413229776    0.31116790279308615    0.30780625820833446    
  0.31116790279308615    0.32143773413229776    0.33895209885960786    0.36364421414109754    0.3943568703711424    
  0.4279866260271596    0.4581030803343605    0.47358550767779933    0.46027131186424186    0.40877763846205556    
  0.3247440384314679    0.2298578950598556    0.14873613957027398    0.09424509272082919    0.06561765779772809    
  0.05702252539329364    0.08420709164362916    0.0942450927208291    0.12644953815102367    0.18431141419353245    
  0.265378890269104    0.3550415831165289    0.4303127372696734    0.47325837767778206    0.48102160462285454    
  0.46336411390433285    0.43333846280921173    0.40082795893866124    0.3714625358388278    0.34793853547653003    
  0.3312475081887366    0.32143752540226633    0.31821955691843257    0.32143752540226633    0.3312475081887366    
  0.34793853547653003    0.3714625358388278    0.40082795893866124    0.43333846280921173    0.46336411390433285    
  0.48102160462285454    0.47325837767778206    0.4303127372696734    0.3550415831165289    0.265378890269104    
  0.18431141419353245    0.12644953815102367    0.0942450927208291    0.08420709164362916    0.13714336598622123    
  0.14873613957027393    0.1843114141935325    0.2438080640686917    0.3207631537809365    0.3994220430040816    
  0.46019264173342495    0.49052553015627337    0.49086201407594354    0.470871444161684    0.44172782096394064    
  0.4114754103965287    0.38458617067861983    0.3631588510685176    0.3479381780135727    0.3389515311228288    
  0.3359918742315967    0.3389515311228288    0.3479381780135727    0.3631588510685176    0.38458617067861983    
  0.4114754103965287    0.44172782096394064    0.470871444161684    0.49086201407594354    0.49052553015627337    
  0.46019264173342495    0.3994220430040816    0.3207631537809365    0.2438080640686917    0.1843114141935325    
  0.14873613957027393    0.13714336598622123    0.2177936834311278    0.2298578950598556    0.2653788902691041    
  0.32076315378093667    0.3866374854520737    0.4481160962186072    0.49059010392674857    0.5070904269039862    
  0.5005198706604129    0.4795040927863563    0.45274679545723456    0.4261787016453709    0.4029826925192016    
  0.38458566115796294    0.3714616655245037    0.3636431297245373    0.3610496235055396    0.3636431297245373    
  0.3714616655245037    0.38458566115796294    0.4029826925192016    0.4261787016453709    0.45274679545723456    
  0.4795040927863563    0.5005198706604129    0.5070904269039862    0.49059010392674857    0.4481160962186072    
  0.3866374854520737    0.32076315378093667    0.2653788902691041    0.2298578950598556    0.2177936834311278    
  0.3140859281254507    0.3247440384314678    0.355041583116529    0.3994220430040816    0.4481160962186069    
  0.4892839285923096    0.513712445728113    0.5187393695431588    0.5081348628757857    0.4885858759365094    
  0.46613128312322405    0.4446681491497838    0.42617804673067244    0.411474241512789    0.4008264230374424    
  0.39435511527641465    0.3921781131068313    0.39435511527641465    0.4008264230374424    0.411474241512789    
  0.42617804673067244    0.4446681491497838    0.46613128312322405    0.4885858759365094    0.5081348628757857    
  0.5187393695431588    0.513712445728113    0.4892839285923096    0.4481160962186069    0.3994220430040816    
  0.355041583116529    0.3247440384314678    0.3140859281254507    0.4009772988616498    0.4087776384620556    
  0.4303127372696734    0.46019264173342495    0.4905901039267484    0.513712445728113    0.5247736272749394    
  0.5234830673145456    0.5130599825181861    0.497868660070566    0.48150314171278674    0.46613050283874785    
  0.45274535636892915    0.441725862538589    0.43333613316760833    0.42798407497431    0.4261303239813116    
  0.42798407497431    0.43333613316760833    0.441725862538589    0.45274535636892915    0.46613050283874785    
  0.48150314171278674    0.497868660070566    0.5130599825181861    0.5234830673145456    0.5247736272749394    
  0.513712445728113    0.4905901039267484    0.46019264173342495    0.4303127372696734    0.4087776384620556    
  0.4009772988616498    0.45545803809572555    0.46027131186424186    0.47325837767778206    0.4905255301562735    
  0.5070904269039862    0.5187393695431588    0.5234830673145456    0.5217836152707014    0.5156042319266103    
  0.5071186871315646    0.4978677885615333    0.48858422336987656    0.47950178270399646    0.4708686213166256    
  0.4633609307561461    0.4580996860561044    0.4561908396321677    0.4580996860561044    0.4633609307561461    
  0.4708686213166256    0.47950178270399646    0.48858422336987656    0.4978677885615333    0.5071186871315646    
  0.5156042319266103    0.5217836152707014    0.5234830673145456    0.5187393695431588    0.5070904269039862    
  0.4905255301562735    0.47325837767778206    0.46027131186424186    0.45545803809572555    0.4708094453081877    
  0.47358550767779933    0.48102160462285465    0.49086201407594354    0.5005198706604129    0.5081348628757858    
  0.5130599825181861    0.5156042319266103    0.5163606392717804    0.5156033129921693    0.5130581957068674    
  0.5081323081664888    0.5005166877763888    0.4908583635123822    0.48101764425435817    0.473581376006167    
  0.47080525953680846    0.473581376006167    0.48101764425435817    0.4908583635123822    0.5005166877763888    
  0.5081323081664888    0.5130581957068674    0.5156033129921693    0.5163606392717804    0.5156042319266103    
  0.5130599825181861    0.5081348628757858    0.5005198706604129    0.49086201407594354    0.48102160462285465    
  0.47358550767779933    0.4708094453081877    0.45619430311395254    0.45810308033436037    0.46336411390433285    
  0.4708714441616839    0.4795040927863562    0.4885858759365095    0.4978686600705661    0.5071186871315646    
  0.5156033129921693    0.5217817831753824    0.5234803904777033    0.5187359798537996    0.5070865021040423    
  0.49052125782937167    0.4732539160598257    0.46026676785174087    0.4554534726448825    0.46026676785174087    
  0.4732539160598257    0.49052125782937167    0.5070865021040423    0.5187359798537996    0.5234803904777033    
  0.5217817831753824    0.5156033129921693    0.5071186871315646    0.4978686600705661    0.4885858759365095    
  0.4795040927863562    0.4708714441616839    0.46336411390433285    0.45810308033436037    0.45619430311395254    
  0.4261329484300548    0.4279866260271596    0.43333846280921173    0.44172782096394053    0.4527467954572343    
  0.46613128312322405    0.48150314171278663    0.4978677885615333    0.5130581957068673    0.5234803904777033    
  0.5247701722591326    0.513708406969915    0.49058571980174714    0.46018813076599285    0.4303082413460223    
  0.4087732025610935    0.40097289228506505    0.4087732025610935    0.4303082413460223    0.46018813076599285    
  0.49058571980174714    0.513708406969915    0.5247701722591326    0.5234803904777033    0.5130581957068673    
  0.4978677885615333    0.48150314171278663    0.46613128312322405    0.4527467954572343    0.44172782096394053    
  0.43333846280921173    0.4279866260271596    0.4261329484300548    0.39217994096297093    0.3943568703711424    
  0.40082795893866136    0.4114754103965288    0.4261787016453708    0.44466814914978386    0.46613050283874796    
  0.48858422336987645    0.5081323081664888    0.5187359798537996    0.5137084069699153    0.48927952502244837    
  0.448111635897479    0.39941775984787586    0.3550375718234942    0.3247402530934155    0.3140822286864566    
  0.3247402530934155    0.3550375718234942    0.39941775984787586    0.448111635897479    0.48927952502244837    
  0.5137084069699153    0.5187359798537996    0.5081323081664888    0.48858422336987645    0.46613050283874796    
  0.44466814914978386    0.4261787016453708    0.4114754103965288    0.40082795893866136    0.3943568703711424    
  0.39217994096297093    0.36105077874510016    0.36364421414109754    0.37146253583882793    0.3845861706786199    
  0.40298269251920155    0.42617804673067244    0.45274535636892915    0.4795017827039964    0.5005166877763888    
  0.5070865021040423    0.49058571980174726    0.448111635897479    0.38663330978295474    0.3207594738026593    
  0.26537571709668106    0.2298550806731963    0.21779099634896576    0.2298550806731963    0.26537571709668106    
  0.3207594738026593    0.38663330978295474    0.448111635897479    0.49058571980174726    0.5070865021040423    
  0.5005166877763888    0.4795017827039964    0.45274535636892915    0.42617804673067244    0.40298269251920155    
  0.3845861706786199    0.37146253583882793    0.36364421414109754    0.36105077874510016    0.33599251114834167    
  0.33895209885960786    0.34793853547653003    0.3631588510685175    0.38458566115796283    0.41147424151278894    
  0.441725862538589    0.47086862131662544    0.49085836351238216    0.4905212578293717    0.46018813076599296    
  0.39941775984787575    0.3207594738026593    0.24380513111071034    0.1843091334073188    0.1487342760541809    
  0.13714164272814588    0.1487342760541809    0.1843091334073188    0.24380513111071034    0.3207594738026593    
  0.39941775984787575    0.46018813076599296    0.4905212578293717    0.49085836351238216    0.47086862131662544    
  0.441725862538589    0.41147424151278894    0.38458566115796283    0.3631588510685175    0.34793853547653003    
  0.33895209885960786    0.33599251114834167    0.31821983397939474    0.32143773413229776    0.3312475081887366    
  0.34793817801357274    0.3714616655245035    0.4008264230374424    0.43333613316760833    0.4633609307561461    
  0.48101764425435817    0.4732539160598257    0.4303082413460223    0.3550375718234942    0.26537571709668106    
  0.18430913340731883    0.12644795570191983    0.09424391938801124    0.0842060486971628    0.09424391938801124    
  0.12644795570191983    0.18430913340731883    0.26537571709668106    0.3550375718234942    0.4303082413460223    
  0.4732539160598257    0.48101764425435817    0.4633609307561461    0.43333613316760833    0.4008264230374424    
  0.3714616655245035    0.34793817801357274    0.3312475081887366    0.32143773413229776    0.31821983397939474    
  0.30780632632433036    0.31116790279308615    0.3214375254022665    0.33895153112282883    0.36364312972453716    
  0.3943551152764147    0.4279840749743099    0.45809968605610446    0.4735813760061671    0.460266767851741    
  0.4087732025610936    0.3247402530934156    0.2298550806731963    0.14873427605418083    0.09424391938801122    
  0.06561686181609193    0.0570218443442331    0.06561686181609193    0.09424391938801122    0.14873427605418083    
  0.2298550806731963    0.3247402530934156    0.4087732025610936    0.460266767851741    0.4735813760061671    
  0.45809968605610446    0.4279840749743099    0.3943551152764147    0.36364312972453716    0.33895153112282883    
  0.3214375254022665    0.31116790279308615    0.30780632632433036    0.30439999154012826    0.3078062582083344    
  0.3182195569184327    0.3359918742315968    0.3610496235055396    0.3921781131068315    0.4261303239813116    
  0.4561908396321676    0.4708052595368084    0.4554534726448824    0.40097289228506505    0.3140822286864566    
  0.21779099634896576    0.13714164272814583    0.08420604869716287    0.057021844344233054    0.04898315307859709    
  0.057021844344233054    0.08420604869716287    0.13714164272814583    0.21779099634896576    0.3140822286864566    
  0.40097289228506505    0.4554534726448824    0.4708052595368084    0.4561908396321676    0.4261303239813116    
  0.3921781131068315    0.3610496235055396    0.3359918742315968    0.3182195569184327    0.3078062582083344    
  0.30439999154012826    0.30780632632433036    0.31116790279308615    0.3214375254022665    0.33895153112282883    
  0.36364312972453716    0.3943551152764147    0.4279840749743099    0.45809968605610446    0.4735813760061671    
  0.460266767851741    0.4087732025610936    0.3247402530934156    0.2298550806731963    0.14873427605418083    
  0.09424391938801122    0.06561686181609193    0.0570218443442331    0.06561686181609193    0.09424391938801122    
  0.14873427605418083    0.2298550806731963    0.3247402530934156    0.4087732025610936    0.460266767851741    
  0.4735813760061671    0.45809968605610446    0.4279840749743099    0.3943551152764147    0.36364312972453716    
  0.33895153112282883    0.3214375254022665    0.31116790279308615    0.30780632632433036    0.31821983397939474    
  0.32143773413229776    0.3312475081887366    0.34793817801357274    0.3714616655245035    0.4008264230374424    
  0.43333613316760833    0.4633609307561461    0.48101764425435817    0.4732539160598257    0.4303082413460223    
  0.3550375718234942    0.26537571709668106    0.18430913340731883    0.12644795570191983    0.09424391938801124    
  0.0842060486971628    0.09424391938801124    0.12644795570191983    0.18430913340731883    0.26537571709668106    
  0.3550375718234942    0.4303082413460223    0.4732539160598257    0.48101764425435817    0.4633609307561461    
  0.43333613316760833    0.4008264230374424    0.3714616655245035    0.34793817801357274    0.3312475081887366    
  0.32143773413229776    0.31821983397939474    0.33599251114834167    0.33895209885960786    0.34793853547653003    
  0.3631588510685175    0.38458566115796283    0.41147424151278894    0.441725862538589    0.47086862131662544    
  0.49085836351238216    0.4905212578293717    0.46018813076599296    0.39941775984787575    0.3207594738026593    
  0.24380513111071034    0.1843091334073188    0.1487342760541809    0.13714164272814588    0.1487342760541809    
  0.1843091334073188    0.24380513111071034    0.3207594738026593    0.39941775984787575    0.46018813076599296    
  0.4905212578293717    0.49085836351238216    0.47086862131662544    0.441725862538589    0.41147424151278894    
  0.38458566115796283    0.3631588510685175    0.34793853547653003    0.33895209885960786    0.33599251114834167    
  0.36105077874510016    0.36364421414109754    0.37146253583882793    0.3845861706786199    0.40298269251920155    
  0.42617804673067244    0.45274535636892915    0.4795017827039964    0.5005166877763888    0.5070865021040423    
  0.49058571980174726    0.448111635897479    0.38663330978295474    0.3207594738026593    0.26537571709668106    
  0.2298550806731963    0.21779099634896576    0.2298550806731963    0.26537571709668106    0.3207594738026593    
  0.38663330978295474    0.448111635897479    0.49058571980174726    0.5070865021040423    0.5005166877763888    
  0.4795017827039964    0.45274535636892915    0.42617804673067244    0.40298269251920155    0.3845861706786199    
  0.37146253583882793    0.36364421414109754    0.36105077874510016    0.39217994096297093    0.3943568703711424    
  0.40082795893866136    0.4114754103965288    0.4261787016453708    0.44466814914978386    0.46613050283874796    
  0.48858422336987645    0.5081323081664888    0.5187359798537996    0.5137084069699153    0.48927952502244837    
  0.448111635897479    0.39941775984787586    0.3550375718234942    0.3247402530934155    0.3140822286864566    
  0.3247402530934155    0.3550375718234942    0.39941775984787586    0.448111635897479    0.48927952502244837    
  0.5137084069699153    0.5187359798537996    0.5081323081664888    0.48858422336987645    0.46613050283874796    
  0.44466814914978386    0.4261787016453708    0.4114754103965288    0.40082795893866136    0.3943568703711424    
  0.39217994096297093    0.4261329484300548    0.4279866260271596    0.43333846280921173    0.44172782096394053    
  0.4527467954572343    0.46613128312322405    0.48150314171278663    0.4978677885615333    0.5130581957068673    
  0.5234803904777033    0.5247701722591326    0.513708406969915    0.49058571980174714    0.46018813076599285    
  0.4303082413460223    0.4087732025610935    0.40097289228506505    0.4087732025610935    0.4303082413460223    
  0.46018813076599285    0.49058571980174714    0.513708406969915    0.5247701722591326    0.5234803904777033    
  0.5130581957068673    0.4978677885615333    0.48150314171278663    0.46613128312322405    0.4527467954572343    
  0.44172782096394053    0.43333846280921173    0.4279866260271596    0.4261329484300548    0.45619430311395254    
  0.45810308033436037    0.46336411390433285    0.4708714441616839    0.4795040927863562    0.4885858759365095    
  0.4978686600705661    0.5071186871315646    0.5156033129921693    0.5217817831753824    0.5234803904777033    
  0.5187359798537996    0.5070865021040423    0.49052125782937167    0.4732539160598257    0.46026676785174087    
  0.4554534726448825    0.46026676785174087    0.4732539160598257    0.49052125782937167    0.5070865021040423    
  0.5187359798537996    0.5234803904777033    0.5217817831753824    0.5156033129921693    0.5071186871315646    
  0.4978686600705661    0.4885858759365095    0.4795040927863562    0.4708714441616839    0.46336411390433285    
  0.45810308033436037    0.45619430311395254    0.4708094453081877    0.47358550767779933    0.48102160462285465    
  0.49086201407594354    0.5005198706604129    0.5081348628757858    0.5130599825181861    0.5156042319266103    
  0.5163606392717804    0.5156033129921693    0.5130581957068674    0.5081323081664888    0.5005166877763888    
  0.4908583635123822    0.48101764425435817    0.473581376006167    0.47080525953680846    0.473581376006167    
  0.48101764425435817    0.4908583635123822    0.5005166877763888    0.5081323081664888    0.5130581957068674    
  0.5156033129921693    0.5163606392717804    0.5156042319266103    0.5130599825181861    0.5081348628757858    
  0.5005198706604129    0.49086201407594354    0.48102160462285465    0.47358550767779933    0.4708094453081877    
  0.45545803809572555    0.46027131186424186    0.47325837767778206    0.4905255301562735    0.5070904269039862    
  0.5187393695431588    0.5234830673145456    0.5217836152707014    0.5156042319266103    0.5071186871315646    
  0.4978677885615333    0.48858422336987656    0.47950178270399646    0.4708686213166256    0.4633609307561461    
  0.4580996860561044    0.4561908396321677    0.4580996860561044    0.4633609307561461    0.4708686213166256    
  0.47950178270399646    0.48858422336987656    0.4978677885615333    0.5071186871315646    0.5156042319266103    
  0.5217836152707014    0.5234830673145456    0.5187393695431588    0.5070904269039862    0.4905255301562735    
  0.47325837767778206    0.46027131186424186    0.45545803809572555    0.4009772988616498    0.4087776384620556    
  0.4303127372696734    0.46019264173342495    0.4905901039267484    0.513712445728113    0.5247736272749394    
  0.5234830673145456    0.5130599825181861    0.497868660070566    0.48150314171278674    0.46613050283874785    
  0.45274535636892915    0.441725862538589    0.43333613316760833    0.42798407497431    0.4261303239813116    
  0.42798407497431    0.43333613316760833    0.441725862538589    0.45274535636892915    0.46613050283874785    
  0.48150314171278674    0.497868660070566    0.5130599825181861    0.5234830673145456    0.5247736272749394    
  0.513712445728113    0.4905901039267484    0.46019264173342495    0.4303127372696734    0.4087776384620556    
  0.4009772988616498    0.3140859281254507    0.3247440384314678    0.355041583116529    0.3994220430040816    
  0.4481160962186069    0.4892839285923096    0.513712445728113    0.5187393695431588    0.5081348628757857    
  0.4885858759365094    0.46613128312322405    0.4446681491497838    0.42617804673067244    0.411474241512789    
  0.4008264230374424    0.39435511527641465    0.3921781131068313    0.39435511527641465    0.4008264230374424    
  0.411474241512789    0.42617804673067244    0.4446681491497838    0.46613128312322405    0.4885858759365094    
  0.5081348628757857    0.5187393695431588    0.513712445728113    0.4892839285923096    0.4481160962186069    
  0.3994220430040816    0.355041583116529    0.3247440384314678    0.3140859281254507    0.2177936834311278    
  0.2298578950598556    0.2653788902691041    0.32076315378093667    0.3866374854520737    0.4481160962186072    
  0.49059010392674857    0.5070904269039862    0.5005198706604129    0.4795040927863563    0.45274679545723456    
  0.4261787016453709    0.4029826925192016    0.38458566115796294    0.3714616655245037    0.3636431297245373    
  0.3610496235055396    0.3636431297245373    0.3714616655245037    0.38458566115796294    0.4029826925192016    
  0.4261787016453709    0.45274679545723456    0.4795040927863563    0.5005198706604129    0.5070904269039862    
  0.49059010392674857    0.4481160962186072    0.3866374854520737    0.32076315378093667    0.2653788902691041    
  0.2298578950598556    0.2177936834311278    0.13714336598622123    0.14873613957027393    0.1843114141935325    
  0.2438080640686917    0.3207631537809365    0.3994220430040816    0.46019264173342495    0.49052553015627337    
  0.49086201407594354    0.470871444161684    0.44172782096394064    0.4114754103965287    0.38458617067861983    
  0.3631588510685176    0.3479381780135727    0.3389515311228288    0.3359918742315967    0.3389515311228288    
  0.3479381780135727    0.3631588510685176    0.38458617067861983    0.4114754103965287    0.44172782096394064    
  0.470871444161684    0.49086201407594354    0.49052553015627337    0.46019264173342495    0.3994220430040816    
  0.3207631537809365    0.2438080640686917    0.1843114141935325    0.14873613957027393    0.13714336598622123    
  0.08420709164362916    0.0942450927208291    0.12644953815102367    0.18431141419353245    0.265378890269104    
  0.3550415831165289    0.4303127372696734    0.47325837767778206    0.48102160462285454    0.46336411390433285    
  0.43333846280921173    0.40082795893866124    0.3714625358388278    0.34793853547653003    0.3312475081887366    
  0.32143752540226633    0.31821955691843257    0.32143752540226633    0.3312475081887366    0.34793853547653003    
  0.3714625358388278    0.40082795893866124    0.43333846280921173    0.46336411390433285    0.48102160462285454    
  0.47325837767778206    0.4303127372696734    0.3550415831165289    0.265378890269104    0.18431141419353245    
  0.12644953815102367    0.0942450927208291    0.08420709164362916    0.05702252539329364    0.06561765779772809    
  0.09424509272082919    0.14873613957027398    0.2298578950598556    0.3247440384314679    0.40877763846205556    
  0.46027131186424186    0.47358550767779933    0.4581030803343605    0.4279866260271596    0.3943568703711424    
  0.36364421414109754    0.33895209885960786    0.32143773413229776    0.31116790279308615    0.30780625820833446    
  0.31116790279308615    0.32143773413229776    0.33895209885960786    0.36364421414109754    0.3943568703711424    
  0.4279866260271596    0.4581030803343605    0.47358550767779933    0.46027131186424186    0.40877763846205556    
  0.3247440384314679    0.2298578950598556    0.14873613957027398    0.09424509272082919    0.06561765779772809    
  0.05702252539329364    0.048983725962156124    0.05702252539329353    0.08420709164362926    0.1371433659862211    
  0.21779368343112776    0.3140859281254507    0.4009772988616498    0.45545803809572555    0.4708094453081877    
  0.45619430311395237    0.42613294843005467    0.39217994096297093    0.3610507787451003    0.33599251114834155    
  0.31821983397939474    0.3078063263243303    0.30439999154012826    0.3078063263243303    0.31821983397939474    
  0.33599251114834155    0.3610507787451003    0.39217994096297093    0.42613294843005467    0.45619430311395237    
  0.4708094453081877    0.45545803809572555    0.4009772988616498    0.3140859281254507    0.21779368343112776    
  0.1371433659862211    0.08420709164362926    0.05702252539329353    0.048983725962156124    0.05702252539329357    
  0.06561765779772803    0.09424509272082919    0.14873613957027404    0.2298578950598555    0.3247440384314678    
  0.4087776384620556    0.46027131186424175    0.4735855076777994    0.45810308033436037    0.4279866260271595    
  0.39435687037114253    0.36364421414109754    0.3389520988596079    0.32143773413229776    0.3111679027930861    
  0.3078062582083344    0.3111679027930861    0.32143773413229776    0.3389520988596079    0.36364421414109754    
  0.39435687037114253    0.4279866260271595    0.45810308033436037    0.4735855076777994    0.46027131186424175    
  0.4087776384620556    0.3247440384314678    0.2298578950598555    0.14873613957027404    0.09424509272082919    
  0.06561765779772803    0.05702252539329357    0.06561765779772816    0.07473252247672162    0.10467723819677069    
  0.16049853488300106    0.24182720612960767    0.33511669971253183    0.41624514339269003    0.46481513060042123    
  0.47618575357039283    0.4599069378588564    0.42977432108603636    0.39648533130263414    0.3661956637097886    
  0.3418708049553944    0.32461342679807836    0.3144855373558903    0.3111678347264449    0.3144855373558903    
  0.32461342679807836    0.3418708049553944    0.3661956637097886    0.39648533130263414    0.42977432108603636    
  0.4599069378588564    0.47618575357039283    0.46481513060042123    0.41624514339269003    0.33511669971253183    
  0.24182720612960767    0.16049853488300106    0.10467723819677069    0.07473252247672162    0.06561765779772816    
  0.0942450927208291    0.10467723819677056    0.13779871043369762    0.19633588151630207    0.27689929937695507    
  0.364502897392369    0.4368040555001063    0.47703955184749514    0.4831287838123376    0.464868058250447    
  0.43492834576212525    0.40280297353443534    0.37387649144244933    0.35072244074035025    0.33428529845698035    
  0.3246132183946505    0.32143745745550756    0.3246132183946505    0.33428529845698035    0.35072244074035025    
  0.37387649144244933    0.40280297353443534    0.43492834576212525    0.464868058250447    0.4831287838123376    
  0.47703955184749514    0.4368040555001063    0.364502897392369    0.27689929937695507    0.19633588151630207    
  0.13779871043369762    0.10467723819677056    0.0942450927208291    0.14873613957027404    0.160498534883001    
  0.19633588151630207    0.2555633778587528    0.3311283580935922    0.40728088167913845    0.46517240565009516    
  0.49319219911303613    0.49225660326310255    0.4719237532173407    0.44299373295837535    0.41317786377126325    
  0.386745040726128    0.365691058819704    0.3507220841995653    0.3418702385075994    0.3389514633150759    
  0.3418702385075994    0.3507220841995653    0.365691058819704    0.386745040726128    0.41317786377126325    
  0.44299373295837535    0.4719237532173407    0.49225660326310255    0.49319219911303613    0.46517240565009516    
  0.40728088167913845    0.3311283580935922    0.2555633778587528    0.19633588151630207    0.160498534883001    
  0.14873613957027404    0.2298578950598556    0.24182720612960767    0.2768992993769552    0.3311283580935924    
  0.3949602877127206    0.4538132938421972    0.49377844599061077    0.5085165224754972    0.5011223973188138    
  0.48001930237129287    0.4535849297806367    0.4274910204606355    0.4047633561342705    0.3867445329394417    
  0.37387562379526323    0.36619458237132824    0.36364306208878855    0.36619458237132824    0.37387562379526323    
  0.3867445329394417    0.4047633561342705    0.4274910204606355    0.4535849297806367    0.48001930237129287    
  0.5011223973188138    0.5085165224754972    0.49377844599061077    0.4538132938421972    0.3949602877127206    
  0.3311283580935924    0.2768992993769552    0.24182720612960767    0.2298578950598556    0.3247440384314678    
  0.3351166997125317    0.36450289739236913    0.40728088167913845    0.45381329384219693    0.49268008749619263    
  0.5151995348519084    0.5190492289165515    0.5080091451301747    0.4885559172827576    0.46648349744333945    
  0.44550662695660276    0.4274903682497317    0.4131766991939516    0.4028014427342773    0.39648358163281433    
  0.394355048021618    0.39648358163281433    0.4028014427342773    0.4131766991939516    0.4274903682497317    