#     DFTpy    
  CRYSTAL 
    
  PRIMVEC    
  3.8511724137931007    0.0    0.0    
  0.0    3.8511724137931007    0.0    
  0.0    0.0    3.8511724137931007    
  PRIMCOORD    
  4    1    
  Si    0.0    0.0    0.0    
  Si    0.0    1.9255862068965504    1.9255862068965504    
  Si    1.9255862068965504    0.0    1.9255862068965504    
  Si    1.9255862068965504    1.9255862068965504    0.0    
  BEGIN_BLOCK_DATAGRID_3D    
  3d_datagrid_density    
  BEGIN_DATAGRID_3D#0    
  37    37    37    
  0.0    0.0    0.0    
  3.8511724281580473    0.0    0.0    
  0.0    3.8511724281580473    0.0    
  0.0    0.0    3.8511724281580473    
  0.055502281516281116    0.06418822577811613    0.0931398250752615    0.14761684085352228    0.22545976676678622    
  0.30853819052190806    0.36914842617168125    0.389337721738991    0.37183390817693185    0.33249394083611017    
  0.286964860854685    0.2445082490547699    0.20885666810031245    0.1807650306855806    0.1596794528175304    
  0.14460554099469955    0.13458452251816377    0.12888465752774994    0.12703965350390983    0.1288846575277499    
  0.13458452251816377    0.14460554099469955    0.1596794528175304    0.18076503068558067    0.20885666810031245    
  0.24450824905476992    0.286964860854685    0.33249394083611017    0.37183390817693185    0.38933772173899106    
  0.36914842617168125    0.30853819052190795    0.22545976676678622    0.1476168408535223    0.0931398250752615    
  0.06418822577811616    0.055502281516281116    0.06418822577811614    0.073401017458138    0.10360642623583739    
  0.15903243916332394    0.23616166689169954    0.31637418405327333    0.373073679842996    0.3900445595388341    
  0.3708980923750232    0.33125149630576045    0.2861062749879409    0.2442472024395597    0.2091858368039705    
  0.1815976914027329    0.1609056709103912    0.146117105799725    0.1362861197640015    0.130694510535486    
  0.12888465199183052    0.13069451053548597    0.1362861197640015    0.14611710579972503    0.16090567091039124    
  0.18159769140273296    0.20918583680397052    0.2442472024395597    0.2861062749879409    0.33125149630576045    
  0.3708980923750232    0.3900445595388341    0.373073679842996    0.3163741840532733    0.23616166689169954    
  0.159032439163324    0.10360642623583739    0.07340101745813801    0.06418822577811614    0.09313982507526147    
  0.1036064262358374    0.13654196745488073    0.19320134700034605    0.26664387414051727    0.3375928576006113    
  0.3829393241442431    0.3911100466073334    0.36775284189354035    0.3275651604165154    0.2837057797265714    
  0.24366227052660924    0.2103581309173496    0.18426133351725874    0.16473744051940156    0.1508024660187696    
  0.14154648965491043    0.1362861034451121    0.13458450075869627    0.1362861034451121    0.14154648965491043    
  0.15080246601876957    0.16473744051940156    0.1842613335172588    0.2103581309173496    0.2436622705266093    
  0.2837057797265714    0.3275651604165154    0.36775284189354035    0.39111004660733345    0.3829393241442431    
  0.33759285760061125    0.26664387414051727    0.1932013470003461    0.13654196745488073    0.1036064262358374    
  0.09313982507526147    0.1476168408535223    0.15903243916332388    0.19320134700034608    0.24730510837853908    
  0.31081973246986755    0.36537600462925    0.393627308711186    0.3899088761263349    0.36164231380916323    
  0.32160434152822587    0.28024055287039845    0.24327422408158675    0.21285795403511912    0.1891960229390326    
  0.1715903549023729    0.1590790897090951    0.1508024385318228    0.14611706244511166    0.14460549248692492    
  0.1461170624451116    0.15080243853182276    0.15907908970909504    0.1715903549023729    0.18919602293903265    
  0.21285795403511912    0.24327422408158675    0.28024055287039845    0.32160434152822587    0.36164231380916323    
  0.3899088761263349    0.393627308711186    0.36537600462925    0.3108197324698676    0.24730510837853914    
  0.19320134700034608    0.15903243916332388    0.1476168408535223    0.22545976676678617    0.2361616668916995    
  0.2666438741405172    0.31081973246986766    0.35677055948383274    0.38959624148837646    0.39875755069848623    
  0.38364326953811395    0.3520020110348899    0.31377344218049164    0.2763913802191246    0.243783408911137    
  0.21734408410052256    0.19702569131534675    0.18208295710400582    0.1715903151414778    0.1647373735978676    
  0.16090558871781768    0.15967936578337685    0.16090558871781768    0.1647373735978676    0.17159031514147777    
  0.18208295710400582    0.19702569131534678    0.2173440841005226    0.243783408911137    0.2763913802191246    
  0.31377344218049164    0.3520020110348899    0.38364326953811395    0.39875755069848623    0.3895962414883764    
  0.3567705594838328    0.3108197324698676    0.2666438741405172    0.23616166689169954    0.22545976676678617    
  0.308538190521908    0.31637418405327333    0.3375928576006112    0.36537600462924985    0.3895962414883763    
  0.4005421515530472    0.3935743584569497    0.370893171007271    0.339027644523972    0.3048055926951874    
  0.2729803300101736    0.245987306974128    0.22459066480263942    0.20852859266824617    0.19702563938647427    
  0.1891959310071972    0.1842612142019966    0.1815975567090383    0.18076489112898278    0.18159755670903827    
  0.1842612142019966    0.18919593100719714    0.19702563938647433    0.20852859266824625    0.22459066480263942    
  0.245987306974128    0.2729803300101736    0.3048055926951874    0.339027644523972    0.370893171007271    
  0.3935743584569497    0.40054215155304707    0.3895962414883763    0.3653760046292499    0.3375928576006112    
  0.3163741840532733    0.308538190521908    0.3691484261716813    0.37307367984299594    0.3829393241442432    
  0.393627308711186    0.39875755069848623    0.39357435845694966    0.37716019567993586    0.352377737118505    
  0.3238439896442253    0.2957724695772131    0.27095794278164576    0.25076419035350955    0.23546041754963043    
  0.22459060160468197    0.21734396808829165    0.2128577966273905    0.21035794444051434    0.2091856334912987    
  0.20885645934183478    0.20918563349129876    0.21035794444051434    0.21285779662739043    0.21734396808829165    
  0.22459060160468203    0.23546041754963043    0.25076419035350955    0.27095794278164576    0.29577246957721315    
  0.3238439896442253    0.352377737118505    0.37716019567993586    0.3935743584569496    0.39875755069848623    
  0.39362730871118606    0.3829393241442432    0.3730736798429959    0.3691484261716813    0.38933772173899106    
  0.39004455953883405    0.3911100466073334    0.3899088761263349    0.38364326953811395    0.370893171007271    
  0.3523777371185049    0.3305032058697751    0.3082075654741083    0.28796580236381547    0.2713496931161597    
  0.2589967991315092    0.25076411657668674    0.2459871680550872    0.24378321427393457    0.243273984611032    
  0.2436619984600026    0.24424691076683547    0.24450795087230956    0.24424691076683552    0.24366199846000267    
  0.24327398461103195    0.24378321427393457    0.24598716805508727    0.25076411657668674    0.2589967991315092    
  0.2713496931161597    0.28796580236381547    0.3082075654741083    0.3305032058697751    0.3523777371185049    
  0.370893171007271    0.38364326953811395    0.38990887612633496    0.3911100466073334    0.3900445595388341    
  0.38933772173899106    0.37183390817693185    0.3708980923750232    0.36775284189354035    0.36164231380916323    
  0.3520020110348899    0.33902764452397205    0.32384398964422534    0.3082075654741084    0.2939790212932228    
  0.2826522411140811    0.27507233578289947    0.27134961030910687    0.27095778292751554    0.2729800999416807    
  0.27639108869806517    0.28024021089000795    0.2837054003142625    0.2861058726416732    0.28696445080345967    
  0.2861058726416732    0.2837054003142625    0.2802402108900079    0.27639108869806517    0.27298009994168076    
  0.27095778292751554    0.2713496103091068    0.27507233578289947    0.2826522411140811    0.2939790212932228    
  0.3082075654741084    0.32384398964422534    0.33902764452397205    0.3520020110348899    0.3616423138091633    
  0.36775284189354035    0.3708980923750232    0.37183390817693185    0.3324939408361101    0.33125149630576056    
  0.32756516041651546    0.32160434152822587    0.3137734421804917    0.3048055926951875    0.2957724695772132    
  0.2879658023638155    0.2826522411140811    0.28076607951422256    0.28265215289737283    0.28796562708931717    
  0.29577221028295636    0.30480525521090074    0.3137730356691139    0.32160387839466315    0.32756465558996783    
  0.33125096615360816    0.3324934022198675    0.3312509661536082    0.32756465558996783    0.32160387839466315    
  0.3137730356691139    0.3048052552109008    0.29577221028295636    0.28796562708931717    0.28265215289737283    
  0.28076607951422256    0.2826522411140811    0.2879658023638156    0.2957724695772132    0.3048055926951874    
  0.3137734421804917    0.3216043415282259    0.3275651604165155    0.33125149630576045    0.3324939408361101    
  0.286964860854685    0.28610627498794083    0.2837057797265713    0.2802405528703985    0.27639138021912457    
  0.27298033001017363    0.27095794278164576    0.2713496931161597    0.27507233578289947    0.2826521528973727    
  0.2939788402604032    0.3082072894359974    0.3238436204165766    0.33902718877467075    0.35200148036813095    
  0.36164172386381127    0.3677522103150004    0.37089743662494495    0.37183324456755    0.37089743662494495    
  0.3677522103150004    0.36164172386381127    0.35200148036813095    0.3390271887746708    0.3238436204165766    
  0.3082072894359974    0.2939788402604032    0.2826521528973727    0.27507233578289947    0.2713496931161597    
  0.27095794278164576    0.2729803300101736    0.27639138021912457    0.28024055287039856    0.2837057797265713    
  0.28610627498794083    0.286964860854685    0.2445082490547699    0.2442472024395597    0.2436622705266093    
  0.24327422408158675    0.243783408911137    0.24598730697412818    0.25076419035350955    0.25899679913150925    
  0.2713496103091068    0.2879656270893172    0.3082072894359974    0.33050282534148095    0.3523772551962158    
  0.37089259829168825    0.38364262347588024    0.38990817821802015    0.3911093175600573    0.3900438152795571    
  0.38933697310189813    0.3900438152795571    0.3911093175600573    0.3899081782180201    0.38364262347588024    
  0.37089259829168825    0.3523772551962158    0.33050282534148095    0.3082072894359974    0.2879656270893172    
  0.2713496103091068    0.25899679913150925    0.25076419035350955    0.24598730697412807    0.243783408911137    
  0.2432742240815868    0.24366227052660924    0.2442472024395597    0.2445082490547699    0.20885666810031242    
  0.20918583680397046    0.21035813091734956    0.21285795403511912    0.21734408410052256    0.22459066480263923    
  0.23546041754963035    0.25076411657668674    0.27095778292751543    0.2957722102829563    0.3238436204165766    
  0.35237725519621577    0.37715960899433165    0.3935736863165006    0.3987568216291388    0.39362655339956626    
  0.38293856543409033    0.37307292687311655    0.36914767653492    0.3730729268731166    0.38293856543409033    
  0.3936265533995662    0.3987568216291388    0.39357368631650064    0.3771596089943316    0.35237725519621577    
  0.3238436204165766    0.29577221028295625    0.2709577829275154    0.25076411657668674    0.23546041754963035    
  0.22459066480263923    0.21734408410052256    0.21285795403511917    0.21035813091734956    0.20918583680397046    
  0.20885666810031242    0.1807650306855807    0.1815976914027329    0.18426133351725876    0.1891960229390326    
  0.1970256913153468    0.20852859266824625    0.22459060160468203    0.2459871680550872    0.27298009994168065    
  0.30480525521090074    0.33902718877467086    0.37089259829168836    0.39357368631650064    0.40054141441073554    
  0.38959548465785476    0.3653752690284612    0.33759216330152636    0.31637352580999384    0.3085375460891352    
  0.31637352580999384    0.33759216330152636    0.3653752690284611    0.3895954846578548    0.4005414144107356    
  0.39357368631650064    0.37089259829168836    0.33902718877467086    0.3048052552109007    0.27298009994168065    
  0.24598716805508722    0.22459060160468203    0.20852859266824625    0.1970256913153468    0.18919602293903265    
  0.18426133351725876    0.1815976914027329    0.1807650306855807    0.15967945281753043    0.1609056709103912    
  0.16473744051940162    0.17159035490237295    0.18208295710400582    0.19702563938647444    0.21734396808829165    
  0.2437832142739345    0.2763910886980651    0.31377303566911396    0.35200148036813106    0.38364262347588024    
  0.39875682162913884    0.3895954846578547    0.3567698385320182    0.3108190922181151    0.2666433213707278    
  0.2361611757490501    0.2254592970492842    0.2361611757490501    0.2666433213707278    0.31081909221811505    
  0.3567698385320182    0.3895954846578547    0.3987568216291389    0.38364262347588024    0.35200148036813106    
  0.31377303566911396    0.2763910886980651    0.24378321427393462    0.21734396808829165    0.19702563938647438    
  0.18208295710400582    0.17159035490237295    0.16473744051940162    0.16090567091039124    0.15967945281753043    
  0.14460554099469952    0.14611710579972495    0.1508024660187695    0.15907908970909504    0.1715903151414778    
  0.18919593100719717    0.2128577966273906    0.243273984611032    0.28024021089000783    0.32160387839466315    
  0.3616417238638113    0.38990817821802004    0.3936265533995664    0.36537526902846107    0.31081909221811516    
  0.24730459885262426    0.19320095089274916    0.1590321107926799    0.14761653372852063    0.15903211079267993    
  0.1932009508927492    0.24730459885262424    0.31081909221811516    0.36537526902846107    0.3936265533995664    
  0.38990817821802004    0.3616417238638113    0.3216038783946631    0.28024021089000783    0.24327398461103195    
  0.21285779662739054    0.18919593100719717    0.1715903151414778    0.1590790897090951    0.1508024660187695    
  0.14611710579972498    0.14460554099469952    0.1345845225181638    0.13628611976400146    0.14154648965491046    
  0.1508024385318228    0.16473737359786755    0.1842612142019966    0.21035794444051437    0.24366199846000267    
  0.28370540031426256    0.32756465558996783    0.3677522103150005    0.3911093175600574    0.3829385654340904    
  0.3375921633015263    0.2666433213707278    0.19320095089274916    0.1365416845477608    0.10360619912935622    
  0.09313961299452818    0.1036061991293562    0.1365416845477608    0.19320095089274913    0.2666433213707278    
  0.3375921633015263    0.3829385654340904    0.3911093175600574    0.3677522103150005    0.32756465558996783    
  0.28370540031426256    0.24366199846000267    0.21035794444051437    0.18426121420199656    0.16473737359786758    
  0.15080243853182293    0.14154648965491046    0.1362861197640015    0.1345845225181638    0.12888465752775002    
  0.13069451053548597    0.1362861034451121    0.14611706244511166    0.16090558871781765    0.18159755670903835    
  0.20918563349129873    0.24424691076683558    0.28610587264167314    0.3312509661536082    0.37089743662494506    
  0.3900438152795571    0.3730729268731166    0.31637352580999384    0.2361611757490501    0.15903211079267998    
  0.10360619912935613    0.07340083097037285    0.0641880480528779    0.07340083097037278    0.10360619912935613    
  0.1590321107926799    0.2361611757490501    0.3163735258099939    0.37307292687311666    0.3900438152795571    
  0.37089743662494506    0.3312509661536082    0.28610587264167314    0.24424691076683552    0.20918563349129873    
  0.1815975567090383    0.16090558871781765    0.14611706244511172    0.1362861034451121    0.130694510535486    
  0.12888465752775002    0.12703965350390986    0.12888465199183047    0.13458450075869624    0.14460549248692495    
  0.15967936578337683    0.18076489112898284    0.2088564593418348    0.2445079508723096    0.28696445080345967    
  0.33249340221986756    0.37183324456755    0.3893369731018981    0.36914767653492    0.3085375460891352    
  0.22545929704928422    0.14761653372852065    0.09313961299452826    0.06418804805287784    0.05550211017348458    
  0.06418804805287782    0.09313961299452826    0.1476165337285207    0.22545929704928422    0.30853754608913525    
  0.36914767653492    0.3893369731018981    0.37183324456755    0.33249340221986756    0.28696445080345967    
  0.24450795087230956    0.2088564593418348    0.18076489112898284    0.15967936578337683    0.14460549248692503    
  0.1345845007586962    0.12888465199183052    0.12703965350390986    0.12888465752775    0.13069451053548597    
  0.1362861034451121    0.14611706244511166    0.16090558871781763    0.1815975567090383    0.2091856334912987    
  0.24424691076683558    0.28610587264167314    0.33125096615360816    0.37089743662494506    0.3900438152795571    
  0.3730729268731166    0.3163735258099938    0.23616117574905013    0.1590321107926799    0.10360619912935613    
  0.07340083097037284    0.06418804805287785    0.07340083097037282    0.10360619912935613    0.1590321107926799    
  0.23616117574905013    0.31637352580999384    0.3730729268731166    0.3900438152795571    0.37089743662494506    
  0.33125096615360816    0.28610587264167314    0.24424691076683558    0.2091856334912987    0.18159755670903824    
  0.16090558871781763    0.14611706244511177    0.13628610344511213    0.13069451053548597    0.12888465752775    
  0.1345845225181638    0.13628611976400146    0.14154648965491046    0.1508024385318228    0.16473737359786758    
  0.1842612142019966    0.21035794444051437    0.24366199846000267    0.28370540031426256    0.32756465558996783    
  0.3677522103150005    0.3911093175600574    0.3829385654340904    0.3375921633015263    0.2666433213707278    
  0.19320095089274913    0.1365416845477608    0.10360619912935622    0.09313961299452818    0.10360619912935617    
  0.1365416845477608    0.1932009508927491    0.2666433213707278    0.3375921633015263    0.3829385654340904    
  0.39110931756005735    0.3677522103150005    0.32756465558996783    0.28370540031426256    0.24366199846000267    
  0.21035794444051434    0.18426121420199656    0.16473737359786755    0.15080243853182296    0.14154648965491046    
  0.1362861197640015    0.1345845225181638    0.1446055409946996    0.14611710579972495    0.15080246601876957    
  0.159079089709095    0.17159031514147785    0.18919593100719723    0.2128577966273905    0.24327398461103203    
  0.2802402108900079    0.3216038783946631    0.36164172386381127    0.38990817821802004    0.3936265533995663    
  0.3653752690284611    0.31081909221811516    0.24730459885262426    0.19320095089274908    0.1590321107926799    
  0.14761653372852065    0.15903211079267981    0.1932009508927491    0.24730459885262424    0.31081909221811516    
  0.3653752690284611    0.3936265533995663    0.38990817821802004    0.36164172386381127    0.32160387839466303    
  0.2802402108900079    0.243273984611032    0.2128577966273905    0.18919593100719717    0.17159031514147782    
  0.15907908970909507    0.15080246601876957    0.14611710579972498    0.1446055409946996    0.15967945281753043    
  0.1609056709103912    0.16473744051940162    0.17159035490237293    0.18208295710400582    0.19702563938647444    
  0.21734396808829165    0.2437832142739345    0.2763910886980651    0.31377303566911396    0.35200148036813106    
  0.38364262347588024    0.3987568216291389    0.3895954846578547    0.3567698385320182    0.3108190922181151    
  0.2666433213707278    0.2361611757490501    0.2254592970492842    0.2361611757490501    0.2666433213707278    
  0.31081909221811505    0.3567698385320182    0.3895954846578547    0.39875682162913884    0.38364262347588024    
  0.35200148036813106    0.31377303566911396    0.2763910886980651    0.24378321427393462    0.21734396808829165    
  0.19702563938647438    0.18208295710400582    0.17159035490237298    0.16473744051940162    0.16090567091039124    
  0.15967945281753043    0.18076503068558067    0.1815976914027329    0.18426133351725876    0.18919602293903257    
  0.19702569131534672    0.20852859266824633    0.22459060160468203    0.24598716805508722    0.27298009994168065    
  0.3048052552109008    0.33902718877467086    0.37089259829168836    0.3935736863165008    0.40054141441073554    
  0.3895954846578547    0.3653752690284612    0.33759216330152636    0.31637352580999384    0.3085375460891352    
  0.3163735258099939    0.33759216330152636    0.3653752690284611    0.3895954846578547    0.4005414144107356    
  0.3935736863165008    0.37089259829168836    0.33902718877467086    0.30480525521090074    0.27298009994168065    
  0.24598716805508722    0.22459060160468203    0.20852859266824628    0.19702569131534672    0.1891960229390326    
  0.18426133351725874    0.1815976914027329    0.18076503068558067    0.20885666810031242    0.20918583680397046    
  0.21035813091734956    0.21285795403511912    0.21734408410052256    0.22459066480263928    0.23546041754963035    
  0.25076411657668674    0.2709577829275154    0.2957722102829563    0.3238436204165766    0.35237725519621577    
  0.3771596089943316    0.3935736863165006    0.3987568216291388    0.39362655339956626    0.38293856543409033    
  0.37307292687311655    0.36914767653492    0.3730729268731166    0.38293856543409033    0.3936265533995662    
  0.3987568216291388    0.39357368631650064    0.37715960899433165    0.35237725519621577    0.3238436204165766    
  0.29577221028295625    0.2709577829275154    0.25076411657668674    0.23546041754963035    0.22459066480263923    
  0.21734408410052256    0.21285795403511917    0.21035813091734956    0.2091858368039705    0.20885666810031242    
  0.2445082490547699    0.24424720243955975    0.2436622705266092    0.24327422408158686    0.243783408911137    
  0.24598730697412807    0.25076419035350955    0.2589967991315092    0.2713496103091068    0.28796562708931717    
  0.3082072894359974    0.33050282534148095    0.3523772551962158    0.3708925982916883    0.38364262347588024    
  0.38990817821802015    0.3911093175600573    0.39004381527955695    0.3893369731018981    0.390043815279557    
  0.3911093175600573    0.3899081782180201    0.38364262347588024    0.37089259829168836    0.3523772551962158    
  0.33050282534148095    0.3082072894359974    0.28796562708931717    0.2713496103091068    0.2589967991315092    
  0.25076419035350955    0.24598730697412807    0.243783408911137    0.24327422408158686    0.2436622705266092    
  0.24424720243955975    0.2445082490547699    0.286964860854685    0.28610627498794083    0.2837057797265713    
  0.2802405528703985    0.27639138021912457    0.27298033001017363    0.27095794278164576    0.2713496931161597    
  0.27507233578289947    0.2826521528973727    0.2939788402604032    0.3082072894359974    0.3238436204165766    
  0.33902718877467075    0.35200148036813095    0.36164172386381127    0.3677522103150004    0.37089743662494495    
  0.37183324456755    0.37089743662494495    0.3677522103150004    0.36164172386381127    0.35200148036813095    
  0.3390271887746708    0.3238436204165766    0.3082072894359974    0.2939788402604032    0.2826521528973727    
  0.27507233578289947    0.2713496931161597    0.27095794278164576    0.2729803300101736    0.27639138021912457    
  0.28024055287039856    0.2837057797265713    0.28610627498794083    0.286964860854685    0.3324939408361101    
  0.33125149630576056    0.3275651604165155    0.32160434152822587    0.3137734421804917    0.30480559269518753    
  0.2957724695772132    0.2879658023638155    0.2826522411140811    0.28076607951422256    0.28265215289737283    
  0.28796562708931717    0.2957722102829564    0.3048052552109007    0.3137730356691139    0.3216038783946632    
  0.32756465558996783    0.33125096615360816    0.3324934022198675    0.3312509661536082    0.32756465558996783    
  0.3216038783946631    0.3137730356691139    0.30480525521090074    0.2957722102829564    0.28796562708931717    
  0.28265215289737283    0.28076607951422256    0.2826522411140811    0.2879658023638156    0.2957724695772132    
  0.3048055926951875    0.3137734421804917    0.32160434152822587    0.32756516041651546    0.3312514963057605    
  0.3324939408361101    0.37183390817693185    0.3708980923750232    0.36775284189354035    0.36164231380916323    
  0.3520020110348899    0.33902764452397205    0.32384398964422534    0.3082075654741084    0.2939790212932228    
  0.2826522411140811    0.27507233578289947    0.27134961030910687    0.27095778292751554    0.2729800999416807    
  0.27639108869806517    0.28024021089000795    0.2837054003142625    0.2861058726416732    0.28696445080345967    
  0.2861058726416732    0.2837054003142625    0.2802402108900079    0.27639108869806517    0.27298009994168076    
  0.27095778292751554    0.27134961030910687    0.27507233578289947    0.2826522411140811    0.2939790212932228    
  0.3082075654741084    0.32384398964422534    0.33902764452397205    0.3520020110348899    0.3616423138091633    
  0.36775284189354035    0.3708980923750232    0.37183390817693185    0.38933772173899106    0.39004455953883405    
  0.39111004660733345    0.38990887612633485    0.38364326953811395    0.3708931710072711    0.35237773711850495    
  0.33050320586977516    0.3082075654741084    0.2879658023638156    0.2713496931161597    0.25899679913150914    
  0.25076411657668674    0.2459871680550872    0.2437832142739345    0.243273984611032    0.24366199846000267    
  0.24424691076683552    0.24450795087230956    0.24424691076683558    0.24366199846000267    0.24327398461103195    
  0.2437832142739345    0.24598716805508722    0.25076411657668674    0.25899679913150914    0.2713496931161597    
  0.2879658023638156    0.3082075654741084    0.33050320586977516    0.35237773711850495    0.370893171007271    
  0.38364326953811395    0.3899088761263349    0.39111004660733345    0.39004455953883405    0.38933772173899106    
  0.3691484261716813    0.37307367984299594    0.3829393241442432    0.393627308711186    0.39875755069848623    
  0.3935743584569497    0.37716019567993586    0.352377737118505    0.3238439896442253    0.2957724695772131    
  0.27095794278164576    0.25076419035350955    0.23546041754963043    0.22459060160468197    0.21734396808829165    
  0.2128577966273905    0.21035794444051434    0.2091856334912987    0.20885645934183478    0.20918563349129876    
  0.21035794444051434    0.21285779662739043    0.21734396808829165    0.22459060160468203    0.23546041754963043    
  0.25076419035350955    0.27095794278164576    0.29577246957721315    0.3238439896442253    0.352377737118505    
  0.37716019567993586    0.3935743584569496    0.39875755069848623    0.393627308711186    0.3829393241442432    
  0.3730736798429959    0.3691484261716813    0.30853819052190806    0.31637418405327333    0.3375928576006112    
  0.36537600462924996    0.38959624148837646    0.4005421515530472    0.3935743584569496    0.370893171007271    
  0.33902764452397194    0.3048055926951874    0.2729803300101736    0.245987306974128    0.22459066480263928    
  0.20852859266824622    0.19702563938647435    0.1891959310071972    0.18426121420199656    0.1815975567090383    
  0.18076489112898284    0.18159755670903827    0.18426121420199656    0.18919593100719714    0.19702563938647435    
  0.20852859266824622    0.22459066480263923    0.245987306974128    0.2729803300101735    0.3048055926951874    
  0.339027644523972    0.370893171007271    0.3935743584569496    0.4005421515530471    0.38959624148837646    
  0.36537600462925    0.3375928576006112    0.3163741840532733    0.30853819052190806    0.22545976676678617    
  0.2361616668916995    0.2666438741405172    0.3108197324698676    0.3567705594838328    0.38959624148837646    
  0.39875755069848623    0.38364326953811395    0.3520020110348899    0.31377344218049164    0.2763913802191246    
  0.243783408911137    0.2173440841005226    0.19702569131534675    0.18208295710400582    0.1715903151414778    
  0.1647373735978676    0.16090558871781768    0.15967936578337685    0.16090558871781768    0.1647373735978676    
  0.17159031514147777    0.1820829571040058    0.1970256913153468    0.21734408410052256    0.243783408911137    
  0.2763913802191246    0.31377344218049164    0.3520020110348899    0.38364326953811395    0.39875755069848623    
  0.3895962414883764    0.35677055948383274    0.31081973246986766    0.2666438741405172    0.23616166689169954    
  0.22545976676678617    0.14761684085352234    0.15903243916332388    0.19320134700034605    0.24730510837853903    
  0.31081973246986755    0.36537600462925    0.39362730871118606    0.3899088761263348    0.3616423138091632    
  0.3216043415282259    0.28024055287039856    0.24327422408158675    0.2128579540351192    0.18919602293903262    
  0.17159035490237282    0.1590790897090951    0.15080243853182285    0.14611706244511172    0.14460549248692486    
  0.14611706244511166    0.15080243853182285    0.159079089709095    0.17159035490237282    0.18919602293903262    
  0.2128579540351192    0.24327422408158675    0.2802405528703985    0.3216043415282259    0.3616423138091632    
  0.3899088761263348    0.3936273087111861    0.36537600462925    0.31081973246986755    0.24730510837853908    
  0.19320134700034605    0.15903243916332388    0.14761684085352234    0.09313982507526149    0.1036064262358374    
  0.13654196745488073    0.19320134700034605    0.26664387414051727    0.3375928576006113    0.3829393241442431    
  0.3911100466073334    0.36775284189354035    0.3275651604165154    0.2837057797265714    0.24366227052660924    