#     DFTpy    
  CRYSTAL 
    
  PRIMVEC    
  4.41475862068965    0.0    0.0    
  0.0    4.41475862068965    0.0    
  0.0    0.0    4.41475862068965    
  PRIMCOORD    
  4    1    
  Si    0.0    0.0    0.0    
  Si    0.0    2.2073793103448303    2.2073793103448303    
  Si    2.2073793103448303    0.0    2.2073793103448303    
  Si    2.2073793103448303    2.2073793103448303    0.0    
  BEGIN_BLOCK_DATAGRID_3D    
  3d_datagrid_density    
  BEGIN_DATAGRID_3D#0    
  46    46    46    
  0.0    0.0    0.0    
  4.414758637156784    0.0    0.0    
  0.0    4.414758637156784    0.0    
  0.0    0.0    4.414758637156784    
  0.05914238823704578    0.06653878540696487    0.09069125283463424    0.13539616218108133    0.20015865801616964    
  0.27370366763032017    0.33531124356888337    0.3663816684155658    0.36182107526419766    0.3303229575562871    
  0.2857704633992503    0.2394124152838714    0.19747867431027913    0.16234616860368578    0.1342625887667263    
  0.11248565465787828    0.09593745693991657    0.08358005538400463    0.07456211688989396    0.06820423277453369    
  0.06394984087225558    0.061360184558687456    0.060138063050925034    0.060138063050925034    0.06136018455868743    
  0.06394984087225562    0.06820423277453373    0.07456211688989396    0.08358005538400463    0.09593745693991658    
  0.11248565465787831    0.13426258876672628    0.16234616860368578    0.19747867431027907    0.23941241528387144    
  0.2857704633992503    0.3303229575562871    0.3618210752641977    0.36638166841556574    0.3353112435688833    
  0.27370366763032017    0.20015865801616964    0.13539616218108128    0.09069125283463424    0.06653878540696491    
  0.05914238823704578    0.06653878540696484    0.07428808285095025    0.09929643938637471    0.14472232777419353    
  0.20916619905841202    0.28081637735380466    0.33938486262181733    0.36742540572417853    0.36080938242711885    
  0.3284436217506046    0.2838626261510709    0.23786713935371906    0.19639249714617235    0.16168365619739325    
  0.13394769611474386    0.11244046317469775    0.09609622334423022    0.08389141902863889    0.07498576594294748    
  0.06870726524976158    0.06450525825942596    0.061946559000786966    0.060738608412497286    0.060738608412497314    
  0.061946559000786945    0.06450525825942598    0.06870726524976165    0.07498576594294748    0.08389141902863889    
  0.09609622334423026    0.11244046317469775    0.1339476961147438    0.16168365619739325    0.1963924971461723    
  0.23786713935371911    0.28386262615107083    0.3284436217506046    0.3608093824271189    0.36742540572417853    
  0.33938486262181733    0.2808163773538047    0.209166199058412    0.14472232777419347    0.09929643938637471    
  0.07428808285095029    0.06653878540696484    0.09069125283463422    0.0992964393863747    0.12623748684504954    
  0.17280805563539664    0.23521589549338884    0.3005298301049534    0.3500082886702173    0.3694630509193372    
  0.3572542628761511    0.3226706217166807    0.27817671904289837    0.23331437659630413    0.19321332378833683    
  0.15976138706518314    0.13305662368784377    0.11235197796695373    0.09661801976230959    0.08487322622336033    
  0.07630912744291388    0.07027467428672685    0.06623570013888627    0.06377458300541045    0.06261176017285469    
  0.06261176017285472    0.06377458300541045    0.0662357001388863    0.07027467428672685    0.07630912744291388    
  0.08487322622336033    0.09661801976230963    0.11235197796695376    0.13305662368784374    0.15976138706518314    
  0.19321332378833678    0.2333143765963042    0.2781767190428983    0.3226706217166807    0.3572542628761511    
  0.3694630509193372    0.3500082886702173    0.30052983010495343    0.2352158954933889    0.1728080556353966    
  0.12623748684504954    0.09929643938637477    0.09069125283463422    0.13539616218108133    0.14472232777419353    
  0.17280805563539664    0.21824823857387665    0.27438470761704353    0.3277651504968359    0.36269038870418624    
  0.36962357062007684    0.3498855938093538    0.31274305164046357    0.26888306048969957    0.22602727144385046    
  0.1881943120310632    0.1567885586926717    0.1317631021205027    0.11237391990698968    0.09765113859098004    
  0.08667949067199757    0.07869911671622044    0.07308975208799831    0.06934084242453907    0.06705707963566591    
  0.06597764143877007    0.06597764143877001    0.06705707963566591    0.06934084242453908    0.07308975208799831    
  0.07869911671622049    0.08667949067199754    0.0976511385909801    0.11237391990698971    0.13176310212050266    
  0.1567885586926717    0.18819431203106313    0.22602727144385054    0.2688830604896995    0.31274305164046357    
  0.3498855938093538    0.36962357062007684    0.3626903887041862    0.3277651504968359    0.2743847076170435    
  0.2182482385738766    0.17280805563539664    0.14472232777419355    0.13539616218108133    0.20015865801616967    
  0.20916619905841202    0.23521589549338884    0.2743847076170434    0.3181544276145009    0.3542133624282322    
  0.37120613752437315    0.3644162592733788    0.33741202434202283    0.2986057169722351    0.2564020571344345    
  0.2165092463859383    0.18178518685951087    0.15313999786306012    0.13038362755293026    0.11278925299931368    
  0.0994677859581215    0.08958870645156852    0.08245135916128978    0.07747059505340222    0.07416155215247723    
  0.07215329522449385    0.07120572804794094    0.07120572804794097    0.07215329522449382    0.07416155215247726    
  0.07747059505340222    0.08245135916128978    0.08958870645156848    0.09946778595812153    0.11278925299931368    
  0.13038362755293023    0.15313999786306012    0.1817851868595108    0.21650924638593835    0.2564020571344344    
  0.2986057169722351    0.3374120243420229    0.36441625927337873    0.3712061375243731    0.35421336242823226    
  0.3181544276145009    0.27438470761704337    0.23521589549338884    0.20916619905841208    0.20015865801616967    
  0.27370366763032017    0.28081637735380466    0.3005298301049535    0.327765150496836    0.3542133624282322    
  0.37045491374357054    0.36980000842544186    0.35127411626019167    0.3193117870031787    0.28070214917983927    
  0.2414700442130398    0.2054892565405728    0.17461744606395715    0.14934658966710782    0.1293741315554739    
  0.11401067084920026    0.102465230493958    0.09400284073679331    0.08798514626806916    0.08386021475969961    
  0.0811653191051426    0.07955065405478494    0.07879458131071161    0.07879458131071168    0.07955065405478494    
  0.08116531910514264    0.08386021475969961    0.08798514626806916    0.09400284073679328    0.10246523049395805    
  0.11401067084920026    0.12937413155547384    0.1493465896671078    0.1746174460639571    0.20548925654057285    
  0.2414700442130398    0.28070214917983927    0.3193117870031787    0.35127411626019167    0.3698000084254418    
  0.3704549137435706    0.3542133624282322    0.3277651504968359    0.3005298301049535    0.2808163773538047    
  0.27370366763032017    0.3353112435688833    0.33938486262181733    0.35000828867021744    0.36269038870418624    
  0.37120613752437315    0.3698000084254418    0.3556085511613194    0.32973717626061483    0.29625411713921285    
  0.26004552269846853    0.225089498577658    0.19384508404988882    0.16743031412617032    0.14603181919513436    
  0.12927862745756002    0.11654016522802116    0.10713392023799087    0.10042162594777805    0.095822038593773    
  0.09280804972764832    0.09092959387963395    0.08984910600406619    0.08935662578223193    0.08935662578223195    
  0.08984910600406613    0.09092959387963401    0.09280804972764835    0.095822038593773    0.10042162594777804    
  0.10713392023799083    0.11654016522802119    0.12927862745755997    0.1460318191951343    0.16743031412617027    
  0.19384508404988887    0.22508949857765795    0.26004552269846853    0.2962541171392129    0.32973717626061483    
  0.3556085511613194    0.3698000084254419    0.37120613752437315    0.3626903887041862    0.35000828867021744    
  0.3393848626218174    0.3353112435688833    0.36638166841556574    0.36742540572417853    0.3694630509193372    
  0.36962357062007684    0.36441625927337873    0.35127411626019167    0.3297371762606148    0.30158777527828773    
  0.2699479627578463    0.23804909883737232    0.20839139225610004    0.1824859273699426    0.16096452933457095    
  0.14381759877940603    0.1306505867066474    0.12090813434058532    0.11401499835332111    0.10941815915111591    
  0.1065782653248111    0.10497686557946843    0.10416005859313764    0.10378714102850975    0.10364806654822423    
  0.10364806654822423    0.10378714102850975    0.10416005859313773    0.10497686557946845    0.1065782653248111    
  0.1094181591511159    0.11401499835332106    0.12090813434058532    0.13065058670664734    0.14381759877940603    
  0.16096452933457092    0.18248592736994265    0.20839139225610004    0.23804909883737232    0.26994796275784644    
  0.30158777527828773    0.3297371762606148    0.3512741162601917    0.3644162592733788    0.36962357062007684    
  0.3694630509193372    0.36742540572417864    0.36638166841556574    0.36182107526419766    0.3608093824271188    
  0.35725426287615114    0.34988559380935375    0.33741202434202283    0.3193117870031787    0.29625411713921285    
  0.2699479627578464    0.24258470650658553    0.21623839514144458    0.19248081789804256    0.17224741590051354    
  0.15587687412579432    0.14325378715307824    0.1339989391080675    0.1276372991826066    0.12368271483578515    
  0.12163923215408341    0.1209809736841662    0.12117180351369637    0.12172893616746519    0.1222859754017746    
  0.12261590315013685    0.12261590315013685    0.1222859754017746    0.12172893616746523    0.12117180351369636    
  0.1209809736841662    0.12163923215408338    0.12368271483578513    0.12763729918260658    0.13399893910806746    
  0.1432537871530782    0.1558768741257943    0.17224741590051357    0.19248081789804256    0.21623839514144458    
  0.2425847065065856    0.2699479627578463    0.29625411713921285    0.3193117870031787    0.33741202434202283    
  0.3498855938093537    0.3572542628761511    0.3608093824271189    0.36182107526419766    0.3303229575562871    
  0.32844362175060465    0.3226706217166807    0.3127430516404636    0.2986057169722351    0.28070214917983927    
  0.26004552269846853    0.23804909883737238    0.21623839514144458    0.1959825499472946    0.17831112003777297    
  0.16382577416045263    0.15270666307694977    0.14480622761688816    0.13978937299298805    0.1372495841652181    
  0.13675036335055699    0.13780495868259288    0.13985741945713565    0.14231685945717895    0.14463894956334478    
  0.1464036492317474    0.14734664338402345    0.14734664338402348    0.1464036492317474    0.14463894956334486    
  0.14231685945717895    0.13985741945713565    0.13780495868259285    0.13675036335055696    0.1372495841652181    
  0.13978937299298805    0.14480622761688813    0.15270666307694974    0.16382577416045263    0.17831112003777297    
  0.1959825499472946    0.2162383951414446    0.23804909883737238    0.26004552269846853    0.2807021491798393    
  0.29860571697223515    0.31274305164046357    0.3226706217166807    0.3284436217506047    0.3303229575562871    
  0.2857704633992503    0.28386262615107083    0.2781767190428984    0.26888306048969945    0.2564020571344344    
  0.2414700442130398    0.22508949857765792    0.20839139225610004    0.19248081789804258    0.17831112003777294    
  0.16659337165547505    0.15774335341322865    0.1518803255404123    0.14888233157859768    0.14847041312854178    
  0.1502735436863386    0.15384402344443185    0.1586388853325995    0.16401676500429674    0.16928898042814514    
  0.17381555894481063    0.17709608776062072    0.1788107069293768    0.1788107069293768    0.17709608776062072    
  0.1738155589448107    0.16928898042814508    0.1640167650042967    0.15863888533259946    0.15384402344443185    
  0.15027354368633863    0.14847041312854176    0.14888233157859765    0.15188032554041228    0.15774335341322868    
  0.16659337165547505    0.17831112003777294    0.19248081789804256    0.2083913922561    0.22508949857765795    
  0.2414700442130398    0.2564020571344345    0.26888306048969945    0.2781767190428984    0.2838626261510709    
  0.2857704633992503    0.23941241528387144    0.23786713935371906    0.23331437659630413    0.22602727144385046    
  0.2165092463859383    0.20548925654057282    0.19384508404988876    0.18248592736994262    0.1722474159005135    
  0.1638257741604526    0.15774335341322868    0.1543297444337546    0.15371456022900784    0.15583492196514528    
  0.1604544930829442    0.16718245481328617    0.1754828900708058    0.18468082989595164    0.19398945709215457    
  0.20258178297738202    0.20969915301502387    0.21475180369064487    0.21736469756979201    0.21736469756979201    
  0.21475180369064487    0.2096991530150239    0.20258178297738197    0.19398945709215457    0.1846808298959516    
  0.17548289007080578    0.16718245481328617    0.16045449308294418    0.15583492196514526    0.15371456022900787    
  0.15432974443375463    0.15774335341322868    0.1638257741604526    0.1722474159005135    0.1824859273699426    
  0.19384508404988876    0.20548925654057282    0.2165092463859383    0.22602727144385046    0.23331437659630413    
  0.23786713935371911    0.23941241528387144    0.19747867431027913    0.19639249714617235    0.1932133237883368    
  0.18819431203106315    0.18178518685951087    0.17461744606395715    0.1674303141261703    0.16096452933457095    
  0.15587687412579432    0.15270666307694974    0.1518803255404123    0.15371456022900787    0.15839027709653436    
  0.16590215693379096    0.17601250552143002    0.1882357438798113    0.20185892658801105    0.2159895523387032    
  0.22962934097423132    0.24178209258658415    0.25158454351918014    0.2584111974197527    0.2618998427963729    
  0.2618998427963729    0.2584111974197527    0.2515845435191802    0.24178209258658415    0.22962934097423127    
  0.21598955233870318    0.20185892658801108    0.18823574387981132    0.17601250552143    0.16590215693379096    
  0.15839027709653433    0.15371456022900787    0.15188032554041234    0.15270666307694974    0.15587687412579432    
  0.16096452933457095    0.1674303141261703    0.17461744606395715    0.18178518685951087    0.18819431203106313    
  0.1932133237883368    0.19639249714617238    0.19747867431027913    0.16234616860368578    0.16168365619739325    
  0.15976138706518314    0.1567885586926717    0.1531399978630601    0.1493465896671078    0.1460318191951343    
  0.14381759877940603    0.14325378715307827    0.14480622761688813    0.14888233157859765    0.15583492196514526    
  0.16590215693379098    0.1790979255881884    0.1951106360872454    0.21326348343754997    0.23255116591587005    
  0.2517411343603813    0.26953001893132195    0.28474392869424553    0.2965309727310413    0.3044508075772356    
  0.3083962553440687    0.3083962553440687    0.3044508075772356    0.29653097273104134    0.2847439286942455    
  0.26953001893132195    0.25174113436038126    0.23255116591587008    0.21326348343754997    0.19511063608724538    
  0.17909792558818838    0.16590215693379098    0.15583492196514526    0.14888233157859765    0.14480622761688813    
  0.14325378715307824    0.143817598779406    0.14603181919513433    0.1493465896671078    0.1531399978630601    
  0.15678855869267166    0.1597613870651831    0.16168365619739328    0.16234616860368578    0.13426258876672634    
  0.13394769611474383    0.13305662368784377    0.13176310212050274    0.13038362755293026    0.1293741315554739    
  0.12927862745756    0.13065058670664736    0.1339989391080675    0.13978937299298805    0.14847041312854178    
  0.1604544930829442    0.17601250552143002    0.19511063608724535    0.21726249565618755    0.24145847914553442    
  0.266206544621781    0.28971465536647256    0.31023201576775566    0.32647862611207423    0.33796457293540605    
  0.34498105014106034    0.34821879144579937    0.34821879144579937    0.34498105014106034    0.3379645729354061    
  0.32647862611207423    0.31023201576775566    0.28971465536647256    0.266206544621781    0.24145847914553442    
  0.21726249565618755    0.19511063608724533    0.17601250552143    0.1604544930829442    0.14847041312854178    
  0.13978937299298805    0.13399893910806748    0.1306505867066473    0.12927862745756    0.12937413155547386    
  0.13038362755293026    0.1317631021205027    0.13305662368784377    0.13394769611474383    0.13426258876672634    
  0.11248565465787834    0.11244046317469779    0.11235197796695373    0.11237391990698971    0.11278925299931368    
  0.1140106708492003    0.11654016522802114    0.12090813434058532    0.1276372991826066    0.13724958416521815    
  0.1502735436863386    0.1671824548132862    0.18823574387981137    0.21326348343754994    0.24145847914553442    
  0.27123728788718715    0.3002727557780314    0.3258585681485153    0.34566514087708755    0.358615256920488    
  0.36533329779414814    0.3677860886991628    0.36826553568027665    0.36826553568027665    0.3677860886991628    
  0.36533329779414825    0.358615256920488    0.34566514087708755    0.32585856814851527    0.3002727557780314    
  0.27123728788718715    0.24145847914553442    0.21326348343754994    0.18823574387981135    0.1671824548132862    
  0.15027354368633863    0.13724958416521815    0.12763729918260655    0.12090813434058532    0.11654016522802119    
  0.11401067084920029    0.11278925299931372    0.11237391990698964    0.11235197796695376    0.11244046317469779    
  0.11248565465787834    0.09593745693991657    0.09609622334423024    0.09661801976230959    0.0976511385909801    
  0.09946778595812154    0.1024652304939581    0.10713392023799084    0.11401499835332111    0.1236827148357852    
  0.13675036335055699    0.15384402344443185    0.17548289007080578    0.20185892658801108    0.23255116591587005    
  0.26620654462178106    0.3002727557780313    0.3310659651206316    0.3545721903443267    0.36799263639127383    
  0.3712351672781258    0.3672212974206873    0.36065455752614606    0.3560405247859524    0.3560405247859523    
  0.36065455752614606    0.36722129742068743    0.3712351672781257    0.3679926363912739    0.3545721903443267    
  0.3310659651206316    0.30027275577803136    0.266206544621781    0.23255116591587005    0.20185892658801108    
  0.1754828900708058    0.15384402344443188    0.13675036335055699    0.12368271483578515    0.11401499835332109    
  0.10713392023799084    0.10246523049395805    0.09946778595812157    0.09765113859098004    0.09661801976230959    
  0.0960962233442302    0.09593745693991657    0.08358005538400463    0.08389141902863893    0.08487322622336033    
  0.08667949067199761    0.08958870645156852    0.09400284073679331    0.10042162594777804    0.10941815915111597    
  0.12163923215408345    0.13780495868259282    0.15863888533259946    0.18468082989595166    0.2159895523387032    
  0.25174113436038126    0.2897146553664726    0.3258585681485152    0.35457219034432674    0.3703938184937006    
  0.37074117239031884    0.35786433306719967    0.33824274274000715    0.3197738901953117    0.30885382626465047    
  0.30885382626465047    0.31977389019531177    0.33824274274000715    0.35786433306719967    0.3707411723903188    
  0.3703938184937005    0.35457219034432674    0.3258585681485152    0.28971465536647256    0.25174113436038126    
  0.2159895523387032    0.1846808298959517    0.15863888533259946    0.13780495868259282    0.12163923215408338    
  0.10941815915111591    0.10042162594777809    0.09400284073679326    0.08958870645156852    0.08667949067199757    
  0.08487322622336033    0.08389141902863893    0.08358005538400463    0.07456211688989389    0.07498576594294745    
  0.07630912744291389    0.07869911671622042    0.08245135916128975    0.0879851462680692    0.09582203859377297    
  0.10657826532481113    0.1209809736841662    0.13985741945713562    0.16401676500429666    0.1939894570921546    
  0.22962934097423132    0.26953001893132195    0.3102320157677557    0.34566514087708755    0.36799263639127394    
  0.3707411723903189    0.352914924866224    0.32068940553216474    0.28472244927417817    0.2552884698606001    
  0.23910942082902997    0.23910942082902997    0.2552884698606001    0.28472244927417817    0.32068940553216474    
  0.352914924866224    0.3707411723903189    0.3679926363912739    0.3456651408770875    0.3102320157677557    
  0.26953001893132195    0.22962934097423132    0.1939894570921546    0.1640167650042967    0.13985741945713562    
  0.12098097368416615    0.1065782653248111    0.09582203859377297    0.08798514626806916    0.08245135916128975    
  0.07869911671622042    0.07630912744291389    0.07498576594294738    0.07456211688989389    0.06820423277453373    
  0.06870726524976165    0.07027467428672687    0.07308975208799831    0.07747059505340229    0.0838602147596997    
  0.0928080497276483    0.10497686557946845    0.12117180351369636    0.14231685945717895    0.16928898042814505    
  0.202581782977382    0.24178209258658415    0.2847439286942455    0.3264786261120743    0.35861525692048796    
  0.37123516727812583    0.3578643330671997    0.32068940553216474    0.2708374576745443    0.22257687714480107    
  0.18664300588854568    0.1680333088037807    0.16803330880378073    0.1866430058885457    0.22257687714480107    
  0.2708374576745443    0.32068940553216474    0.35786433306719967    0.37123516727812583    0.35861525692048796    
  0.3264786261120743    0.2847439286942455    0.24178209258658415    0.20258178297738202    0.16928898042814508    
  0.14231685945717895    0.12117180351369633    0.10497686557946843    0.09280804972764838    0.08386021475969967    
  0.07747059505340231    0.07308975208799831    0.07027467428672687    0.0687072652497616    0.06820423277453373    
  0.0639498408722556    0.06450525825942593    0.06623570013888627    0.069340842424539    0.07416155215247722    
  0.0811653191051427    0.09092959387963388    0.10416005859313773    0.12172893616746522    0.1446389495633448    
  0.17381555894481068    0.2096991530150239    0.25158454351918014    0.2965309727310413    0.3379645729354061    
  0.365333297794148    0.3672212974206873    0.33824274274000704    0.28472244927417806    0.22257687714480107    
  0.16818332020988846    0.13083869691080618    0.11256537448392571    0.11256537448392571    0.13083869691080618    
  0.16818332020988846    0.22257687714480107    0.28472244927417806    0.33824274274000704    0.3672212974206873    
  0.365333297794148    0.3379645729354061    0.2965309727310413    0.2515845435191802    0.2096991530150239    
  0.1738155589448107    0.1446389495633448    0.12172893616746515    0.10416005859313769    0.09092959387963394    
  0.08116531910514263    0.07416155215247722    0.06934084242453897    0.06623570013888627    0.06450525825942591    
  0.0639498408722556    0.061360184558687476    0.061946559000786994    0.06377458300541049    0.06705707963566591    
  0.07215329522449379    0.07955065405478498    0.08984910600406619    0.1037871410285098    0.1222859754017746    
  0.14640364923174742    0.1770960877606207    0.21475180369064487    0.25841119741975277    0.3044508075772356    
  0.34498105014106034    0.3677860886991628    0.36065455752614606    0.3197738901953117    0.25528846986060005    
  0.18664300588854568    0.13083869691080607    0.0949820930031163    0.07828488936099862    0.0782848893609987    
  0.09498209300311632    0.13083869691080618    0.1866430058885457    0.25528846986060005    0.3197738901953117    
  0.36065455752614606    0.3677860886991628    0.34498105014106034    0.30445080757723547    0.25841119741975277    
  0.21475180369064487    0.17709608776062072    0.14640364923174742    0.12228597540177452    0.10378714102850978    
  0.08984910600406623    0.07955065405478497    0.07215329522449393    0.0670570796356659    0.06377458300541049    
  0.061946559000786945    0.061360184558687476    0.06013806305092508    0.060738608412497265    0.06261176017285465    
  0.06597764143877004    0.0712057280479409    0.07879458131071176    0.08935662578223191    0.10364806654822423    
  0.12261590315013687    0.14734664338402348    0.1788107069293768    0.21736469756979204    0.26189984279637296    
  0.3083962553440687    0.3482187914457994    0.3682655356802766    0.35604052478595233    0.30885382626465036    
  0.23910942082902983    0.16803330880378073    0.11256537448392566    0.07828488936099866    0.06279829747902504    
  0.06279829747902506    0.07828488936099869    0.11256537448392566    0.16803330880378073    0.23910942082902983    
  0.30885382626465036    0.3560405247859524    0.36826553568027653    0.34821879144579937    0.3083962553440687    
  0.26189984279637296    0.21736469756979204    0.17881070692937684    0.14734664338402348    0.12261590315013678    
  0.10364806654822423    0.08935662578223195    0.07879458131071171    0.07120572804794097    0.06597764143877001    
  0.06261176017285465    0.060738608412497244    0.06013806305092508    0.06013806305092508    0.060738608412497286    
  0.06261176017285466    0.06597764143877004    0.07120572804794097    0.07879458131071174    0.08935662578223191    
  0.10364806654822423    0.12261590315013689    0.1473466433840234    0.1788107069293768    0.21736469756979204    
  0.2618998427963729    0.3083962553440687    0.3482187914457994    0.36826553568027665    0.3560405247859523    
  0.30885382626465047    0.23910942082902983    0.16803330880378076    0.11256537448392571    0.07828488936099867    
  0.06279829747902506    0.06279829747902506    0.07828488936099871    0.11256537448392571    0.16803330880378076    
  0.23910942082902983    0.30885382626465036    0.3560405247859523    0.36826553568027665    0.34821879144579937    
  0.3083962553440687    0.26189984279637296    0.21736469756979204    0.1788107069293768    0.1473466433840234    
  0.12261590315013678    0.10364806654822423    0.08935662578223195    0.07879458131071161    0.071205728047941    
  0.06597764143876997    0.06261176017285466    0.060738608412497216    0.06013806305092508    0.061360184558687476    
  0.061946559000786994    0.06377458300541047    0.06705707963566597    0.07215329522449386    0.07955065405478504    
  0.08984910600406613    0.10378714102850975    0.1222859754017746    0.14640364923174742    0.17709608776062066    
  0.21475180369064487    0.25841119741975277    0.3044508075772356    0.34498105014106034    0.36778608869916285    
  0.36065455752614606    0.31977389019531177    0.25528846986060005    0.18664300588854574    0.13083869691080616    
  0.09498209300311625    0.07828488936099862    0.07828488936099864    0.0949820930031163    0.13083869691080616    
  0.18664300588854574    0.25528846986060005    0.3197738901953117    0.36065455752614606    0.3677860886991628    
  0.34498105014106034    0.3044508075772355    0.25841119741975277    0.21475180369064487    0.1770960877606207    
  0.14640364923174742    0.1222859754017745    0.10378714102850975    0.08984910600406619    0.07955065405478498    
  0.07215329522449392    0.0670570796356659    0.06377458300541047    0.061946559000786945    0.061360184558687476    
  0.06394984087225558    0.06450525825942598    0.06623570013888627    0.06934084242453907    0.07416155215247722    
  0.0811653191051427    0.09092959387963398    0.10416005859313773    0.12172893616746522    0.1446389495633448    
  0.17381555894481066    0.2096991530150239    0.25158454351918014    0.29653097273104134    0.3379645729354061    
  0.365333297794148    0.3672212974206873    0.33824274274000704    0.28472244927417806    0.22257687714480107    
  0.16818332020988846    0.13083869691080613    0.11256537448392573    0.11256537448392571    0.13083869691080613    
  0.1681833202098885    0.22257687714480107    0.28472244927417806    0.33824274274000704    0.3672212974206873    
  0.365333297794148    0.3379645729354061    0.29653097273104123    0.25158454351918014    0.20969915301502393    
  0.17381555894481068    0.1446389495633448    0.12172893616746515    0.10416005859313769    0.09092959387963402    
  0.08116531910514264    0.07416155215247722    0.069340842424539    0.0662357001388862    0.06450525825942593    
  0.06394984087225558    0.06820423277453373    0.06870726524976165    0.07027467428672689    0.07308975208799831    
  0.07747059505340227    0.0838602147596997    0.09280804972764838    0.10497686557946845    0.12117180351369636    
  0.14231685945717892    0.169288980428145    0.202581782977382    0.24178209258658415    0.2847439286942455    
  0.32647862611207423    0.35861525692048796    0.37123516727812583    0.3578643330671997    0.32068940553216474    
  0.27083745767454426    0.22257687714480107    0.18664300588854568    0.1680333088037807    0.16803330880378076    
  0.18664300588854574    0.22257687714480107    0.27083745767454426    0.32068940553216474    0.35786433306719967    
  0.37123516727812583    0.35861525692048796    0.32647862611207423    0.2847439286942455    0.24178209258658415    
  0.202581782977382    0.16928898042814505    0.14231685945717892    0.12117180351369633    0.10497686557946838    
  0.09280804972764838    0.08386021475969967    0.07747059505340231    0.07308975208799831    0.07027467428672694    
  0.06870726524976162    0.06820423277453373    0.07456211688989389    0.07498576594294745    0.07630912744291389    
  0.07869911671622042    0.08245135916128975    0.0879851462680692    0.09582203859377297    0.10657826532481113    
  0.1209809736841662    0.13985741945713562    0.16401676500429666    0.1939894570921546    0.22962934097423132    
  0.26953001893132195    0.3102320157677557    0.34566514087708755    0.36799263639127394    0.3707411723903189    