#     DFTpy    
  CRYSTAL 
    
  PRIMVEC    
  2.9353448275862104    0.0    0.0    
  0.0    2.9353448275862104    0.0    
  0.0    0.0    2.9353448275862104    
  PRIMCOORD    
  4    1    
  Si    0.0    0.0    0.0    
  Si    0.0    1.4676724137931003    1.4676724137931003    
  Si    1.4676724137931003    0.0    1.4676724137931003    
  Si    1.4676724137931003    1.4676724137931003    0.0    
  BEGIN_BLOCK_DATAGRID_3D    
  3d_datagrid_density    
  BEGIN_DATAGRID_3D#0    
  28    28    28    
  0.0    0.0    0.0    
  2.935344838535103    0.0    0.0    
  0.0    2.935344838535103    0.0    
  0.0    0.0    2.935344838535103    
  0.04746941521346861    0.05741225426269164    0.09223206484780408    0.16316448898285615    0.2750406374212534    
  0.4111480720410612    0.5351418691868443    0.6148420420622233    0.6428128816000206    0.6336067666239488    
  0.6077268853529788    0.5804836765861096    0.5599833284753242    0.5493546041004339    0.5493546041004339    
  0.5599833284753242    0.5804836765861094    0.6077268853529787    0.6336067666239488    0.6428128816000206    
  0.6148420420622233    0.5351418691868443    0.4111480720410612    0.2750406374212533    0.16316448898285615    
  0.09223206484780416    0.05741225426269173    0.04746941521346861    0.057412254262691455    0.06828299626205782    
  0.10558597025448335    0.1793898131827795    0.2925560496680706    0.42702417328422876    0.5471833037109253    
  0.6229908415456158    0.6485400204656979    0.6384585793337051    0.6125583323323868    0.5855366953006983    
  0.5652225655604167    0.554684408119235    0.554684408119235    0.5652225655604167    0.5855366953006983    
  0.6125583323323868    0.6384585793337051    0.648540020465698    0.6229908415456159    0.5471833037109253    
  0.42702417328422876    0.2925560496680706    0.17938981318277958    0.10558597025448349    0.06828299626205782    
  0.057412254262691455    0.09223206484780389    0.10558597025448327    0.14924018535199654    0.22960264312814857    
  0.34422909583557526    0.4721861168888494    0.5806535332574956    0.6455084970038764    0.6646041347291874    
  0.6523953288637633    0.6266527856617243    0.6003789059701157    0.5806572604140672    0.5704043149209291    
  0.570404314920929    0.5806572604140672    0.6003789059701156    0.6266527856617243    0.6523953288637633    
  0.6646041347291874    0.6455084970038765    0.5806535332574955    0.4721861168888494    0.34422909583557526    
  0.22960264312814857    0.1492401853519967    0.10558597025448341    0.09223206484780389    0.16316448898285607    
  0.1793898131827795    0.22960264312814857    0.31445584592798204    0.42496810137445495    0.5385225310024621    
  0.6279037570784803    0.6770315454074581    0.6877461994553085    0.673306674765123    0.6483115922832904    
  0.6233925487420735    0.6046536944404732    0.5948573031409723    0.5948573031409722    0.6046536944404732    
  0.6233925487420734    0.6483115922832904    0.673306674765123    0.6877461994553085    0.6770315454074582    
  0.6279037570784803    0.5385225310024622    0.42496810137445495    0.31445584592798204    0.22960264312814857    
  0.1793898131827797    0.16316448898285607    0.2750406374212531    0.2925560496680705    0.3442290958355755    
  0.42496810137445507    0.521241247022847    0.6120668854820416    0.6778776371180729    0.7101629857456748    
  0.7130304069367149    0.6971842311273533    0.6734770174980319    0.6500863108718385    0.6322640688110891    
  0.6228161586083863    0.6228161586083862    0.6322640688110891    0.6500863108718384    0.6734770174980319    
  0.6971842311273533    0.7130304069367149    0.7101629857456749    0.6778776371180728    0.6120668854820416    
  0.521241247022847    0.42496810137445507    0.34422909583557554    0.2925560496680706    0.2750406374212531    
  0.41114807204106113    0.42702417328422887    0.47218611688884965    0.5385225310024622    0.6120668854820416    
  0.6764755837240212    0.7195416202429695    0.7376425161847768    0.7346987986493125    0.7179483335115545    
  0.6947172308548303    0.6713419966664033    0.652893285923099    0.6428296201011663    0.6428296201011662    
  0.652893285923099    0.6713419966664032    0.6947172308548303    0.7179483335115545    0.7346987986493125    
  0.7376425161847769    0.7195416202429695    0.6764755837240212    0.6120668854820416    0.5385225310024622    
  0.47218611688884965    0.42702417328422887    0.41114807204106113    0.5351418691868443    0.5471833037109254    
  0.5806535332574957    0.6279037570784803    0.6778776371180729    0.7195416202429695    0.7456381862573124    
  0.7541301079743993    0.7468349471442761    0.7274436995398266    0.7007638178878369    0.6726819780672826    
  0.6494861037415297    0.6364259663562919    0.6364259663562917    0.6494861037415297    0.6726819780672826    
  0.7007638178878368    0.7274436995398266    0.746834947144276    0.7541301079743994    0.7456381862573124    
  0.7195416202429695    0.6778776371180729    0.6279037570784803    0.5806535332574956    0.5471833037109255    
  0.5351418691868443    0.614842042062223    0.6229908415456158    0.6455084970038766    0.6770315454074582    
  0.7101629857456748    0.7376425161847769    0.7541301079743993    0.7565579285557222    0.7436583107719126    
  0.7162381498174719    0.6783570214270482    0.6376555348369846    0.6035423949168056    0.5841905161588626    
  0.5841905161588626    0.6035423949168056    0.6376555348369845    0.6783570214270482    0.7162381498174719    
  0.7436583107719126    0.7565579285557223    0.7541301079743993    0.7376425161847769    0.7101629857456748    
  0.6770315454074582    0.6455084970038766    0.6229908415456159    0.614842042062223    0.6428128816000204    
  0.6485400204656979    0.6646041347291874    0.6877461994553083    0.7130304069367148    0.7346987986493124    
  0.746834947144276    0.7436583107719125    0.7205774727368679    0.676919124335744    0.6186432079260044    
  0.5578023790755471    0.5082160489901669    0.48067623803596443    0.48067623803596427    0.5082160489901668    
  0.5578023790755471    0.6186432079260044    0.676919124335744    0.7205774727368679    0.7436583107719126    
  0.746834947144276    0.7346987986493124    0.7130304069367147    0.6877461994553085    0.6646041347291874    
  0.648540020465698    0.6428128816000204    0.6336067666239488    0.6384585793337052    0.6523953288637635    
  0.6733066747651228    0.6971842311273533    0.7179483335115545    0.7274436995398266    0.716238149817472    
  0.6769191243357443    0.6096965213527872    0.5257200043322936    0.44340686487847375    0.3800915025676272    
  0.34638080302463237    0.34638080302463226    0.3800915025676272    0.44340686487847364    0.5257200043322936    
  0.6096965213527872    0.6769191243357442    0.7162381498174721    0.7274436995398266    0.7179483335115545    
  0.6971842311273533    0.673306674765123    0.6523953288637635    0.6384585793337052    0.6336067666239488    
  0.6077268853529787    0.6125583323323869    0.6266527856617243    0.6483115922832904    0.6734770174980321    
  0.6947172308548303    0.7007638178878369    0.6783570214270481    0.6186432079260045    0.5257200043322935    
  0.4186365853470054    0.3219741891316945    0.2532168455089941    0.21870078749170496    0.21870078749170477    
  0.253216845508994    0.32197418913169445    0.4186365853470054    0.5257200043322935    0.6186432079260045    
  0.6783570214270482    0.7007638178878369    0.6947172308548303    0.673477017498032    0.6483115922832904    
  0.6266527856617242    0.612558332332387    0.6077268853529787    0.5804836765861094    0.5855366953006983    
  0.6003789059701157    0.6233925487420737    0.6500863108718384    0.6713419966664033    0.6726819780672825    
  0.6376555348369845    0.5578023790755471    0.44340686487847364    0.32197418913169445    0.2217703575278327    
  0.1566375935619644    0.12618935141625015    0.12618935141625007    0.1566375935619644    0.2217703575278326    
  0.32197418913169445    0.44340686487847364    0.5578023790755471    0.6376555348369846    0.6726819780672825    
  0.6713419966664033    0.6500863108718384    0.6233925487420737    0.6003789059701156    0.5855366953006983    
  0.5804836765861094    0.5599833284753241    0.565222565560417    0.5806572604140674    0.6046536944404732    
  0.6322640688110893    0.6528932859230991    0.6494861037415296    0.6035423949168056    0.5082160489901669    
  0.3800915025676273    0.25321684550899415    0.1566375935619644    0.09903239469792433    0.07397269980898209    
  0.073972699808982    0.09903239469792433    0.1566375935619644    0.2532168455089941    0.3800915025676273    
  0.5082160489901669    0.6035423949168058    0.6494861037415296    0.6528932859230991    0.6322640688110893    
  0.6046536944404732    0.5806572604140674    0.5652225655604171    0.5599833284753241    0.5493546041004339    
  0.5546844081192351    0.5704043149209292    0.5948573031409725    0.6228161586083862    0.6428296201011662    
  0.6364259663562919    0.5841905161588626    0.48067623803596443    0.34638080302463237    0.21870078749170457    
  0.12618935141625007    0.07397269980898219    0.052333202768784524    0.05233320276878443    0.07397269980898219    
  0.12618935141624996    0.21870078749170457    0.34638080302463237    0.4806762380359643    0.5841905161588629    
  0.6364259663562917    0.6428296201011662    0.6228161586083862    0.5948573031409725    0.5704043149209291    
  0.5546844081192353    0.5493546041004339    0.5493546041004339    0.5546844081192353    0.5704043149209292    
  0.5948573031409725    0.6228161586083863    0.6428296201011662    0.6364259663562919    0.5841905161588626    
  0.48067623803596443    0.34638080302463226    0.21870078749170463    0.12618935141625015    0.07397269980898219    
  0.052333202768784524    0.05233320276878443    0.07397269980898227    0.12618935141625007    0.21870078749170463    
  0.34638080302463226    0.48067623803596443    0.5841905161588629    0.6364259663562917    0.6428296201011662    
  0.6228161586083862    0.5948573031409725    0.5704043149209292    0.5546844081192354    0.5493546041004339    
  0.5599833284753241    0.5652225655604171    0.5806572604140674    0.6046536944404732    0.6322640688110892    
  0.6528932859230991    0.6494861037415296    0.6035423949168056    0.5082160489901669    0.3800915025676272    
  0.2532168455089941    0.15663759356196444    0.09903239469792452    0.073972699808982    0.073972699808982    
  0.09903239469792452    0.1566375935619644    0.2532168455089941    0.3800915025676272    0.5082160489901669    
  0.6035423949168058    0.6494861037415297    0.6528932859230991    0.6322640688110892    0.6046536944404732    
  0.5806572604140674    0.5652225655604171    0.5599833284753241    0.5804836765861094    0.5855366953006981    
  0.6003789059701156    0.6233925487420735    0.6500863108718384    0.6713419966664032    0.6726819780672825    
  0.6376555348369846    0.5578023790755471    0.44340686487847364    0.32197418913169457    0.2217703575278327    
  0.1566375935619644    0.12618935141625015    0.12618935141625007    0.1566375935619644    0.2217703575278326    
  0.3219741891316945    0.44340686487847364    0.5578023790755471    0.6376555348369847    0.6726819780672825    
  0.6713419966664033    0.6500863108718384    0.6233925487420735    0.6003789059701157    0.5855366953006982    
  0.5804836765861094    0.6077268853529786    0.6125583323323869    0.6266527856617244    0.6483115922832904    
  0.6734770174980319    0.6947172308548303    0.7007638178878368    0.6783570214270481    0.6186432079260045    
  0.5257200043322935    0.4186365853470054    0.32197418913169457    0.253216845508994    0.21870078749170488    
  0.21870078749170477    0.253216845508994    0.32197418913169445    0.4186365853470054    0.5257200043322935    
  0.6186432079260045    0.6783570214270482    0.7007638178878368    0.6947172308548303    0.6734770174980319    
  0.6483115922832904    0.6266527856617243    0.6125583323323869    0.6077268853529786    0.6336067666239488    
  0.6384585793337052    0.6523953288637635    0.6733066747651228    0.6971842311273533    0.7179483335115545    
  0.7274436995398266    0.716238149817472    0.6769191243357443    0.6096965213527872    0.5257200043322936    
  0.44340686487847375    0.3800915025676272    0.34638080302463237    0.34638080302463226    0.3800915025676272    
  0.44340686487847364    0.5257200043322936    0.6096965213527872    0.6769191243357442    0.7162381498174721    
  0.7274436995398266    0.7179483335115545    0.6971842311273533    0.673306674765123    0.6523953288637635    
  0.6384585793337052    0.6336067666239488    0.6428128816000204    0.6485400204656979    0.6646041347291874    
  0.6877461994553083    0.7130304069367147    0.7346987986493124    0.746834947144276    0.7436583107719126    
  0.7205774727368679    0.6769191243357441    0.6186432079260044    0.5578023790755472    0.5082160489901669    
  0.48067623803596443    0.48067623803596427    0.5082160489901669    0.5578023790755471    0.6186432079260044    
  0.6769191243357441    0.7205774727368679    0.7436583107719127    0.746834947144276    0.7346987986493124    
  0.7130304069367147    0.6877461994553083    0.6646041347291874    0.648540020465698    0.6428128816000204    
  0.6148420420622231    0.6229908415456158    0.6455084970038765    0.6770315454074582    0.7101629857456748    
  0.7376425161847769    0.7541301079743993    0.7565579285557222    0.7436583107719126    0.7162381498174719    
  0.6783570214270481    0.6376555348369846    0.6035423949168056    0.5841905161588627    0.5841905161588626    
  0.6035423949168056    0.6376555348369845    0.6783570214270482    0.7162381498174719    0.7436583107719126    
  0.7565579285557223    0.7541301079743993    0.7376425161847769    0.7101629857456748    0.6770315454074582    
  0.6455084970038766    0.6229908415456159    0.6148420420622231    0.5351418691868443    0.5471833037109253    
  0.5806535332574956    0.6279037570784803    0.677877637118073    0.7195416202429695    0.7456381862573124    
  0.7541301079743993    0.7468349471442761    0.7274436995398266    0.7007638178878369    0.6726819780672827    
  0.6494861037415297    0.6364259663562917    0.6364259663562917    0.6494861037415297    0.6726819780672826    
  0.7007638178878369    0.7274436995398266    0.746834947144276    0.7541301079743994    0.7456381862573124    
  0.7195416202429695    0.6778776371180729    0.6279037570784803    0.5806535332574956    0.5471833037109254    
  0.5351418691868443    0.41114807204106113    0.42702417328422876    0.47218611688884965    0.5385225310024624    
  0.6120668854820416    0.6764755837240212    0.7195416202429695    0.7376425161847768    0.7346987986493125    
  0.7179483335115545    0.6947172308548304    0.6713419966664033    0.652893285923099    0.6428296201011663    
  0.6428296201011662    0.652893285923099    0.6713419966664032    0.6947172308548303    0.7179483335115545    
  0.7346987986493125    0.7376425161847769    0.7195416202429695    0.6764755837240212    0.6120668854820416    
  0.5385225310024624    0.4721861168888497    0.42702417328422876    0.41114807204106113    0.2750406374212533    
  0.2925560496680705    0.3442290958355755    0.42496810137445507    0.521241247022847    0.6120668854820415    
  0.6778776371180729    0.7101629857456748    0.7130304069367149    0.6971842311273533    0.6734770174980319    
  0.6500863108718385    0.6322640688110891    0.6228161586083862    0.6228161586083862    0.6322640688110891    
  0.6500863108718384    0.6734770174980319    0.6971842311273533    0.7130304069367149    0.7101629857456749    
  0.6778776371180729    0.6120668854820415    0.5212412470228469    0.42496810137445495    0.34422909583557554    
  0.2925560496680706    0.2750406374212533    0.16316448898285602    0.1793898131827794    0.22960264312814857    
  0.31445584592798204    0.42496810137445495    0.5385225310024621    0.6279037570784802    0.6770315454074581    
  0.6877461994553085    0.6733066747651228    0.6483115922832904    0.6233925487420735    0.6046536944404732    
  0.5948573031409723    0.5948573031409722    0.6046536944404732    0.6233925487420734    0.6483115922832904    
  0.6733066747651228    0.6877461994553085    0.6770315454074582    0.6279037570784802    0.5385225310024621    
  0.42496810137445495    0.31445584592798204    0.2296026431281485    0.17938981318277958    0.16316448898285602    
  0.09223206484780398    0.10558597025448335    0.14924018535199657    0.22960264312814857    0.34422909583557526    
  0.4721861168888494    0.5806535332574956    0.6455084970038764    0.6646041347291874    0.6523953288637634    
  0.6266527856617243    0.6003789059701156    0.5806572604140672    0.570404314920929    0.570404314920929    
  0.5806572604140672    0.6003789059701155    0.6266527856617243    0.6523953288637634    0.6646041347291874    
  0.6455084970038765    0.5806535332574955    0.47218611688884965    0.34422909583557526    0.22960264312814857    
  0.1492401853519967    0.10558597025448341    0.09223206484780398    0.057412254262691594    0.06828299626205782    
  0.10558597025448345    0.1793898131827794    0.2925560496680705    0.42702417328422876    0.5471833037109253    
  0.6229908415456158    0.6485400204656979    0.6384585793337051    0.6125583323323869    0.5855366953006984    
  0.5652225655604167    0.5546844081192351    0.554684408119235    0.5652225655604167    0.5855366953006983    
  0.6125583323323868    0.6384585793337051    0.648540020465698    0.6229908415456159    0.5471833037109253    
  0.42702417328422876    0.2925560496680705    0.1793898131827795    0.10558597025448349    0.06828299626205782    
  0.057412254262691594    0.04746941521346861    0.05741225426269164    0.09223206484780408    0.16316448898285615    
  0.2750406374212534    0.4111480720410612    0.5351418691868443    0.6148420420622233    0.6428128816000206    
  0.6336067666239488    0.6077268853529788    0.5804836765861096    0.5599833284753242    0.5493546041004339    
  0.5493546041004339    0.5599833284753242    0.5804836765861094    0.6077268853529787    0.6336067666239488    
  0.6428128816000206    0.6148420420622233    0.5351418691868443    0.4111480720410612    0.2750406374212533    
  0.16316448898285615    0.09223206484780416    0.05741225426269173    0.04746941521346861    0.057412254262691455    
  0.06828299626205772    0.10558597025448331    0.17938981318277958    0.2925560496680706    0.42702417328422876    
  0.5471833037109252    0.6229908415456158    0.6485400204656979    0.6384585793337051    0.6125583323323868    
  0.5855366953006983    0.565222565560417    0.5546844081192351    0.554684408119235    0.565222565560417    
  0.5855366953006982    0.6125583323323868    0.6384585793337051    0.648540020465698    0.6229908415456159    
  0.547183303710925    0.42702417328422876    0.2925560496680704    0.17938981318277958    0.10558597025448341    
  0.06828299626205778    0.057412254262691455    0.06828299626205754    0.0800417249929897    0.11966947959243529    
  0.1960243865925967    0.3100783843675126    0.4426083769780314    0.5588442662202289    0.6308193239234858    
  0.6540375695065486    0.6431453280140623    0.6172666223927843    0.5905000800520138    0.5703995491515468    
  0.5599678617454455    0.5599678617454454    0.5703995491515467    0.5905000800520138    0.6172666223927843    
  0.6431453280140623    0.6540375695065486    0.6308193239234859    0.5588442662202289    0.4426083769780314    
  0.3100783843675126    0.1960243865925967    0.11966947959243548    0.0800417249929897    0.06828299626205754    
  0.10558597025448317    0.11966947959243525    0.16510318178835479    0.24705416404956296    0.361479402156111    
  0.48677471695726166    0.5911781332577961    0.6524254966393068    0.669459570654376    0.6566189704286436    
  0.6310101356477514    0.6050806901545968    0.5856462823831152    0.5755428687776608    0.5755428687776606    
  0.5856462823831152    0.6050806901545966    0.6310101356477514    0.6566189704286436    0.669459570654376    
  0.6524254966393069    0.5911781332577961    0.4867747169572617    0.36147940215611096    0.24705416404956296    
  0.16510318178835498    0.11966947959243543    0.10558597025448317    0.1793898131827795    0.19602438659259658    
  0.24705416404956296    0.33206419761078587    0.441014102756692    0.5512155526678995    0.6366218459694476    
  0.6826105025578758    0.6916899912633777    0.6768733496669772    0.6521622182414764    0.6277066438022756    
  0.609354935794826    0.5997672687954201    0.5997672687954201    0.609354935794826    0.6277066438022754    
  0.6521622182414764    0.6768733496669772    0.6916899912633778    0.6826105025578759    0.6366218459694476    
  0.5512155526678995    0.441014102756692    0.3320641976107858    0.24705416404956296    0.19602438659259672    
  0.1793898131827795    0.2925560496680704    0.31007838436751256    0.36147940215611124    0.4410141027566922    
  0.5347369571235905    0.6220420490139976    0.6844033305381023    0.7142647360753658    0.7160251139638159    
  0.700092525178105    0.6768383144591954    0.654048203227703    0.6367302327934108    0.6275610384353463    
  0.627561038435346    0.6367302327934109    0.6540482032277029    0.6768383144591954    0.700092525178105    
  0.7160251139638159    0.7142647360753659    0.6844033305381023    0.6220420490139976    0.5347369571235905    
  0.4410141027566922    0.36147940215611135    0.3100783843675126    0.2925560496680704    0.42702417328422865    
  0.4426083769780314    0.4867747169572618    0.5512155526678995    0.6220420490139976    0.6834427293006551    
  0.7239576316763876    0.7404793713534178    0.7369963692889938    0.7204933974739173    0.6979471572113486    
  0.6753758243245657    0.6576009463553704    0.6479144587845913    0.6479144587845913    0.6576009463553704    
  0.6753758243245656    0.6979471572113486    0.7204933974739173    0.7369963692889938    0.7404793713534179    
  0.7239576316763876    0.6834427293006551    0.6220420490139976    0.5512155526678995    0.4867747169572618    
  0.44260837697803146    0.42702417328422865    0.5471833037109252    0.558844266220229    0.5911781332577963    
  0.6366218459694477    0.6844033305381024    0.7239576316763876    0.7484910106416723    0.7562268447102033    
  0.7489932445546205    0.7303154890385098    0.7047370279030843    0.6778345959406272    0.655602069555476    
  0.6430758333378136    0.6430758333378135    0.655602069555476    0.6778345959406272    0.7047370279030842    
  0.7303154890385098    0.7489932445546205    0.7562268447102034    0.7484910106416723    0.7239576316763876    
  0.6844033305381024    0.6366218459694477    0.5911781332577964    0.5588442662202291    0.5471833037109252    
  0.6229908415456157    0.6308193239234858    0.6524254966393069    0.6826105025578758    0.7142647360753658    
  0.7404793713534179    0.7562268447102032    0.7586386405575126    0.7465028978045852    0.7205113770196024    
  0.6844257755891483    0.6454788603661893    0.6127106880717927    0.5940725361312058    0.5940725361312058    
  0.6127106880717927    0.6454788603661891    0.6844257755891483    0.7205113770196024    0.7465028978045852    
  0.7586386405575127    0.7562268447102032    0.7404793713534179    0.7142647360753658    0.6826105025578759    
  0.6524254966393069    0.6308193239234859    0.6229908415456157    0.6485400204656977    0.6540375695065486    
  0.669459570654376    0.6916899912633777    0.7160251139638157    0.7369963692889937    0.7489932445546204    
  0.746502897804585    0.7250486428339887    0.6837690671602661    0.6281158781747326    0.5695447687701488    
  0.5214973804858954    0.4946952693884404    0.49469526938844033    0.5214973804858954    0.5695447687701488    
  0.6281158781747326    0.6837690671602661    0.7250486428339886    0.7465028978045851    0.7489932445546204    
  0.7369963692889937    0.7160251139638157    0.6916899912633777    0.669459570654376    0.6540375695065486    
  0.6485400204656977    0.6384585793337051    0.6431453280140625    0.6566189704286438    0.6768733496669772    
  0.700092525178105    0.7204933974739173    0.7303154890385097    0.7205113770196026    0.6837690671602663    
  0.6198478047663076    0.5390119061316736    0.4589178179244493    0.3967360511716265    0.363412567946519    
  0.3634125679465189    0.3967360511716265    0.4589178179244492    0.5390119061316736    0.6198478047663076    
  0.6837690671602663    0.7205113770196027    0.7303154890385097    0.7204933974739173    0.700092525178105    
  0.6768733496669772    0.6566189704286437    0.6431453280140625    0.6384585793337051    0.6125583323323867    
  0.6172666223927844    0.6310101356477514    0.6521622182414764    0.6768383144591955    0.6979471572113487    
  0.7047370279030843    0.6844257755891482    0.6281158781747327    0.5390119061316735    0.43485630758876415    
  0.3395051790860453    0.2707859469961979    0.235949494112146    0.2359494941121458    0.2707859469961979    
  0.3395051790860452    0.43485630758876415    0.5390119061316735    0.6281158781747326    0.6844257755891483    
  0.7047370279030843    0.6979471572113487    0.6768383144591954    0.6521622182414764    0.6310101356477514    
  0.6172666223927845    0.6125583323323867    0.5855366953006982    0.5905000800520139    0.6050806901545968    
  0.6277066438022756    0.6540482032277029    0.6753758243245657    0.6778345959406271    0.6454788603661891    
  0.5695447687701488    0.4589178179244492    0.33950517908604516    0.23915622838778244    0.17271755204448577    
  0.14119857197548408    0.14119857197548397    0.17271755204448574    0.2391562283877824    0.3395051790860453    
  0.4589178179244492    0.5695447687701488    0.6454788603661893    0.6778345959406271    0.6753758243245657    
  0.6540482032277029    0.6277066438022755    0.6050806901545966    0.5905000800520139    0.5855366953006982    
  0.5652225655604168    0.570399549151547    0.5856462823831153    0.6093549357948261    0.636730232793411    
  0.6576009463553705    0.655602069555476    0.6127106880717929    0.5214973804858956    0.3967360511716266    
  0.270785946996198    0.17271755204448577    0.11277574161238207    0.08615074478485317    0.08615074478485313    
  0.11277574161238207    0.17271755204448574    0.2707859469961979    0.3967360511716266    0.5214973804858956    
  0.612710688071793    0.655602069555476    0.6576009463553705    0.636730232793411    0.6093549357948261    
  0.5856462823831153    0.5703995491515469    0.5652225655604168    0.554684408119235    0.5599678617454457    
  0.5755428687776609    0.5997672687954203    0.6275610384353462    0.6479144587845913    0.6430758333378136    
  0.5940725361312058    0.4946952693884404    0.363412567946519    0.23594949411214558    0.14119857197548397    
  0.08615074478485331    0.06274558131122518    0.06274558131122508    0.08615074478485327    0.14119857197548388    
  0.23594949411214558    0.363412567946519    0.4946952693884404    0.5940725361312058    0.6430758333378135    
  0.6479144587845913    0.6275610384353462    0.5997672687954203    0.5755428687776608    0.5599678617454457    
  0.554684408119235    0.554684408119235    0.5599678617454457    0.5755428687776609    0.5997672687954203    
  0.6275610384353463    0.6479144587845913    0.6430758333378136    0.5940725361312058    0.4946952693884404    
  0.3634125679465189    0.23594949411214566    0.14119857197548408    0.08615074478485331    0.06274558131122518    
  0.06274558131122508    0.08615074478485331    0.14119857197548397    0.23594949411214566    0.3634125679465189    
  0.4946952693884404    0.5940725361312058    0.6430758333378135    0.6479144587845913    0.6275610384353462    
  0.5997672687954203    0.5755428687776608    0.5599678617454458    0.554684408119235    0.565222565560417    
  0.570399549151547    0.5856462823831153    0.6093549357948262    0.636730232793411    0.6576009463553705    
  0.655602069555476    0.6127106880717929    0.5214973804858956    0.3967360511716265    0.2707859469961979    
  0.17271755204448583    0.11277574161238217    0.08615074478485313    0.08615074478485307    0.11277574161238217    
  0.17271755204448574    0.27078594699619796    0.3967360511716265    0.5214973804858956    0.6127106880717929    
  0.655602069555476    0.6576009463553705    0.636730232793411    0.6093549357948262    0.5856462823831153    
  0.570399549151547    0.565222565560417    0.5855366953006982    0.5905000800520138    0.6050806901545968    
  0.6277066438022755    0.6540482032277029    0.6753758243245656    0.6778345959406271    0.6454788603661893    
  0.5695447687701488    0.4589178179244492    0.3395051790860453    0.2391562283877825    0.17271755204448577    
  0.14119857197548408    0.14119857197548394    0.17271755204448577    0.2391562283877824    0.3395051790860453    
  0.4589178179244492    0.5695447687701488    0.6454788603661894    0.6778345959406271    0.6753758243245657    
  0.6540482032277029    0.6277066438022754    0.6050806901545968    0.5905000800520138    0.5855366953006982    
  0.6125583323323867    0.6172666223927844    0.6310101356477515    0.6521622182414764    0.6768383144591954    
  0.6979471572113486    0.7047370279030842    0.6844257755891482    0.6281158781747327    0.5390119061316735    
  0.43485630758876415    0.3395051790860453    0.2707859469961979    0.23594949411214586    0.23594949411214577    
  0.2707859469961979    0.3395051790860452    0.43485630758876415    0.5390119061316735    0.6281158781747326    
  0.6844257755891483    0.7047370279030842    0.6979471572113487    0.6768383144591954    0.6521622182414764    
  0.6310101356477515    0.6172666223927844    0.6125583323323867    0.6384585793337051    0.6431453280140625    