#     DFTpy    
  CRYSTAL 
    
  PRIMVEC    
  4.203413793103451    0.0    0.0    
  0.0    4.203413793103451    0.0    
  0.0    0.0    4.203413793103451    
  PRIMCOORD    
  4    1    
  Si    0.0    0.0    0.0    
  Si    0.0    2.1017068965517205    2.1017068965517205    
  Si    2.1017068965517205    0.0    2.1017068965517205    
  Si    2.1017068965517205    2.1017068965517205    0.0    
  BEGIN_BLOCK_DATAGRID_3D    
  3d_datagrid_density    
  BEGIN_DATAGRID_3D#0    
  41    41    41    
  0.0    0.0    0.0    
  4.203413808782264    0.0    0.0    
  0.0    4.203413808782264    0.0    
  0.0    0.0    4.203413808782264    
  0.05800947781772916    0.0665158684987948    0.09459497663586283    0.1467441837066127    0.2204749034761978    
  0.29864317481737784    0.3552261519882954    0.3729176683614191    0.3536340501232416    0.3122091790639943    
  0.26403084116992626    0.21870516211546914    0.18035198232172123    0.14986412068809948    0.12658674665953157    
  0.10930047947719461    0.09679516378644726    0.08809635699123206    0.08245762461975281    0.0793173202424773    
  0.07831266854566012    0.0793173202424773    0.08245762461975278    0.08809635699123206    0.09679516378644726    
  0.10930047947719451    0.12658674665953146    0.1498641206880995    0.18035198232172123    0.2187051621154692    
  0.26403084116992626    0.3122091790639943    0.3536340501232416    0.3729176683614191    0.3552261519882954    
  0.29864317481737784    0.22047490347619783    0.14674418370661269    0.09459497663586276    0.06651586849879478    
  0.05800947781772916    0.06651586849879483    0.07548543805017839    0.10464780856562758    0.15755344391471077    
  0.2304864446869048    0.30585380117973754    0.35862144605132035    0.37308968160485356    0.3520601686092789    
  0.3102100493407731    0.26233249907678985    0.21755237372541125    0.17974732648264866    0.14972194947733808    
  0.1268037902883028    0.10978570252327526    0.09747829587885659    0.08892372681072014    0.08338445139316772    
  0.08030263906794907    0.07931728082530481    0.08030263906794907    0.0833844513931677    0.08892372681072014    
  0.09747829587885659    0.10978570252327519    0.12680379028830277    0.1497219494773381    0.17974732648264866    
  0.2175523737254113    0.26233249907678985    0.3102100493407731    0.3520601686092789    0.37308968160485356    
  0.35862144605132035    0.3058538011797375    0.2304864446869048    0.15755344391471068    0.10464780856562748    
  0.07548543805017836    0.06651586849879483    0.09459497663586286    0.10464780856562753    0.13610741119789577    
  0.18981233467433933    0.2589485777224217    0.32529900048088095    0.3669599631815578    0.3725550284207986    
  0.34697433874477546    0.30421785084676095    0.25737233819519745    0.21424869766286245    0.17807540145195908    
  0.14942241921802416    0.1275730616954285    0.11135740209284274    0.0996457034250333    0.0915270366285797    
  0.08628889304342839    0.08338433043970095    0.08245746410957645    0.08338433043970093    0.08628889304342843    
  0.09152703662857972    0.0996457034250333    0.11135740209284266    0.1275730616954285    0.1494224192180242    
  0.17807540145195905    0.2142486976628625    0.25737233819519745    0.30421785084676095    0.34697433874477546    
  0.3725550284207986    0.3669599631815578    0.32529900048088095    0.2589485777224217    0.18981233467433928    
  0.1361074111978957    0.10464780856562753    0.09459497663586286    0.14674418370661285    0.15755344391471077    
  0.18981233467433925    0.24066187326736663    0.3000244252598181    0.35044718181579254    0.37526049860970356    
  0.36868141227696655    0.33756070249598424    0.2943389768984954    0.2495627630364978    0.20924212795123626    
  0.17574310907458832    0.1493287540064003    0.12923286965302963    0.11434829821056207    0.10363603589244079    
  0.09625418699024843    0.09152682764673978    0.08892339574889957    0.08809598576846105    0.08892339574889958    
  0.09152682764673978    0.09625418699024849    0.10363603589244079    0.11434829821056196    0.1292328696530296    
  0.1493287540064004    0.17574310907458834    0.20924212795123628    0.24956276303649774    0.2943389768984954    
  0.33756070249598424    0.36868141227696655    0.37526049860970356    0.35044718181579254    0.3000244252598181    
  0.24066187326736654    0.1898123346743392    0.15755344391471077    0.14674418370661285    0.2204749034761979    
  0.2304864446869049    0.25894857772242164    0.30002442525981815    0.34232601466576906    0.3715151532909584    
  0.3772319631754757    0.358632801465942    0.32322499205883176    0.2809907176621432    0.23960649278540486    
  0.20322844103870108    0.1733657293412274    0.14998479729506067    0.132288991031242    0.11925790225111937    
  0.10996142884040967    0.10363573159656923    0.09964518703857592    0.09747765400727444    0.09679448031406891    
  0.09747765400727447    0.09964518703857592    0.10363573159656927    0.10996142884040967    0.11925790225111928    
  0.13228899103124198    0.1499847972950607    0.17336572934122738    0.20322844103870108    0.23960649278540486    
  0.28099071766214323    0.32322499205883176    0.358632801465942    0.3772319631754757    0.3715151532909584    
  0.34232601466576906    0.3000244252598181    0.25894857772242164    0.2304864446869049    0.2204749034761979    
  0.29864317481737795    0.3058538011797376    0.32529900048088095    0.35044718181579254    0.37151515329095836    
  0.37896646731206385    0.36808662473070775    0.340967889031665    0.30424966718229807    0.26506829735929227    
  0.2284779590509603    0.19707855718353784    0.17168395812914988    0.15203525240365318    0.1373428480430193    
  0.12669078190934    0.11925749703921744    0.11434758227473289    0.11135646547975389    0.10978463337766846    
  0.10929936602369748    0.10978463337766846    0.11135646547975393    0.11434758227473293    0.11925749703921744    
  0.12669078190933994    0.13734284804301927    0.15203525240365318    0.17168395812914986    0.19707855718353787    
  0.22847795905096024    0.26506829735929227    0.30424966718229807    0.340967889031665    0.36808662473070775    
  0.37896646731206385    0.3715151532909584    0.35044718181579254    0.32529900048088095    0.30585380117973754    
  0.29864317481737795    0.3552261519882954    0.3586214460513203    0.3669599631815578    0.37526049860970356    
  0.3772319631754757    0.36808662473070763    0.34685260187002503    0.3165060948885954    0.2819925154023492    
  0.2479116172384066    0.21732952261214675    0.19173969447296527    0.17148002944276816    0.15616498943400425    
  0.14505523724981031    0.13734234054608016    0.1322880666981731    0.1292316174108278    0.12757157154067436    
  0.12680215507651213    0.12658506258399022    0.12680215507651213    0.12757157154067436    0.12923161741082786    
  0.1322880666981731    0.13734234054608016    0.14505523724981031    0.15616498943400428    0.17148002944276813    
  0.1917396944729653    0.21732952261214675    0.2479116172384066    0.2819925154023492    0.3165060948885954    
  0.34685260187002503    0.3680866247307077    0.37723196317547564    0.3752604986097035    0.3669599631815578    
  0.3586214460513203    0.3552261519882954    0.37291766836141915    0.3730896816048536    0.3725550284207985    
  0.36868141227696644    0.35863280146594195    0.3409678890316649    0.3165060948885953    0.2879232662600743    
  0.2585128676353182    0.23105479410717025    0.20732422741638823    0.18812399687560433    0.17351672962576084    
  0.16308369271446377    0.15616438479993425    0.15203412212848186    0.14998322115311596    0.1493268172833065    
  0.1494202153495671    0.14971958064603183    0.1498616959849756    0.1497195806460318    0.1494202153495671    
  0.14932681728330652    0.14998322115311596    0.1520341221284818    0.15616438479993425    0.16308369271446382    
  0.17351672962576078    0.18812399687560435    0.20732422741638826    0.23105479410717025    0.2585128676353182    
  0.2879232662600743    0.3165060948885953    0.3409678890316649    0.35863280146594195    0.3686814122769664    
  0.37255502842079846    0.37308968160485356    0.37291766836141915    0.3536340501232416    0.3520601686092789    
  0.34697433874477535    0.3375607024959842    0.32322499205883176    0.304249667182298    0.28199251540234926    
  0.2585128676353182    0.23592714544300797    0.2159024246190297    0.19946049158910728    0.18701370368031486    
  0.17849681817825022    0.173516040848328    0.17147871125048936    0.1716820725236411    0.17336334730833444    
  0.175740315621962    0.17807229811665468    0.17974403015364823    0.18034862043276376    0.17974403015364823    
  0.17807229811665468    0.17574031562196205    0.17336334730833444    0.171682072523641    0.17147871125048939    
  0.173516040848328    0.17849681817825017    0.18701370368031486    0.19946049158910728    0.2159024246190297    
  0.23592714544300797    0.2585128676353182    0.28199251540234926    0.304249667182298    0.32322499205883176    
  0.33756070249598413    0.3469743387447754    0.3520601686092789    0.3536340501232416    0.3122091790639943    
  0.3102100493407731    0.30421785084676095    0.2943389768984954    0.2809907176621432    0.2650682973592922    
  0.2479116172384066    0.2310547941071702    0.21590242461902964    0.20350046053800958    0.19446194032188854    
  0.18900243243498727    0.1870129525244462    0.18812252649245198    0.19173754139017768    0.19707576964352605    
  0.2032250854962401    0.20923829411366993    0.2142445002632065    0.21754794905339403    0.2187006601749463    
  0.21754794905339403    0.2142445002632065    0.20923829411367    0.2032250854962401    0.197075769643526    
  0.19173754139017768    0.18812252649245198    0.18701295252444614    0.18900243243498724    0.19446194032188854    
  0.20350046053800958    0.21590242461902964    0.2310547941071702    0.2479116172384066    0.2650682973592922    
  0.2809907176621432    0.29433897689849536    0.30421785084676095    0.3102100493407732    0.3122091790639943    
  0.2640308411699263    0.2623324990767899    0.2573723381951974    0.2495627630364978    0.2396064927854049    
  0.2284779590509602    0.21732952261214683    0.2073242274163883    0.1994604915891073    0.19446194032188854    
  0.19275005039764587    0.19446115613558082    0.19945892226101689    0.20732187714958783    0.21732640966947428    
  0.22847412400828884    0.23960200483521368    0.24955772368909077    0.25736688043034384    0.26232678064401155    
  0.2640250343371405    0.26232678064401155    0.25736688043034384    0.2495577236890908    0.23960200483521368    
  0.22847412400828873    0.21732640966947434    0.2073218771495878    0.19945892226101683    0.1944611561355808    
  0.19275005039764587    0.1944619403218886    0.1994604915891073    0.2073242274163883    0.21732952261214677    
  0.2284779590509602    0.2396064927854049    0.24956276303649774    0.2573723381951974    0.2623324990767899    
  0.2640308411699263    0.2187051621154692    0.21755237372541134    0.21424869766286256    0.20924212795123628    
  0.20322844103870105    0.19707855718353784    0.1917396944729653    0.18812399687560447    0.1870137036803149    
  0.18900243243498724    0.19446115613558085    0.20349885709537857    0.215899970364591    0.23105147144129304    
  0.2479074343635051    0.26506329823462504    0.28098498742067335    0.29433264056271746    0.3042110648207025    
  0.31020298869321095    0.31220202636074207    0.31020298869321083    0.3042110648207025    0.29433264056271746    
  0.28098498742067335    0.265063298234625    0.2479074343635051    0.23105147144129304    0.21589997036459097    
  0.20349885709537854    0.19446115613558082    0.1890024324349873    0.1870137036803149    0.18812399687560447    
  0.19173969447296527    0.1970785571835378    0.20322844103870108    0.20924212795123623    0.21424869766286245    
  0.21755237372541134    0.2187051621154692    0.1803519823217212    0.17974732648264877    0.17807540145195905    
  0.17574310907458834    0.17336572934122738    0.17168395812914988    0.17148002944276822    0.1735167296257609    
  0.17849681817825022    0.18701295252444622    0.1994589222610169    0.21589997036459105    0.23592375078172842    
  0.25850850339588477    0.28198719524229715    0.30424346055704965    0.32321802552932893    0.3375531443468205    
  0.34696637236270345    0.35205196887832857    0.3536257752542558    0.3520519688783285    0.3469663723627035    
  0.33755314434682054    0.32321802552932893    0.30424346055704954    0.28198719524229715    0.25850850339588477    
  0.2359237507817284    0.215899970364591    0.1994589222610169    0.18701295252444627    0.17849681817825022    
  0.1735167296257609    0.17148002944276822    0.17168395812914986    0.17336572934122738    0.17574310907458832    
  0.17807540145195902    0.17974732648264874    0.1803519823217212    0.14986412068809957    0.14972194947733813    
  0.14942241921802424    0.14932875400640033    0.14998479729506067    0.15203525240365318    0.15616498943400434    
  0.16308369271446388    0.17351604084832803    0.18812252649245198    0.20732187714958789    0.2310514714412931    
  0.2585085033958847    0.28791783758086775    0.31649965063884544    0.34096056513728495    0.35862480742966185    
  0.36867298406825294    0.37254636987477335    0.37308092824108074    0.37290889186973303    0.37308092824108074    
  0.37254636987477335    0.36867298406825294    0.35862480742966185    0.34096056513728495    0.31649965063884544    
  0.2879178375808677    0.2585085033958847    0.23105147144129304    0.20732187714958789    0.188122526492452    
  0.17351604084832803    0.16308369271446388    0.15616498943400434    0.15203525240365315    0.14998479729506067    
  0.1493287540064003    0.14942241921802424    0.14972194947733813    0.14986412068809957    0.1265867466595316    
  0.1268037902883029    0.1275730616954286    0.12923286965302969    0.13228899103124203    0.1373428480430193    
  0.14505523724981037    0.15616438479993427    0.1714787112504894    0.19173754139017773    0.2173264096694744    
  0.2479074343635051    0.28198719524229715    0.31649965063884544    0.34684516578426167    0.36807845736182215    
  0.3772234025094588    0.37525185844057585    0.3669514368540401    0.35861307048921015    0.3552178417043082    
  0.3586130704892101    0.3669514368540401    0.3752518584405759    0.3772234025094588    0.36807845736182215    
  0.34684516578426167    0.31649965063884544    0.28198719524229704    0.2479074343635051    0.2173264096694744    
  0.1917375413901778    0.1714787112504894    0.1561643847999343    0.14505523724981043    0.13734284804301927    
  0.13228899103124203    0.1292328696530296    0.1275730616954286    0.12680379028830285    0.1265867466595316    
  0.1093004794771945    0.10978570252327519    0.11135740209284266    0.11434829821056196    0.11925790225111932    
  0.12669078190933994    0.13734234054608005    0.15203412212848189    0.17168207252364098    0.19707576964352602    
  0.22847412400828873    0.26506329823462493    0.30424346055704954    0.340960565137285    0.3680784573618221    
  0.3789578957662373    0.37150666277393474    0.35043913352990747    0.32529151665495154    0.305846762858478    
  0.29863630286678045    0.3058467628584779    0.32529151665495154    0.3504391335299075    0.37150666277393474    
  0.3789578957662373    0.3680784573618221    0.34096056513728495    0.3042434605570495    0.26506329823462493    
  0.2284741240082888    0.19707576964352602    0.17168207252364098    0.1520341221284818    0.13734234054608005    
  0.12669078190933988    0.11925790225111932    0.1143482982105619    0.1113574020928426    0.10978570252327523    
  0.1093004794771945    0.09679516378644719    0.09747829587885666    0.0996457034250333    0.10363603589244072    
  0.10996142884040958    0.11925749703921741    0.13228806669817317    0.149983221153116    0.17336334730833444    
  0.20322508549624013    0.2396020048352138    0.2809849874206733    0.3232180255293288    0.3586248074296618    
  0.3772234025094588    0.3715066627739349    0.3423181929971986    0.30001760640426595    0.2589427433147171    
  0.2304812969717671    0.22046999821816507    0.23048129697176703    0.2589427433147171    0.300017606404266    
  0.3423181929971986    0.37150666277393485    0.3772234025094588    0.35862480742966185    0.32321802552932877    
  0.28098498742067324    0.2396020048352138    0.2032250854962402    0.17336334730833444    0.14998322115311605    
  0.13228806669817317    0.11925749703921738    0.10996142884040956    0.10363603589244066    0.09964570342503332    
  0.09747829587885666    0.09679516378644719    0.08809635699123196    0.08892372681072014    0.09152703662857962    
  0.09625418699024839    0.10363573159656933    0.11434758227473293    0.1292316174108278    0.1493268172833065    
  0.175740315621962    0.20923829411367    0.24955772368909077    0.29433264056271746    0.3375531443468205    
  0.36867298406825283    0.37525185844057585    0.3504391335299075    0.30001760640426595    0.24065650796264984    
  0.18980822367199163    0.15755013599087153    0.14674114656155532    0.1575501359908714    0.18980822367199163    
  0.2406565079626499    0.30001760640426595    0.35043913352990747    0.37525185844057585    0.3686729840682529    
  0.33755314434682043    0.29433264056271746    0.24955772368909077    0.20923829411367004    0.175740315621962    
  0.14932681728330652    0.1292316174108278    0.11434758227473289    0.1036357315965693    0.09625418699024835    
  0.09152703662857968    0.08892372681072014    0.08809635699123196    0.08245762461975284    0.08338445139316772    
  0.08628889304342842    0.09152682764673974    0.09964518703857589    0.11135646547975385    0.1275715715406743    
  0.14942021534956715    0.17807229811665476    0.21424450026320652    0.25736688043034384    0.3042110648207024    
  0.3469663723627035    0.3725463698747733    0.3669514368540401    0.3252915166549516    0.25894274331471717    
  0.18980822367199174    0.13610465509110706    0.10464585750001117    0.09459328510548753    0.10464585750001114    
  0.13610465509110709    0.18980822367199177    0.25894274331471717    0.32529151665495154    0.3669514368540401    
  0.37254636987477335    0.34696637236270345    0.30421106482070237    0.25736688043034384    0.2142445002632065    
  0.17807229811665476    0.1494202153495672    0.12757157154067433    0.11135646547975385    0.09964518703857589    
  0.0915268276467397    0.08628889304342842    0.08338445139316775    0.08245762461975284    0.07931732024247733    
  0.0803026390679491    0.08338433043970091    0.0889233957488995    0.09747765400727444    0.10978463337766842    
  0.12680215507651219    0.14971958064603186    0.1797440301536483    0.21754794905339406    0.26232678064401155    
  0.3102029886932109    0.35205196887832857    0.37308092824108063    0.35861307048921015    0.30584676285847795    
  0.2304812969717671    0.15755013599087145    0.10464585750001114    0.07548424785962986    0.06651491451102222    
  0.07548424785962986    0.10464585750001117    0.15755013599087153    0.2304812969717671    0.30584676285847795    
  0.3586130704892101    0.3730809282410807    0.35205196887832846    0.31020298869321083    0.2623267806440116    
  0.2175479490533941    0.1797440301536483    0.1497195806460319    0.12680215507651216    0.10978463337766842    
  0.09747765400727444    0.08892339574889944    0.08338433043970093    0.08030263906794913    0.07931732024247733    
  0.07831266854566021    0.07931728082530493    0.08245746410957643    0.08809598576846107    0.09679448031406901    
  0.10929936602369744    0.12658506258399024    0.14986169598497567    0.18034862043276384    0.21870066017494638    
  0.2640250343371405    0.3122020263607421    0.35362577525425587    0.3729088918697331    0.3552178417043083    
  0.29863630286678056    0.2204699982181652    0.14674114656155535    0.09459328510548759    0.06651491451102226    
  0.05800874922926294    0.06651491451102222    0.09459328510548758    0.1467411465615554    0.2204699982181652    
  0.2986363028667805    0.3552178417043083    0.3729088918697331    0.3536257752542558    0.3122020263607421    
  0.26402503433714053    0.21870066017494635    0.18034862043276384    0.14986169598497573    0.12658506258399024    
  0.10929936602369744    0.09679448031406898    0.08809598576846103    0.0824574641095765    0.07931728082530497    
  0.07831266854566021    0.07931732024247742    0.08030263906794914    0.08338433043970091    0.08892339574889944    
  0.09747765400727447    0.10978463337766836    0.12680215507651213    0.14971958064603189    0.17974403015364826    
  0.21754794905339406    0.2623267806440116    0.31020298869321083    0.3520519688783285    0.3730809282410807    
  0.35861307048921015    0.305846762858478    0.2304812969717671    0.1575501359908715    0.10464585750001117    
  0.07548424785962986    0.06651491451102215    0.07548424785962986    0.10464585750001118    0.15755013599087156    
  0.2304812969717671    0.305846762858478    0.35861307048921015    0.3730809282410807    0.35205196887832846    
  0.31020298869321083    0.2623267806440116    0.2175479490533941    0.17974403015364826    0.1497195806460319    
  0.12680215507651213    0.10978463337766836    0.09747765400727447    0.08892339574889944    0.08338433043970091    
  0.08030263906794914    0.07931732024247742    0.08245762461975281    0.08338445139316775    0.08628889304342849    
  0.09152682764673971    0.09964518703857585    0.11135646547975389    0.1275715715406743    0.14942021534956715    
  0.17807229811665473    0.21424450026320652    0.25736688043034384    0.3042110648207024    0.3469663723627035    
  0.37254636987477335    0.3669514368540401    0.32529151665495165    0.2589427433147171    0.1898082236719917    
  0.13610465509110706    0.10464585750001118    0.09459328510548755    0.1046458575000111    0.13610465509110703    
  0.18980822367199177    0.2589427433147171    0.32529151665495154    0.36695143685404014    0.37254636987477335    
  0.34696637236270345    0.30421106482070237    0.25736688043034384    0.2142445002632065    0.17807229811665473    
  0.14942021534956715    0.12757157154067433    0.11135646547975386    0.09964518703857585    0.0915268276467397    
  0.0862888930434285    0.08338445139316775    0.08245762461975281    0.08809635699123196    0.08892372681072018    
  0.09152703662857965    0.09625418699024839    0.10363573159656933    0.11434758227473285    0.12923161741082775    
  0.14932681728330646    0.17574031562196196    0.20923829411367    0.24955772368909077    0.2943326405627174    
  0.3375531443468205    0.3686729840682529    0.3752518584405758    0.35043913352990747    0.3000176064042659    
  0.2406565079626499    0.18980822367199165    0.15755013599087153    0.1467411465615553    0.15755013599087148    
  0.18980822367199163    0.24065650796264992    0.3000176064042659    0.3504391335299074    0.37525185844057574    
  0.3686729840682529    0.33755314434682043    0.2943326405627174    0.24955772368909077    0.20923829411367    
  0.17574031562196196    0.1493268172833065    0.12923161741082778    0.11434758227473289    0.10363573159656933    
  0.09625418699024839    0.09152703662857965    0.08892372681072018    0.08809635699123196    0.09679516378644719    
  0.09747829587885666    0.0996457034250333    0.10363603589244072    0.10996142884040958    0.11925749703921741    
  0.13228806669817317    0.149983221153116    0.17336334730833444    0.20322508549624013    0.2396020048352138    
  0.2809849874206733    0.3232180255293288    0.3586248074296618    0.3772234025094588    0.3715066627739349    
  0.3423181929971986    0.30001760640426595    0.2589427433147171    0.2304812969717671    0.22046999821816507    
  0.23048129697176703    0.2589427433147171    0.300017606404266    0.3423181929971986    0.37150666277393485    
  0.3772234025094588    0.35862480742966185    0.32321802552932877    0.28098498742067324    0.2396020048352138    
  0.2032250854962402    0.17336334730833444    0.14998322115311605    0.13228806669817317    0.11925749703921738    
  0.10996142884040956    0.10363603589244066    0.09964570342503332    0.09747829587885666    0.09679516378644719    
  0.1093004794771944    0.1097857025232752    0.11135740209284267    0.1143482982105619    0.11925790225111935    
  0.12669078190933988    0.13734234054608013    0.1520341221284818    0.171682072523641    0.197075769643526    
  0.22847412400828873    0.265063298234625    0.3042434605570495    0.3409605651372849    0.3680784573618221    
  0.3789578957662373    0.37150666277393474    0.3504391335299074    0.32529151665495165    0.30584676285847806    
  0.2986363028667804    0.3058467628584779    0.32529151665495165    0.3504391335299075    0.37150666277393474    
  0.3789578957662372    0.3680784573618221    0.34096056513728495    0.3042434605570495    0.26506329823462493    
  0.2284741240082888    0.19707576964352605    0.171682072523641    0.15203412212848183    0.13734234054608013    
  0.12669078190933986    0.11925790225111935    0.11434829821056186    0.11135740209284266    0.10978570252327519    
  0.1093004794771944    0.12658674665953157    0.12680379028830285    0.1275730616954286    0.12923286965302963    
  0.13228899103124203    0.1373428480430193    0.14505523724981037    0.15616438479993427    0.17147871125048944    
  0.1917375413901777    0.2173264096694744    0.24790743436350512    0.28198719524229715    0.31649965063884544    
  0.34684516578426167    0.36807845736182215    0.3772234025094588    0.3752518584405759    0.3669514368540401    
  0.35861307048921015    0.35521784170430826    0.3586130704892101    0.3669514368540401    0.3752518584405759    
  0.3772234025094588    0.36807845736182215    0.34684516578426167    0.31649965063884544    0.28198719524229704    
  0.24790743436350512    0.2173264096694744    0.1917375413901778    0.17147871125048944    0.15616438479993433    
  0.14505523724981043    0.13734284804301927    0.13228899103124203    0.12923286965302958    0.1275730616954286    
  0.12680379028830288    0.12658674665953157    0.1498641206880995    0.14972194947733813    0.1494224192180243    
  0.14932875400640033    0.1499847972950606    0.15203525240365323    0.1561649894340044    0.16308369271446388    
  0.17351604084832806    0.18812252649245198    0.20732187714958786    0.2310514714412931    0.25850850339588477    
  0.2879178375808677    0.3164996506388455    0.34096056513728495    0.35862480742966185    0.36867298406825294    
  0.3725463698747734    0.37308092824108074    0.37290889186973303    0.37308092824108074    0.37254636987477346    
  0.36867298406825294    0.35862480742966185    0.3409605651372849    0.3164996506388455    0.2879178375808677    
  0.2585085033958847    0.23105147144129304    0.20732187714958786    0.18812252649245204    0.17351604084832806    
  0.16308369271446388    0.15616498943400436    0.15203525240365323    0.1499847972950606    0.1493287540064003    
  0.1494224192180243    0.1497219494773381    0.1498641206880995    0.1803519823217212    0.17974732648264868    
  0.17807540145195908    0.17574310907458826    0.17336572934122738    0.17168395812914983    0.17148002944276822    
  0.17351672962576087    0.17849681817825022    0.18701295252444625    0.1994589222610169    0.21589997036459105    
  0.23592375078172842    0.25850850339588477    0.28198719524229715    0.3042434605570496    0.32321802552932893    
  0.33755314434682043    0.34696637236270345    0.35205196887832857    0.35362577525425587    0.35205196887832846    
  0.34696637236270345    0.3375531443468205    0.32321802552932893    0.30424346055704954    0.28198719524229715    
  0.2585085033958847    0.2359237507817284    0.21589997036459105    0.1994589222610169    0.18701295252444627    
  0.17849681817825022    0.17351672962576087    0.17148002944276822    0.17168395812914983    0.1733657293412274    
  0.17574310907458826    0.17807540145195908    0.17974732648264866    0.1803519823217212    0.21870516211546925    
  0.2175523737254114    0.21424869766286245    0.2092421279512362    0.20322844103870108    0.19707855718353784    
  0.1917396944729653    0.18812399687560447    0.1870137036803149    0.1890024324349873    0.19446115613558085    
  0.2034988570953786    0.215899970364591    0.23105147144129304    0.24790743436350512    0.26506329823462504    
  0.2809849874206733    0.29433264056271746    0.3042110648207024    0.3102029886932109    0.31220202636074207    
  0.3102029886932108    0.3042110648207025    0.29433264056271746    0.2809849874206733    0.265063298234625    
  0.24790743436350512    0.23105147144129304    0.21589997036459097    0.2034988570953786    0.19446115613558085    
  0.18900243243498732    0.1870137036803149    0.18812399687560444    0.1917396944729653    0.1970785571835378    
  0.20322844103870105    0.20924212795123615    0.21424869766286245    0.21755237372541134    0.21870516211546925    
  0.26403084116992626    0.2623324990767899    0.2573723381951974    0.24956276303649774    0.23960649278540486    
  0.22847795905096024    0.21732952261214675    0.2073242274163883    0.19946049158910728    0.19446194032188854    
  0.19275005039764587    0.19446115613558082    0.1994589222610169    0.2073218771495878    0.2173264096694744    
  0.2284741240082888    0.23960200483521374    0.24955772368909077    0.2573668804303438    0.26232678064401155    
  0.2640250343371404    0.2623267806440115    0.25736688043034384    0.2495577236890908    0.23960200483521374    
  0.22847412400828873    0.21732640966947434    0.2073218771495878    0.19945892226101686    0.19446115613558082    