#     DFTpy    
  CRYSTAL 
    
  PRIMVEC    
  3.1466896551724104    0.0    0.0    
  0.0    3.1466896551724104    0.0    
  0.0    0.0    3.1466896551724104    
  PRIMCOORD    
  4    1    
  Si    0.0    0.0    0.0    
  Si    0.0    1.5733448275862103    1.5733448275862103    
  Si    1.5733448275862103    0.0    1.5733448275862103    
  Si    1.5733448275862103    1.5733448275862103    0.0    
  BEGIN_BLOCK_DATAGRID_3D    
  3d_datagrid_density    
  BEGIN_DATAGRID_3D#0    
  31    31    31    
  0.0    0.0    0.0    
  3.146689666909623    0.0    0.0    
  0.0    3.146689666909623    0.0    
  0.0    0.0    3.146689666909623    
  0.048070563494882604    0.05658501733511628    0.08573881022995584    0.1435207571884374    0.23295809607516701    
  0.3409282864231361    0.43911650264885904    0.5015987935384183    0.5213349683284086    0.5091063751411513    
  0.4810257875143079    0.4493324422941644    0.42088123213958967    0.39909181589864207    0.3855990939837343    
  0.38105256969679513    0.3855990939837343    0.39909181589864207    0.42088123213958967    0.44933244229416425    
  0.4810257875143078    0.5091063751411513    0.5213349683284086    0.5015987935384184    0.43911650264885904    
  0.3409282864231361    0.23295809607516701    0.1435207571884374    0.08573881022995584    0.05658501733511628    
  0.048070563494882604    0.05658501733511633    0.06575945495737805    0.09665654412816829    0.15640486759017577    
  0.24662853180764216    0.35322211810880877    0.44833796579136526    0.5075996517722186    0.5252032468088702    
  0.5121324503610742    0.4840537407080083    0.45272305504522886    0.42471013776551536    0.40329958837528745    
  0.39005793694715674    0.38559885282822426    0.3900579369471567    0.40329958837528745    0.42471013776551536    
  0.45272305504522864    0.4840537407080082    0.5121324503610744    0.5252032468088701    0.5075996517722187    
  0.44833796579136526    0.3532221181088088    0.24662853180764216    0.15640486759017577    0.09665654412816829    
  0.06575945495737805    0.05658501733511633    0.0857388102299558    0.09665654412816835    0.13196257712175413    
  0.19612910076691248    0.2869709557550169    0.388215357985464    0.47387497902260484    0.5239664934394234    
  0.5358350091060516    0.5207239429116612    0.4929116973208372    0.4627769528381978    0.4361027686656817    
  0.4158124372460662    0.4032988604928779    0.39909084656781785    0.4032988604928779    0.4158124372460662    
  0.4361027686656818    0.4627769528381976    0.4929116973208371    0.5207239429116611    0.5358350091060515    
  0.5239664934394235    0.47387497902260484    0.388215357985464    0.2869709557550169    0.19612910076691248    
  0.1319625771217541    0.09665654412816835    0.0857388102299558    0.14352075718843746    0.15640486759017586    
  0.1961291007669124    0.2630199705527353    0.3500933311175245    0.4396258312887139    0.5096035866741402    
  0.546307255597015    0.5506954881012842    0.5335831041284036    0.5069114198655533    0.4790246274057515    
  0.45460523204710085    0.4361015489190358    0.42470818862990434    0.42087904062961556    0.42470818862990434    
  0.4361015489190358    0.45460523204710085    0.4790246274057514    0.5069114198655532    0.5335831041284035    
  0.5506954881012841    0.5463072555970151    0.5096035866741402    0.4396258312887139    0.3500933311175245    
  0.2630199705527353    0.1961291007669124    0.1564048675901759    0.14352075718843746    0.2329580960751671    
  0.2466285318076421    0.2869709557550168    0.35009333111752444    0.42549096042436435    0.4964187348451075    
  0.546694246141122    0.5689547178918373    0.5666441133456218    0.5489764091631777    0.5248784248506999    
  0.5003900489010853    0.47902292792462886    0.46277403246189525    0.45271940331660165    0.4493285472147391    
  0.45271940331660165    0.46277403246189525    0.47902292792462886    0.5003900489010852    0.5248784248506998    
  0.5489764091631777    0.5666441133456217    0.5689547178918374    0.546694246141122    0.4964187348451075    
  0.42549096042436435    0.35009333111752444    0.28697095575501674    0.24662853180764216    0.2329580960751671    
  0.34092828642313616    0.3532221181088088    0.388215357985464    0.43962583128871385    0.4964187348451075    
  0.5453721795849987    0.5764605789611088    0.586992692753256    0.5809849887771376    0.5650943744254533    
  0.5451006651813876    0.5248762948316321    0.5069075945080425    0.49290665609337275    0.4840479724090543    
  0.481019777585269    0.4840479724090542    0.49290665609337264    0.5069075945080425    0.524876294831632    
  0.5451006651813874    0.5650943744254533    0.5809849887771374    0.5869926927532562    0.5764605789611088    
  0.5453721795849987    0.4964187348451075    0.43962583128871385    0.388215357985464    0.3532221181088088    
  0.34092828642313616    0.43911650264885904    0.44833796579136526    0.47387497902260484    0.5096035866741401    
  0.546694246141122    0.5764605789611089    0.5936486314238665    0.59784674097121    0.5920741621518355    
  0.5801571335281518    0.5650919083129478    0.5489718319267859    0.5335768631422095    0.520716523765479    
  0.5121243358992527    0.5090980316000548    0.5121243358992528    0.520716523765479    0.5335768631422095    
  0.5489718319267858    0.5650919083129476    0.5801571335281517    0.5920741621518354    0.5978467409712102    
  0.5936486314238665    0.5764605789611089    0.546694246141122    0.5096035866741401    0.47387497902260484    
  0.44833796579136526    0.43911650264885904    0.5015987935384184    0.5075996517722187    0.5239664934394235    
  0.5463072555970149    0.5689547178918374    0.5869926927532562    0.59784674097121    0.6014662642936968    
  0.599134870338602    0.5920714857505112    0.5809798879873009    0.5666369861203367    0.5506868195301747    
  0.5358252973748923    0.5251929468818802    0.5213244802954227    0.5251929468818802    0.5358252973748923    
  0.5506868195301747    0.5666369861203365    0.5809798879873008    0.592071485750511    0.5991348703386019    
  0.6014662642936969    0.59784674097121    0.5869926927532562    0.5689547178918374    0.5463072555970149    
  0.5239664934394235    0.5075996517722186    0.5015987935384184    0.5213349683284086    0.5252032468088702    
  0.5358350091060516    0.5506954881012842    0.5666441133456218    0.5809849887771377    0.5920741621518354    
  0.5991348703386019    0.6014635166004196    0.5978413762588803    0.5869850468952988    0.5689452896765054    
  0.546296607203223    0.5239551307359162    0.5075879477264673    0.5015869929918517    0.5075879477264673    
  0.5239551307359162    0.546296607203223    0.5689452896765053    0.5869850468952988    0.5978413762588802    
  0.6014635166004195    0.599134870338602    0.5920741621518354    0.5809849887771377    0.5666441133456218    
  0.5506954881012842    0.5358350091060516    0.5252032468088701    0.5213349683284086    0.5091063751411513    
  0.5121324503610745    0.5207239429116611    0.5335831041284034    0.5489764091631777    0.5650943744254533    
  0.5801571335281518    0.5920714857505113    0.5978413762588802    0.593640818440257    0.576450820170515    
  0.5466832160957409    0.5095919490398316    0.4738632059862941    0.4483262598908304    0.43910484669177885    
  0.4483262598908304    0.4738632059862941    0.5095919490398316    0.5466832160957408    0.5764508201705147    
  0.5936408184402568    0.5978413762588801    0.5920714857505113    0.5801571335281518    0.5650943744254533    
  0.5489764091631777    0.5335831041284034    0.5207239429116611    0.5121324503610745    0.5091063751411513    
  0.4810257875143078    0.4840537407080081    0.4929116973208372    0.5069114198655533    0.5248784248506999    
  0.5451006651813877    0.5650919083129478    0.5809798879873008    0.586985046895299    0.5764508201705151    
  0.5453610658699242    0.49640715693526816    0.43961451554845776    0.3882046501300727    0.353211959736169    
  0.34091834262676557    0.3532119597361689    0.3882046501300727    0.43961451554845776    0.49640715693526793    
  0.545361065869924    0.576450820170515    0.5869850468952988    0.5809798879873009    0.5650919083129478    
  0.5451006651813877    0.5248784248506999    0.5069114198655533    0.4929116973208372    0.4840537407080082    
  0.4810257875143078    0.4493324422941643    0.4527230550452289    0.4627769528381976    0.4790246274057514    
  0.5003900489010852    0.5248762948316321    0.5489718319267858    0.5666369861203366    0.5689452896765053    
  0.5466832160957409    0.49640715693526816    0.4254798976480348    0.3500834554667914    0.2869623727009155    
  0.2466208854250425    0.23295078493823537    0.24662088542504249    0.2869623727009155    0.3500834554667914    
  0.42547989764803473    0.49640715693526805    0.5466832160957408    0.5689452896765052    0.5666369861203366    
  0.5489718319267858    0.5248762948316321    0.5003900489010852    0.4790246274057514    0.4627769528381977    
  0.4527230550452289    0.4493324422941643    0.4208812321395895    0.42471013776551525    0.4361027686656816    
  0.45460523204710074    0.4790229279246288    0.5069075945080425    0.5335768631422094    0.5506868195301746    
  0.5462966072032229    0.5095919490398316    0.43961451554845765    0.35008345546679154    0.2630120157466181    
  0.19612286587467118    0.15639974527127787    0.1435160106795273    0.15639974527127787    0.19612286587467118    
  0.2630120157466181    0.3500834554667914    0.4396145155484576    0.5095919490398315    0.5462966072032228    
  0.5506868195301746    0.5335768631422094    0.5069075945080425    0.4790229279246288    0.45460523204710074    
  0.4361027686656817    0.42471013776551525    0.4208812321395895    0.39909181589864223    0.40329958837528757    
  0.4158124372460662    0.43610154891903563    0.46277403246189536    0.49290665609337275    0.520716523765479    
  0.5358252973748924    0.5239551307359163    0.4738632059862941    0.3882046501300727    0.2869623727009155    
  0.19612286587467143    0.13195820829288435    0.0966532795324906    0.08573589990645948    0.0966532795324905    
  0.13195820829288435    0.19612286587467143    0.2869623727009155    0.3882046501300726    0.4738632059862941    
  0.5239551307359162    0.5358252973748924    0.520716523765479    0.49290665609337264    0.46277403246189536    
  0.4361015489190357    0.4158124372460662    0.4032995883752875    0.39909181589864223    0.38559909398373415    
  0.3900579369471568    0.4032988604928778    0.4247081886299045    0.45271940331660165    0.48404797240905434    
  0.5121243358992528    0.5251929468818802    0.5075879477264671    0.44832625989083047    0.3532119597361689    
  0.2466208854250425    0.1563997452712779    0.0966532795324906    0.06575722008074442    0.05658309959779712    
  0.06575722008074433    0.09665327953249056    0.1563997452712779    0.24662088542504243    0.35321195973616887    
  0.4483262598908304    0.507587947726467    0.5251929468818802    0.5121243358992528    0.48404797240905434    
  0.45271940331660165    0.4247081886299045    0.4032988604928778    0.3900579369471568    0.38559909398373415    
  0.38105256969679524    0.3855988528282245    0.39909084656781785    0.4208790406296156    0.4493285472147392    
  0.4810197775852692    0.5090980316000548    0.5213244802954227    0.5015869929918517    0.43910484669177885    
  0.3409183426267656    0.23295078493823548    0.14351601067952757    0.08573589990645962    0.05658309959779731    
  0.04806894650389244    0.05658309959779726    0.08573589990645962    0.14351601067952757    0.23295078493823534    
  0.3409183426267656    0.43910484669177874    0.5015869929918516    0.5213244802954228    0.5090980316000548    
  0.4810197775852692    0.4493285472147392    0.4208790406296156    0.39909084656781785    0.38559885282822437    
  0.38105256969679524    0.38559909398373426    0.3900579369471568    0.4032988604928778    0.4247081886299044    
  0.4527194033166017    0.48404797240905434    0.5121243358992528    0.5251929468818801    0.5075879477264671    
  0.4483262598908304    0.3532119597361689    0.2466208854250425    0.1563997452712779    0.09665327953249041    
  0.06575722008074447    0.056583099597797025    0.06575722008074447    0.09665327953249046    0.1563997452712779    
  0.24662088542504237    0.3532119597361688    0.4483262598908304    0.507587947726467    0.5251929468818801    
  0.5121243358992528    0.48404797240905434    0.4527194033166017    0.4247081886299044    0.4032988604928778    
  0.3900579369471568    0.38559909398373426    0.3990918158986421    0.40329958837528757    0.4158124372460662    
  0.4361015489190357    0.46277403246189525    0.49290665609337264    0.520716523765479    0.5358252973748924    
  0.5239551307359163    0.4738632059862941    0.38820465013007277    0.28696237270091557    0.19612286587467131    
  0.13195820829288435    0.0966532795324907    0.08573589990645952    0.0966532795324906    0.13195820829288435    
  0.19612286587467131    0.2869623727009155    0.3882046501300727    0.47386320598629406    0.5239551307359162    
  0.5358252973748924    0.520716523765479    0.49290665609337264    0.46277403246189525    0.4361015489190357    
  0.4158124372460662    0.40329958837528757    0.3990918158986421    0.4208812321395895    0.42471013776551525    
  0.4361027686656816    0.45460523204710074    0.4790229279246288    0.5069075945080425    0.5335768631422094    
  0.5506868195301746    0.5462966072032229    0.5095919490398316    0.43961451554845765    0.35008345546679154    
  0.2630120157466181    0.19612286587467118    0.15639974527127787    0.1435160106795273    0.15639974527127787    
  0.19612286587467118    0.2630120157466181    0.3500834554667914    0.4396145155484576    0.5095919490398315    
  0.5462966072032228    0.5506868195301746    0.5335768631422094    0.5069075945080425    0.4790229279246288    
  0.45460523204710074    0.4361027686656817    0.42471013776551525    0.4208812321395895    0.4493324422941644    
  0.45272305504522886    0.4627769528381978    0.4790246274057514    0.5003900489010853    0.5248762948316322    
  0.5489718319267858    0.5666369861203366    0.5689452896765053    0.546683216095741    0.49640715693526816    
  0.4254798976480348    0.35008345546679154    0.28696237270091557    0.24662088542504243    0.23295078493823534    
  0.24662088542504243    0.28696237270091557    0.35008345546679154    0.42547989764803473    0.49640715693526805    
  0.5466832160957409    0.5689452896765052    0.5666369861203366    0.5489718319267858    0.5248762948316322    
  0.5003900489010853    0.4790246274057514    0.4627769528381978    0.45272305504522886    0.4493324422941644    
  0.48102578751430775    0.4840537407080082    0.4929116973208371    0.5069114198655534    0.5248784248506999    
  0.5451006651813877    0.5650919083129476    0.5809798879873008    0.586985046895299    0.576450820170515    
  0.5453610658699242    0.49640715693526816    0.43961451554845776    0.3882046501300727    0.35321195973616887    
  0.34091834262676574    0.35321195973616887    0.3882046501300727    0.43961451554845776    0.49640715693526805    
  0.545361065869924    0.5764508201705149    0.5869850468952988    0.5809798879873009    0.5650919083129476    
  0.5451006651813877    0.5248784248506999    0.5069114198655534    0.4929116973208371    0.4840537407080083    
  0.48102578751430775    0.5091063751411514    0.5121324503610744    0.5207239429116611    0.5335831041284035    
  0.5489764091631777    0.5650943744254533    0.5801571335281518    0.5920714857505113    0.5978413762588802    
  0.5936408184402568    0.576450820170515    0.546683216095741    0.5095919490398316    0.4738632059862941    
  0.44832625989083047    0.43910484669177874    0.44832625989083047    0.4738632059862941    0.5095919490398316    
  0.5466832160957409    0.5764508201705147    0.5936408184402567    0.5978413762588801    0.5920714857505113    
  0.5801571335281518    0.5650943744254533    0.5489764091631777    0.5335831041284035    0.5207239429116611    
  0.5121324503610744    0.5091063751411514    0.5213349683284086    0.5252032468088702    0.5358350091060516    
  0.5506954881012842    0.5666441133456219    0.5809849887771377    0.5920741621518355    0.5991348703386019    
  0.6014635166004197    0.5978413762588803    0.586985046895299    0.5689452896765053    0.5462966072032229    
  0.5239551307359163    0.5075879477264672    0.5015869929918517    0.5075879477264672    0.5239551307359163    
  0.5462966072032229    0.5689452896765053    0.586985046895299    0.5978413762588802    0.6014635166004196    
  0.599134870338602    0.5920741621518355    0.5809849887771377    0.5666441133456219    0.5506954881012842    
  0.5358350091060516    0.5252032468088702    0.5213349683284086    0.5015987935384183    0.5075996517722186    
  0.5239664934394235    0.5463072555970149    0.5689547178918374    0.5869926927532562    0.59784674097121    
  0.6014662642936968    0.599134870338602    0.5920714857505112    0.5809798879873009    0.5666369861203366    
  0.5506868195301747    0.5358252973748924    0.5251929468818802    0.5213244802954227    0.5251929468818802    
  0.5358252973748924    0.5506868195301747    0.5666369861203365    0.5809798879873008    0.592071485750511    
  0.5991348703386018    0.6014662642936969    0.59784674097121    0.5869926927532562    0.5689547178918374    
  0.5463072555970149    0.5239664934394235    0.5075996517722186    0.5015987935384183    0.43911650264885904    
  0.44833796579136526    0.47387497902260484    0.5096035866741401    0.546694246141122    0.5764605789611089    
  0.5936486314238665    0.59784674097121    0.5920741621518355    0.5801571335281518    0.5650919083129478    
  0.5489718319267859    0.5335768631422095    0.520716523765479    0.5121243358992527    0.5090980316000548    
  0.5121243358992528    0.520716523765479    0.5335768631422095    0.5489718319267858    0.5650919083129476    
  0.5801571335281517    0.5920741621518354    0.5978467409712102    0.5936486314238665    0.5764605789611089    
  0.546694246141122    0.5096035866741401    0.47387497902260484    0.44833796579136526    0.43911650264885904    
  0.34092828642313616    0.35322211810880877    0.3882153579854641    0.43962583128871374    0.4964187348451075    
  0.5453721795849987    0.5764605789611088    0.586992692753256    0.5809849887771377    0.5650943744254533    
  0.5451006651813876    0.5248762948316321    0.5069075945080425    0.49290665609337264    0.4840479724090543    
  0.4810197775852691    0.4840479724090542    0.49290665609337264    0.5069075945080425    0.524876294831632    
  0.5451006651813874    0.5650943744254533    0.5809849887771376    0.5869926927532562    0.5764605789611088    
  0.5453721795849987    0.4964187348451075    0.43962583128871374    0.3882153579854641    0.3532221181088087    
  0.34092828642313616    0.23295809607516701    0.24662853180764202    0.2869709557550168    0.3500933311175245    
  0.42549096042436424    0.4964187348451075    0.546694246141122    0.568954717891837    0.5666441133456218    
  0.5489764091631777    0.5248784248506999    0.5003900489010853    0.47902292792462886    0.46277403246189514    
  0.45271940331660154    0.4493285472147391    0.45271940331660154    0.46277403246189514    0.47902292792462886    
  0.5003900489010851    0.5248784248506997    0.5489764091631777    0.5666441133456217    0.5689547178918373    
  0.546694246141122    0.4964187348451075    0.42549096042436435    0.3500933311175245    0.2869709557550168    
  0.24662853180764205    0.23295809607516701    0.1435207571884374    0.1564048675901759    0.19612910076691253    
  0.2630199705527353    0.35009333111752455    0.4396258312887139    0.5096035866741402    0.546307255597015    
  0.5506954881012842    0.5335831041284036    0.5069114198655532    0.4790246274057515    0.45460523204710085    
  0.4361015489190357    0.42470818862990434    0.42087904062961556    0.42470818862990434    0.4361015489190357    
  0.45460523204710085    0.4790246274057514    0.5069114198655532    0.5335831041284035    0.5506954881012841    
  0.5463072555970151    0.5096035866741402    0.4396258312887139    0.35009333111752455    0.2630199705527353    
  0.19612910076691248    0.1564048675901759    0.1435207571884374    0.08573881022995566    0.09665654412816829    
  0.1319625771217541    0.1961291007669124    0.2869709557550169    0.388215357985464    0.47387497902260484    
  0.5239664934394234    0.5358350091060515    0.5207239429116612    0.4929116973208372    0.4627769528381976    
  0.4361027686656817    0.4158124372460662    0.40329886049287783    0.39909084656781774    0.40329886049287783    
  0.4158124372460662    0.4361027686656817    0.4627769528381976    0.4929116973208371    0.5207239429116611    
  0.5358350091060514    0.5239664934394235    0.47387497902260484    0.388215357985464    0.2869709557550169    
  0.1961291007669124    0.1319625771217541    0.09665654412816829    0.08573881022995566    0.05658501733511638    
  0.065759454957378    0.09665654412816835    0.15640486759017572    0.24662853180764224    0.35322211810880877    
  0.44833796579136515    0.5075996517722186    0.5252032468088701    0.5121324503610742    0.4840537407080083    
  0.45272305504522886    0.42471013776551536    0.4032995883752874    0.39005793694715674    0.38559885282822426    
  0.39005793694715674    0.40329958837528745    0.42471013776551525    0.45272305504522864    0.4840537407080082    
  0.5121324503610742    0.5252032468088701    0.5075996517722187    0.44833796579136515    0.3532221181088088    
  0.24662853180764224    0.15640486759017572    0.09665654412816829    0.06575945495737805    0.05658501733511638    
  0.048070563494882604    0.05658501733511628    0.08573881022995584    0.1435207571884374    0.23295809607516701    
  0.3409282864231361    0.43911650264885904    0.5015987935384183    0.5213349683284086    0.5091063751411513    
  0.4810257875143079    0.4493324422941644    0.42088123213958967    0.39909181589864207    0.3855990939837343    
  0.38105256969679513    0.3855990939837343    0.39909181589864207    0.42088123213958967    0.44933244229416425    
  0.4810257875143078    0.5091063751411513    0.5213349683284086    0.5015987935384184    0.43911650264885904    
  0.3409282864231361    0.23295809607516701    0.1435207571884374    0.08573881022995584    0.05658501733511628    
  0.048070563494882604    0.05658501733511628    0.06575945495737795    0.09665654412816829    0.1564048675901758    
  0.24662853180764202    0.3532221181088088    0.44833796579136515    0.5075996517722184    0.5252032468088703    
  0.5121324503610744    0.4840537407080082    0.4527230550452289    0.42471013776551536    0.4032995883752875    
  0.39005793694715674    0.38559885282822426    0.39005793694715674    0.4032995883752875    0.42471013776551536    
  0.45272305504522875    0.4840537407080081    0.5121324503610742    0.5252032468088702    0.5075996517722186    
  0.44833796579136515    0.3532221181088088    0.24662853180764202    0.1564048675901758    0.09665654412816829    
  0.065759454957378    0.05658501733511628    0.06575945495737805    0.07555659398673224    0.10806228947810936    
  0.16952308852770617    0.2602224450917401    0.3652085852814406    0.4571867009065474    0.5132886066183187    
  0.5288504966475003    0.5150001515487337    0.48695344926459244    0.45599928296277387    0.42843419597910154    
  0.40741107672255555    0.3944269281800615    0.39005769475616053    0.3944269281800614    0.40741107672255555    
  0.42843419597910154    0.45599928296277376    0.48695344926459233    0.5150001515487337    0.5288504966475001    
  0.5132886066183189    0.4571867009065474    0.3652085852814406    0.2602224450917401    0.16952308852770617    
  0.10806228947810936    0.07555659398673224    0.06575945495737805    0.09665654412816829    0.1080622894781094    
  0.14453402437687168    0.2096612329780146    0.30013875138234464    0.3992138679153415    0.48163550017722156    
  0.52878223150503    0.5388743352524924    0.5231557005406248    0.49545460032853506    0.46573160481646536    
  0.43952973273916857    0.4196493275588388    0.4074103460932136    0.40329861524301414    0.4074103460932136    
  0.4196493275588388    0.4395297327391687    0.46573160481646525    0.49545460032853494    0.5231557005406247    
  0.5388743352524923    0.52878223150503    0.48163550017722156    0.3992138679153415    0.30013875138234464    
  0.2096612329780146    0.14453402437687168    0.1080622894781094    0.09665654412816829    0.1564048675901759    
  0.16952308852770626    0.2096612329780145    0.27640702025083086    0.3620600287486124    0.44887588769043907    
  0.5156953103490398    0.549874533194526    0.5528907161558104    0.5354065078284919    0.5089452159264538    
  0.48151119030042866    0.4575935281945469    0.43952850937604443    0.4284322403112044    0.42470793858060674    
  0.4284322403112043    0.43952850937604443    0.4575935281945469    0.48151119030042855    0.5089452159264537    
  0.5354065078284918    0.5528907161558103    0.5498745331945261    0.5156953103490398    0.44887588769043907    
  0.3620600287486124    0.27640702025083086    0.2096612329780145    0.16952308852770626    0.1564048675901759    
  0.24662853180764202    0.2602224450917401    0.3001387513823445    0.3620600287486124    0.4352521436405934    
  0.503307893997865    0.5508385679337877    0.5711781091040813    0.567958402847903    0.5501546778429036    
  0.5263530207107078    0.5023488544592865    0.4815094871904763    0.465728676705331    0.45599562004147504    
  0.45271914740257796    0.45599562004147504    0.465728676705331    0.4815094871904763    0.5023488544592863    
  0.5263530207107077    0.5501546778429036    0.5679584028479029    0.5711781091040815    0.5508385679337877    
  0.503307893997865    0.4352521436405934    0.3620600287486124    0.30013875138234447    0.2602224450917401    
  0.24662853180764202    0.3532221181088089    0.3652085852814406    0.3992138679153415    0.44887588769043896    
  0.503307893997865    0.5497616066263018    0.578794349628573    0.5880613103805483    0.581558688729521    
  0.5657115919869817    0.5460683656320853    0.5263508874527182    0.5089413826778512    0.4954495456106809    
  0.48694766272028944    0.48404771065364044    0.48694766272028944    0.49544954561068083    0.5089413826778512    
  0.5263508874527181    0.5460683656320852    0.5657115919869816    0.5815586887295209    0.5880613103805485    
  0.578794349628573    0.5497616066263018    0.503307893997865    0.44887588769043896    0.3992138679153415    
  0.3652085852814406    0.3532221181088089    0.44833796579136515    0.4571867009065474    0.48163550017722156    
  0.5156953103490397    0.5508385679337877    0.5787943496285731    0.5946544530251422    0.5981282287519589    
  0.5921472656196075    0.5803811738065648    0.5657091228032315    0.5501500923362955    0.5354002505597653    
  0.5231482556509143    0.5149920035176251    0.5121240702043395    0.5149920035176252    0.5231482556509143    
  0.5354002505597653    0.5501500923362954    0.5657091228032315    0.5803811738065647    0.5921472656196074    
  0.598128228751959    0.5946544530251422    0.5787943496285731    0.5508385679337877    0.5156953103490397    
  0.48163550017722156    0.4571867009065474    0.44833796579136515    0.5075996517722186    0.5132886066183189    
  0.52878223150503    0.5498745331945258    0.5711781091040815    0.5880613103805484    0.598128228751959    
  0.6013579037273479    0.5989749935639227    0.5921445859623801    0.581553578383417    0.5679512545240594    
  0.5528820098152892    0.5388645673683254    0.5288401260932476    0.525192682655101    0.5288401260932476    
  0.5388645673683254    0.5528820098152892    0.5679512545240593    0.581553578383417    0.59214458596238    
  0.5989749935639226    0.601357903727348    0.598128228751959    0.5880613103805484    0.5711781091040815    
  0.5498745331945258    0.52878223150503    0.5132886066183188    0.5075996517722186    0.5252032468088702    
  0.5288504966475003    0.5388743352524924    0.5528907161558104    0.567958402847903    0.5815586887295211    
  0.5921472656196074    0.5989749935639227    0.6013551526343252    0.5981228532034519    0.5880536380419472    
  0.5711686283280578    0.5498637982479595    0.5287707478537198    0.5132767561646661    0.5075876954627037    
  0.513276756164666    0.5287707478537198    0.5498637982479595    0.5711686283280578    0.5880536380419472    
  0.5981228532034518    0.601355152634325    0.5989749935639228    0.5921472656196074    0.5815586887295211    
  0.567958402847903    0.5528907161558104    0.5388743352524924    0.5288504966475003    0.5252032468088702    
  0.5121324503610744    0.5150001515487338    0.5231557005406247    0.5354065078284916    0.5501546778429036    
  0.5657115919869817    0.5803811738065648    0.5921445859623801    0.5981228532034518    0.5946466111633026    
  0.5787845277679978    0.550827424285772    0.515683500390385    0.4816235011537415    0.45717473232352607    
  0.44832603425317563    0.45717473232352607    0.4816235011537414    0.515683500390385    0.5508274242857719    
  0.5787845277679976    0.5946466111633025    0.5981228532034517    0.5921445859623802    0.5803811738065648    
  0.5657115919869817    0.5501546778429036    0.5354065078284916    0.5231557005406247    0.5150001515487338    
  0.5121324503610744    0.4840537407080081    0.48695344926459233    0.49545460032853506    0.5089452159264538    
  0.5263530207107078    0.5460683656320854    0.5657091228032315    0.5815535783834169    0.5880536380419472    
  0.5787845277679978    0.5497503685426903    0.5032961122092807    0.44886428752106705    0.39920281159644244    