#     DFTpy    
  CRYSTAL 
    
  PRIMVEC    
  3.9216206896551706    0.0    0.0    
  0.0    3.9216206896551706    0.0    
  0.0    0.0    3.9216206896551706    
  PRIMCOORD    
  4    1    
  Si    0.0    0.0    0.0    
  Si    0.0    1.9608103448275902    1.9608103448275902    
  Si    1.9608103448275902    0.0    1.9608103448275902    
  Si    1.9608103448275902    1.9608103448275902    0.0    
  BEGIN_BLOCK_DATAGRID_3D    
  3d_datagrid_density    
  BEGIN_DATAGRID_3D#0    
  41    41    41    
  0.0    0.0    0.0    
  3.921620704282891    0.0    0.0    
  0.0    3.921620704282891    0.0    
  0.0    0.0    3.921620704282891    
  0.05614676047298323    0.06342024669481451    0.08730725205466262    0.13198499472467778    0.19770187704776868    
  0.274073783976859    0.3408000594779526    0.3787314695321095    0.38151682367338585    0.3566735148704875    
  0.3174950729519223    0.27515576844619816    0.236044004374402    0.20277593225921375    0.1758941912319775    
  0.1549844035441201    0.13927737594444978    0.12798514521456478    0.12044753961883835    0.11615575797520905    
  0.11476688125280533    0.11615575797520902    0.12044753961883832    0.12798514521456472    0.13927737594444978    
  0.15498440354412016    0.1758941912319775    0.2027759322592138    0.23604400437440193    0.27515576844619816    
  0.31749507295192225    0.35667351487048743    0.38151682367338585    0.37873146953210945    0.34080005947795267    
  0.27407378397685894    0.19770187704776862    0.1319849947246778    0.08730725205466264    0.06342024669481452    
  0.05614676047298323    0.06342024669481452    0.07106654489730217    0.09587998285188136    0.14142290698803442    
  0.2070456659644663    0.2817866697982609    0.34569605701747386    0.38071116722583337    0.381439386662441    
  0.3556560612229069    0.3163614639146443    0.2743201770274085    0.23564242433807156    0.20281132601541185    
  0.176316465970154    0.1557247040435016    0.1402645233212146    0.12915386214304503    0.12174026957691322    
  0.11752077921297813    0.11615567122003073    0.11752077921297807    0.1217402695769132    0.12915386214304495    
  0.1402645233212146    0.15572470404350167    0.17631646597015396    0.202811326015412    0.2356424243380715    
  0.2743201770274085    0.31636146391464426    0.3556560612229069    0.381439386662441    0.38071116722583337    
  0.34569605701747386    0.28178666979826084    0.2070456659644663    0.14142290698803442    0.09587998285188143    
  0.0710665448973022    0.06342024669481452    0.08730725205466262    0.09587998285188139    0.12286300214976853    
  0.1700005245681123    0.23423969614738638    0.30336393261290473    0.3587527672223885    0.38545057842463365    
  0.38056527424765163    0.3523818984201107    0.3129685637345336    0.2719196894432383    0.23457592429206084    
  0.20305907539077095    0.1777176545615386    0.1580715199307534    0.1433467774761883    0.13277997834414756    
  0.1257403047261157    0.12174000428127836    0.12044718736573617    0.12174000428127833    0.1257403047261157    
  0.13277997834414745    0.1433467774761883    0.1580715199307535    0.17771765456153854    0.203059075390771    
  0.23457592429206084    0.2719196894432383    0.3129685637345336    0.3523818984201107    0.38056527424765163    
  0.38545057842463365    0.3587527672223885    0.30336393261290473    0.23423969614738638    0.1700005245681123    
  0.12286300214976856    0.09587998285188139    0.08730725205466262    0.13198499472467784    0.1414229069880344    
  0.17000052456811224    0.21677183239511869    0.27572194716212883    0.3338722949990329    0.3753727153669184    
  0.38980103442354463    0.37731742264858087    0.3463709876260299    0.3074038553335416    0.2682697492575168    
  0.23322511438307916    0.20389881827411893    0.18045478513327323    0.16235979933371164    0.1488478576447304    
  0.13918784631900216    0.13277952155891354    0.1291531382708483    0.1279843334506827    0.1291531382708483    
  0.1327795215589135    0.13918784631900213    0.1488478576447304    0.1623597993337117    0.18045478513327318    
  0.203898818274119    0.23322511438307914    0.26826974925751673    0.30740385533354153    0.3463709876260299    
  0.37731742264858087    0.38980103442354463    0.37537271536691846    0.3338722949990329    0.27572194716212883    
  0.21677183239511863    0.17000052456811227    0.14142290698803445    0.13198499472467784    0.19770187704776868    
  0.2070456659644663    0.2342396961473863    0.2757219471621288    0.32339177276597925    0.3651057073359144    
  0.38914452959797846    0.38992502016300157    0.37004996007419555    0.3373112982997536    0.2999666132304151    
  0.2638765502445509    0.23213152105693854    0.20584922852950324    0.1850130915970486    0.16905215300339368    
  0.15722617078174622    0.1488471930428747    0.14334565053613946    0.1402631234368776    0.13927588574150618    
  0.14026312343687758    0.14334565053613946    0.1488471930428747    0.15722617078174622    0.16905215300339377    
  0.18501309159704857    0.2058492285295033    0.23213152105693843    0.2638765502445509    0.299966613230415    
  0.3373112982997536    0.37004996007419555    0.38992502016300157    0.38914452959797846    0.3651057073359144    
  0.3233917727659793    0.2757219471621288    0.2342396961473863    0.20704566596446636    0.19770187704776868    
  0.27407378397685894    0.2817866697982609    0.30336393261290473    0.3338722949990329    0.3651057073359145    
  0.387536089473362    0.3940381646700622    0.3829385343866844    0.3579609242091077    0.32543320734930303    
  0.2912519511633774    0.2593971667712937    0.23191872277898215    0.20948951361999588    0.19194487145385095    
  0.17869881239180505    0.16905126641553372    0.1623582359687626    0.1580694782784947    0.15572237656731344    
  0.15498198083831302    0.15572237656731341    0.1580694782784947    0.1623582359687626    0.16905126641553372    
  0.17869881239180507    0.19194487145385095    0.2094895136199959    0.2319187227789821    0.2593971667712937    
  0.29125195116337727    0.3254332073493031    0.3579609242091077    0.3829385343866844    0.39403816467006225    
  0.387536089473362    0.3651057073359145    0.3338722949990329    0.30336393261290473    0.28178666979826095    
  0.27407378397685894    0.34080005947795267    0.34569605701747386    0.3587527672223885    0.3753727153669184    
  0.38914452959797846    0.3940381646700622    0.38681478151925375    0.3681153790010381    0.34153398820828784    
  0.3115968358361644    0.2821203721988684    0.25558984000377183    0.2332540242119883    0.21543914217424495    
  0.20186561754637514    0.19194375777038056    0.1850110695449041    0.18045205436160885    0.1777144136770695    
  0.17631291608501143    0.175890537641169    0.1763129160850114    0.1777144136770695    0.18045205436160885    
  0.1850110695449041    0.19194375777038059    0.2018656175463751    0.21543914217424498    0.2332540242119882    
  0.25558984000377183    0.28212037219886826    0.3115968358361644    0.34153398820828784    0.3681153790010381    
  0.3868147815192538    0.3940381646700622    0.38914452959797846    0.3753727153669184    0.3587527672223885    
  0.3456960570174739    0.34080005947795267    0.3787314695321095    0.3807111672258334    0.38545057842463365    
  0.3898010344235446    0.38992502016300157    0.3829385343866844    0.36811537900103797    0.34696893295189507    
  0.3223132675002538    0.2970807090109733    0.2735750259130791    0.25326106396919434    0.2368316754898173    
  0.22435063782453232    0.21543781145649393    0.20948703615075026    0.20584579035562683    0.20389461333325284    
  0.20305430858426668    0.2028062146195952    0.2027707044839803    0.20280621461959514    0.20305430858426668    
  0.20389461333325282    0.20584579035562683    0.2094870361507503    0.21543781145649393    0.22435063782453232    
  0.23683167548981718    0.25326106396919434    0.273575025913079    0.2970807090109733    0.3223132675002538    
  0.346968932951895    0.36811537900103797    0.3829385343866844    0.38992502016300157    0.38980103442354463    
  0.38545057842463365    0.3807111672258334    0.3787314695321095    0.38151682367338585    0.381439386662441    
  0.3805652742476515    0.37731742264858076    0.3700499600741956    0.35796092420910763    0.34153398820828773    
  0.32231326750025374    0.30227620308051295    0.28324987686880093    0.2666073507595312    0.25318907394087087    
  0.2433128314112172    0.23683015646061642    0.23325113051670687    0.2319146087986797    0.232126359281456    
  0.23321910024989306    0.23456927712500114    0.23563538576825602    0.23603683313249407    0.235635385768256    
  0.23456927712500114    0.23321910024989306    0.232126359281456    0.23191460879867976    0.23325113051670687    
  0.23683015646061645    0.24331283141121718    0.25318907394087087    0.266607350759531    0.28324987686880093    
  0.30227620308051295    0.3223132675002538    0.3415339882082878    0.35796092420910763    0.37004996007419555    
  0.3773174226485808    0.3805652742476515    0.381439386662441    0.38151682367338585    0.35667351487048743    
  0.3556560612229069    0.3523818984201107    0.34637098762602986    0.33731129829975354    0.325433207349303    
  0.3115968358361644    0.2970807090109732    0.2832498768688009    0.27128822675697156    0.262052316017943    
  0.2560042469331088    0.25318741509776815    0.2532578337651562    0.25558514363855755    0.2593911368656048    
  0.2638693552953416    0.26826159642435676    0.27191082174993353    0.27431086697380924    0.27514630853720706    
  0.27431086697380924    0.27191082174993353    0.26826159642435676    0.2638693552953416    0.2593911368656049    
  0.25558514363855755    0.25325783376515626    0.25318741509776815    0.2560042469331088    0.2620523160179429    
  0.27128822675697156    0.2832498768688009    0.2970807090109732    0.3115968358361644    0.325433207349303    
  0.33731129829975354    0.3463709876260299    0.3523818984201107    0.35565606122290694    0.35667351487048743    
  0.3174950729519223    0.31636146391464426    0.3129685637345336    0.3074038553335416    0.299966613230415    
  0.29125195116337727    0.2821203721988683    0.2735750259130791    0.26660735075953124    0.2620523160179429    
  0.2604679175521961    0.2620505826624775    0.26660390161736036    0.2735699025109756    0.282113651450066    
  0.291243757848323    0.2999571274974698    0.3073933107615063    0.3129572364525766    0.31634965770341184    
  0.31748310572060284    0.3163496577034118    0.3129572364525766    0.3073933107615062    0.2999571274974698    
  0.29124375784832307    0.282113651450066    0.2735699025109757    0.26660390161736036    0.2620505826624775    
  0.26046791755219606    0.26205231601794293    0.26660735075953124    0.2735750259130791    0.2821203721988684    
  0.29125195116337727    0.299966613230415    0.30740385533354153    0.3129685637345336    0.3163614639146443    
  0.3174950729519223    0.27515576844619816    0.2743201770274085    0.2719196894432383    0.26826974925751673    
  0.26387655024455087    0.2593971667712937    0.25558984000377183    0.25326106396919434    0.2531890739408709    
  0.2560042469331088    0.2620505826624775    0.27128470180273745    0.2832445286747892    0.29707354764115623    
  0.31158793051383626    0.32542270113632954    0.3372994113792514    0.34635800270942285    0.3523681317332215    
  0.3556418331004429    0.3566591350590089    0.3556418331004429    0.3523681317332215    0.34635800270942285    
  0.3372994113792514    0.3254227011363296    0.3115879305138362    0.2970735476411563    0.28324452867478916    
  0.27128470180273745    0.26205058266247744    0.25600424693310886    0.2531890739408709    0.25326106396919434    
  0.2555898400037719    0.2593971667712937    0.26387655024455087    0.26826974925751673    0.2719196894432383    
  0.2743201770274085    0.27515576844619816    0.23604400437440196    0.23564242433807156    0.23457592429206084    
  0.23322511438307916    0.23213152105693854    0.2319187227789821    0.23325402421198815    0.23683167548981718    
  0.2433128314112172    0.2531874150977682    0.26660390161736036    0.2832445286747892    0.3022688912772571    
  0.32230399721953107    0.3415228599914529    0.3579481492305076    0.3700358484726292    0.37730233776054245    
  0.3805495686977876    0.38142335366303765    0.3815006908404668    0.38142335366303765    0.3805495686977876    
  0.3773023377605424    0.3700358484726292    0.35794814923050766    0.3415228599914529    0.3223039972195311    
  0.302268891277257    0.2832445286747892    0.26660390161736036    0.2531874150977682    0.2433128314112172    
  0.23683167548981718    0.2332540242119882    0.2319187227789821    0.23213152105693854    0.23322511438307916    
  0.23457592429206084    0.23564242433807156    0.23604400437440196    0.2027759322592138    0.20281132601541196    
  0.20305907539077103    0.203898818274119    0.2058492285295033    0.2094895136199959    0.21543914217424495    
  0.22435063782453232    0.23683015646061656    0.2532578337651563    0.2735699025109757    0.2970735476411563    
  0.3223039972195312    0.3469575991710923    0.3681021811817199    0.38292383255001405    0.3899092826392753    
  0.3897847309222317    0.38543406627463894    0.38069463124156355    0.37871494502877995    0.3806946312415635    
  0.38543406627463894    0.3897847309222317    0.3899092826392753    0.3829238325500141    0.3681021811817199    
  0.3469575991710924    0.32230399721953107    0.2970735476411563    0.2735699025109756    0.2532578337651563    
  0.23683015646061656    0.22435063782453232    0.21543914217424498    0.2094895136199959    0.2058492285295033    
  0.203898818274119    0.203059075390771    0.20281132601541196    0.2027759322592138    0.1758941912319775    
  0.17631646597015396    0.17771765456153854    0.18045478513327318    0.18501309159704862    0.1919448714538509    
  0.2018656175463751    0.215437811456494    0.23325113051670693    0.25558514363855755    0.28211365145006606    
  0.3115879305138362    0.3415228599914529    0.3681021811817199    0.3867999070408851    0.39402221798416637    
  0.3891281913903346    0.3753565457704229    0.3587370510338448    0.3456807676977851    0.3407849401120371    
  0.345680767697785    0.3587370510338448    0.3753565457704229    0.3891281913903346    0.3940222179841664    
  0.3867999070408851    0.3681021811817199    0.3415228599914529    0.3115879305138362    0.28211365145006595    
  0.25558514363855755    0.23325113051670693    0.215437811456494    0.20186561754637514    0.19194487145385092    
  0.18501309159704862    0.18045478513327318    0.17771765456153854    0.176316465970154    0.1758941912319775    
  0.15498440354412013    0.15572470404350172    0.1580715199307535    0.16235979933371159    0.16905215300339368    
  0.17869881239180496    0.1919437577703806    0.20948703615075032    0.2319146087986797    0.2593911368656049    
  0.291243757848323    0.32542270113632954    0.3579481492305076    0.3829238325500141    0.39402221798416637    
  0.38751981163258964    0.36508997916657093    0.33385767681713063    0.30335052177114624    0.28177415138013695    
  0.27406159005118513    0.2817741513801369    0.30335052177114624    0.33385767681713063    0.36508997916657093    
  0.3875198116325896    0.39402221798416637    0.3829238325500141    0.3579481492305075    0.32542270113632954    
  0.2912437578483229    0.2593911368656049    0.2319146087986797    0.20948703615075032    0.1919437577703806    
  0.17869881239180493    0.16905215300339366    0.16235979933371159    0.1580715199307535    0.15572470404350172    
  0.15498440354412013    0.1392773759444497    0.14026452332121458    0.14334677747618824    0.14884785764473035    
  0.15722617078174614    0.1690512664155337    0.18501106954490404    0.2058457903556267    0.2321263592814559    
  0.26386935529534167    0.29995712749746967    0.3372994113792514    0.37003584847262927    0.38990928263927516    
  0.38912819139033455    0.3650899791665709    0.32337763334571745    0.2757098104344637    0.23422936899996083    
  0.20703654341520383    0.19769317060916242    0.20703654341520383    0.2342293689999608    0.27570981043446374    
  0.32337763334571745    0.36508997916657093    0.38912819139033455    0.38990928263927527    0.3700358484726292    
  0.3372994113792514    0.29995712749746956    0.26386935529534167    0.2321263592814559    0.20584579035562672    
  0.1850110695449041    0.1690512664155337    0.15722617078174617    0.14884785764473032    0.14334677747618824    
  0.14026452332121456    0.1392773759444497    0.12798514521456464    0.12915386214304492    0.1327799783441475    
  0.13918784631900208    0.1488471930428747    0.16235823596876242    0.18045205436160874    0.20389461333325282    
  0.233219100249893    0.2682615964243568    0.3073933107615061    0.3463580027094228    0.37730233776054245    
  0.3897847309222317    0.37535654577042277    0.33385767681713063    0.27570981043446374    0.21676231870789534    
  0.1699931197748961    0.1414167929773101    0.1319793064295443    0.14141679297731008    0.1699931197748961    
  0.2167623187078954    0.27570981043446374    0.3338576768171306    0.3753565457704228    0.3897847309222317    
  0.3773023377605424    0.3463580027094228    0.30739331076150606    0.26826159642435676    0.233219100249893    
  0.20389461333325284    0.1804520543616088    0.16235823596876242    0.1488471930428747    0.139187846319002    
  0.1327799783441474    0.12915386214304492    0.12798514521456464    0.1204475396188384    0.1217402695769133    
  0.12574030472611575    0.13277952155891348    0.14334565053613946    0.1580694782784947    0.17771441367706947    
  0.20305430858426665    0.23456927712500122    0.27191082174993364    0.3129572364525766    0.35236813173322146    
  0.3805495686977876    0.3854340662746389    0.3587370510338448    0.30335052177114624    0.23422936899996089    
  0.16999311977489612    0.12285774153963683    0.09587594002829494    0.08730359346633641    0.0958759400282949    
  0.12285774153963684    0.16999311977489623    0.23422936899996089    0.30335052177114624    0.3587370510338448    
  0.385434066274639    0.3805495686977876    0.35236813173322146    0.3129572364525765    0.2719108217499336    
  0.23456927712500122    0.2030543085842667    0.17771441367706953    0.15806947827849474    0.14334565053613946    
  0.13277952155891348    0.1257403047261157    0.12174026957691325    0.1204475396188384    0.11615575797520905    
  0.1175207792129781    0.12174000428127833    0.1291531382708483    0.14026312343687758    0.15572237656731333    
  0.17631291608501135    0.20280621461959505    0.23563538576825602    0.27431086697380924    0.3163496577034119    
  0.3556418331004429    0.3814233536630378    0.38069463124156344    0.345680767697785    0.28177415138013695    
  0.20703654341520383    0.14141679297731016    0.09587594002829498    0.07106361397274766    0.06341765449996813    
  0.07106361397274763    0.09587594002829498    0.14141679297731016    0.20703654341520383    0.2817741513801369    
  0.345680767697785    0.3806946312415635    0.38142335366303765    0.3556418331004429    0.3163496577034118    
  0.27431086697380924    0.23563538576825602    0.20280621461959508    0.1763129160850114    0.15572237656731336    
  0.14026312343687758    0.1291531382708483    0.12174000428127833    0.117520779212978    0.11615575797520905    
  0.1147668812528054    0.11615567122003076    0.12044718736573619    0.12798433345068266    0.13927588574150615    
  0.154981980838313    0.1758905376411689    0.20277070448398024    0.23603683313249407    0.275146308537207    
  0.31748310572060284    0.3566591350590088    0.3815006908404669    0.37871494502877995    0.34078494011203697    
  0.27406159005118513    0.19769317060916244    0.13197930642954425    0.08730359346633622    0.06341765449996806    
  0.05614448868557351    0.06341765449996806    0.08730359346633627    0.13197930642954436    0.19769317060916244    
  0.27406159005118513    0.34078494011203697    0.37871494502877995    0.3815006908404668    0.3566591350590088    
  0.3174831057206028    0.275146308537207    0.23603683313249407    0.2027707044839803    0.17589053764116894    
  0.15498198083831302    0.13927588574150615    0.12798433345068266    0.12044718736573617    0.1161556712200307    
  0.1147668812528054    0.11615575797520898    0.11752077921297813    0.12174000428127833    0.1291531382708483    
  0.14026312343687763    0.1557223765673134    0.17631291608501135    0.20280621461959505    0.23563538576825607    
  0.27431086697380924    0.3163496577034119    0.3556418331004429    0.3814233536630378    0.38069463124156344    
  0.345680767697785    0.28177415138013695    0.2070365434152038    0.14141679297731008    0.09587594002829497    
  0.0710636139727476    0.06341765449996813    0.0710636139727476    0.09587594002829498    0.14141679297731014    
  0.2070365434152038    0.2817741513801369    0.345680767697785    0.3806946312415635    0.3814233536630377    
  0.3556418331004429    0.31634965770341184    0.27431086697380924    0.23563538576825607    0.20280621461959508    
  0.17631291608501143    0.15572237656731341    0.14026312343687763    0.1291531382708483    0.1217400042812783    
  0.11752077921297807    0.11615575797520898    0.12044753961883847    0.12174026957691327    0.1257403047261157    
  0.13277952155891348    0.14334565053613949    0.15806947827849463    0.1777144136770695    0.2030543085842667    
  0.23456927712500122    0.27191082174993364    0.3129572364525766    0.35236813173322146    0.3805495686977876    
  0.38543406627463894    0.35873705103384484    0.30335052177114624    0.23422936899996097    0.16999311977489617    
  0.1228577415396368    0.09587594002829497    0.08730359346633641    0.09587594002829498    0.12285774153963683    
  0.16999311977489623    0.23422936899996097    0.30335052177114624    0.35873705103384484    0.385434066274639    
  0.3805495686977875    0.35236813173322146    0.31295723645257645    0.2719108217499336    0.23456927712500122    
  0.20305430858426674    0.17771441367706947    0.15806947827849466    0.14334565053613949    0.13277952155891348    
  0.1257403047261157    0.12174026957691325    0.12044753961883847    0.12798514521456464    0.1291538621430449    
  0.1327799783441474    0.13918784631900205    0.14884719304287472    0.16235823596876248    0.18045205436160874    
  0.20389461333325276    0.233219100249893    0.26826159642435676    0.3073933107615061    0.34635800270942285    
  0.37730233776054245    0.38978473092223165    0.3753565457704228    0.3338576768171305    0.27570981043446374    
  0.2167623187078954    0.16999311977489606    0.14141679297731008    0.1319793064295443    0.14141679297731005    
  0.1699931197748961    0.21676231870789534    0.27570981043446374    0.33385767681713063    0.3753565457704228    
  0.3897847309222317    0.37730233776054234    0.3463580027094228    0.307393310761506    0.2682615964243567    
  0.233219100249893    0.2038946133332528    0.18045205436160885    0.16235823596876245    0.14884719304287466    
  0.13918784631900205    0.1327799783441474    0.12915386214304492    0.12798514521456464    0.1392773759444497    
  0.14026452332121458    0.14334677747618824    0.14884785764473035    0.15722617078174614    0.1690512664155337    
  0.18501106954490404    0.2058457903556267    0.2321263592814559    0.26386935529534167    0.29995712749746967    
  0.3372994113792514    0.37003584847262927    0.38990928263927516    0.38912819139033455    0.3650899791665709    
  0.32337763334571745    0.2757098104344637    0.23422936899996083    0.20703654341520383    0.19769317060916242    
  0.20703654341520383    0.2342293689999608    0.27570981043446374    0.32337763334571745    0.36508997916657093    
  0.38912819139033455    0.38990928263927527    0.3700358484726292    0.3372994113792514    0.29995712749746956    
  0.26386935529534167    0.2321263592814559    0.20584579035562672    0.1850110695449041    0.1690512664155337    
  0.15722617078174617    0.14884785764473032    0.14334677747618824    0.14026452332121456    0.1392773759444497    
  0.15498440354412013    0.15572470404350175    0.1580715199307535    0.16235979933371167    0.16905215300339368    
  0.17869881239180493    0.19194375777038053    0.20948703615075023    0.23191460879867964    0.2593911368656049    
  0.291243757848323    0.32542270113632954    0.3579481492305076    0.38292383255001405    0.39402221798416637    
  0.38751981163258964    0.36508997916657093    0.33385767681713063    0.30335052177114624    0.28177415138013695    
  0.27406159005118513    0.2817741513801369    0.30335052177114624    0.33385767681713063    0.36508997916657093    
  0.38751981163258964    0.39402221798416637    0.3829238325500141    0.3579481492305076    0.32542270113632954    
  0.29124375784832296    0.2593911368656049    0.23191460879867964    0.20948703615075026    0.19194375777038059    
  0.17869881239180493    0.16905215300339368    0.16235979933371159    0.1580715199307534    0.15572470404350175    
  0.15498440354412013    0.17589419123197736    0.1763164659701539    0.17771765456153854    0.18045478513327318    
  0.1850130915970486    0.19194487145385092    0.20186561754637508    0.2154378114564939    0.23325113051670693    
  0.25558514363855755    0.282113651450066    0.3115879305138362    0.3415228599914529    0.36810218118171983    
  0.3867999070408851    0.39402221798416637    0.38912819139033455    0.3753565457704229    0.35873705103384484    
  0.345680767697785    0.3407849401120371    0.345680767697785    0.35873705103384484    0.37535654577042293    
  0.38912819139033455    0.3940222179841665    0.3867999070408851    0.3681021811817199    0.3415228599914529    
  0.3115879305138362    0.2821136514500659    0.25558514363855755    0.23325113051670693    0.21543781145649393    
  0.2018656175463751    0.19194487145385092    0.1850130915970486    0.18045478513327318    0.17771765456153854    
  0.17631646597015393    0.17589419123197736    0.2027759322592139    0.20281132601541188    0.203059075390771    
  0.20389881827411893    0.2058492285295033    0.2094895136199959    0.21543914217424495    0.22435063782453232    
  0.23683015646061645    0.2532578337651563    0.27356990251097574    0.2970735476411563    0.32230399721953107    
  0.3469575991710923    0.3681021811817199    0.3829238325500141    0.3899092826392753    0.38978473092223176    
  0.38543406627463894    0.3806946312415635    0.37871494502878    0.38069463124156355    0.38543406627463894    
  0.38978473092223176    0.3899092826392753    0.3829238325500141    0.3681021811817199    0.34695759917109237    
  0.32230399721953107    0.2970735476411563    0.2735699025109757    0.2532578337651563    0.23683015646061645    
  0.22435063782453232    0.21543914217424498    0.2094895136199959    0.2058492285295033    0.20389881827411893    
  0.203059075390771    0.20281132601541194    0.2027759322592139    0.23604400437440196    0.23564242433807156    
  0.23457592429206084    0.23322511438307914    0.23213152105693843    0.2319187227789821    0.23325402421198815    
  0.23683167548981718    0.24331283141121712    0.2531874150977682    0.26660390161736036    0.2832445286747892    
  0.30226889127725715    0.32230399721953107    0.3415228599914529    0.3579481492305076    0.37003584847262927    
  0.37730233776054245    0.3805495686977876    0.38142335366303765    0.3815006908404668    0.3814233536630376    
  0.3805495686977876    0.3773023377605425    0.37003584847262927    0.35794814923050766    0.3415228599914529    
  0.3223039972195311    0.3022688912772571    0.2832445286747892    0.26660390161736025    0.2531874150977682    
  0.24331283141121712    0.23683167548981718    0.23325402421198826    0.2319187227789821    0.23213152105693843    
  0.23322511438307916    0.23457592429206084    0.23564242433807156    0.23604400437440196    0.2751557684461981    
  0.2743201770274085    0.2719196894432383    0.26826974925751673    0.26387655024455087    0.2593971667712937    
  0.25558984000377183    0.25326106396919434    0.2531890739408709    0.2560042469331088    0.26205058266247755    
  0.2712847018027374    0.2832445286747892    0.29707354764115623    0.3115879305138362    0.32542270113632954    
  0.3372994113792514    0.34635800270942285    0.3523681317332215    0.3556418331004429    0.35665913505900876    
  0.3556418331004428    0.3523681317332215    0.34635800270942285    0.3372994113792514    0.3254227011363296    
  0.3115879305138362    0.2970735476411563    0.28324452867478916    0.2712847018027374    0.2620505826624775    
  0.2560042469331088    0.2531890739408709    0.25326106396919434    0.25558984000377183    0.2593971667712937    
  0.2638765502445509    0.26826974925751673    0.2719196894432383    0.2743201770274085    0.2751557684461981    
  0.3174950729519223    0.31636146391464437    0.3129685637345336    0.30740385533354153    0.29996661323041507    
  0.29125195116337727    0.28212037219886826    0.2735750259130791    0.2666073507595312    0.26205231601794293    
  0.2604679175521961    0.2620505826624775    0.26660390161736036    0.2735699025109756    0.282113651450066    
  0.291243757848323    0.2999571274974697    0.30739331076150617    0.3129572364525766    0.31634965770341184    
  0.31748310572060284    0.3163496577034118    0.3129572364525766    0.30739331076150617    0.2999571274974697    
  0.291243757848323    0.282113651450066    0.2735699025109757    0.26660390161736036    0.2620505826624775    
  0.26046791755219606    0.26205231601794293    0.2666073507595312    0.2735750259130791    0.2821203721988684    
  0.29125195116337727    0.29996661323041507    0.30740385533354153    0.3129685637345336    0.3163614639146444    