#     DFTpy    
  CRYSTAL 
    
  PRIMVEC    
  3.0057931034482803    0.0    0.0    
  0.0    3.0057931034482803    0.0    
  0.0    0.0    3.0057931034482803    
  PRIMCOORD    
  4    1    
  Si    0.0    0.0    0.0    
  Si    0.0    1.5028965517241402    1.5028965517241402    
  Si    1.5028965517241402    0.0    1.5028965517241402    
  Si    1.5028965517241402    1.5028965517241402    0.0    
  BEGIN_BLOCK_DATAGRID_3D    
  3d_datagrid_density    
  BEGIN_DATAGRID_3D#0    
  31    31    31    
  0.0    0.0    0.0    
  3.005793114659946    0.0    0.0    
  0.0    3.005793114659946    0.0    
  0.0    0.0    3.005793114659946    
  0.047412734941079025    0.055503472946077305    0.08318291174836535    0.13853171673032336    0.22684931275086953    
  0.34020346695704623    0.4546022108092008    0.5420755167751851    0.587653868056915    0.5948630760833251    
  0.5778258835807697    0.5509536811242798    0.5241267806876535    0.5027657641183843    0.4893728029759605    
  0.4848468866913051    0.48937280297596064    0.5027657641183843    0.5241267806876535    0.5509536811242798    
  0.5778258835807696    0.594863076083325    0.5876538680569151    0.5420755167751851    0.4546022108092008    
  0.34020346695704623    0.22684931275086961    0.13853171673032336    0.08318291174836526    0.05550347294607735    
  0.047412734941079025    0.055503472946077395    0.06421821663874826    0.09359765832829528    0.15105960178044636    
  0.24070401050377438    0.3535149542576207    0.4655007764677245    0.5498583247379852    0.5929403688739733    
  0.5988308570712522    0.5814401006946283    0.5547106958684445    0.5281698525864382    0.5070667173243979    
  0.4938411082638505    0.48937248902565494    0.4938411082638505    0.5070667173243979    0.5281698525864382    
  0.5547106958684445    0.5814401006946283    0.5988308570712519    0.5929403688739734    0.5498583247379852    
  0.4655007764677245    0.3535149542576207    0.2407040105037745    0.15105960178044636    0.09359765832829518    
  0.06421821663874826    0.055503472946077395    0.08318291174836541    0.09359765832829514    0.1274562086833673    
  0.19006296232520162    0.2821438372369346    0.39204738768330893    0.496299828846766    0.5715662086197136    
  0.6077264851521672    0.6101469893879553    0.5919721076589289    0.5657845877494015    0.5401314205735154    
  0.5197990721307231    0.5070657772733136    0.5027645101491519    0.5070657772733137    0.5197990721307231    
  0.5401314205735154    0.5657845877494015    0.5919721076589289    0.6101469893879552    0.6077264851521673    
  0.5715662086197136    0.496299828846766    0.39204738768330893    0.2821438372369347    0.19006296232520165    
  0.1274562086833673    0.09359765832829518    0.08318291174836541    0.13853171673032347    0.1510596017804463    
  0.19006296232520176    0.25733463377372473    0.3489843687546946    0.45078112103926704    0.5413049376805836    
  0.6025882088288173    0.6290276261660278    0.6270809387138839    0.6083517786783783    0.5833456821007744    
  0.5592171484455843    0.5401298665457274    0.5281673592365568    0.5241239737390938    0.5281673592365568    
  0.5401298665457274    0.5592171484455843    0.5833456821007744    0.6083517786783783    0.6270809387138838    
  0.6290276261660278    0.6025882088288173    0.5413049376805836    0.45078112103926704    0.3489843687546947    
  0.2573346337737248    0.1900629623252017    0.1510596017804464    0.13853171673032347    0.22684931275086953    
  0.24070401050377424    0.2821438372369347    0.3489843687546946    0.43325506076213927    0.5199468127904249    
  0.5916184935699424    0.6364068963599626    0.6526695535743039    0.6469435513314    0.628518670658971    
  0.6054389810083635    0.5833435539947666    0.5657809109914211    0.5547060847136746    0.5509487582922512    
  0.5547060847136746    0.5657809109914211    0.5833435539947667    0.6054389810083635    0.628518670658971    
  0.6469435513313999    0.652669553574304    0.6364068963599626    0.5916184935699424    0.519946812790425    
  0.4332550607621394    0.3489843687546946    0.28214383723693465    0.24070401050377424    0.22684931275086953    
  0.34020346695704634    0.35351495425762064    0.392047387683309    0.45078112103926704    0.519946812790425    
  0.5862407792390513    0.6372703330459947    0.666431441384229    0.6743718419655412    0.6664881289111064    
  0.6493294448431262    0.6285160530329146    0.608347054760043    0.5919658623281034    0.5814329427876324    
  0.5778184223246033    0.5814329427876324    0.5919658623281034    0.608347054760043    0.6285160530329146    
  0.6493294448431262    0.6664881289111063    0.6743718419655413    0.666431441384229    0.6372703330459947    
  0.5862407792390514    0.5199468127904251    0.45078112103926704    0.392047387683309    0.3535149542576207    
  0.34020346695704634    0.4546022108092008    0.46550077646772436    0.496299828846766    0.5413049376805835    
  0.5916184935699423    0.6372703330459945    0.6704635814369659    0.6879169185515255    0.690712240849761    
  0.682279343353507    0.6664851495150569    0.6469380109618788    0.6270733789246409    0.6101380010256245    
  0.5988210276865538    0.5948529702948971    0.5988210276865538    0.6101380010256245    0.6270733789246409    
  0.6469380109618788    0.6664851495150569    0.6822793433535069    0.6907122408497611    0.6879169185515255    
  0.6704635814369659    0.6372703330459945    0.5916184935699424    0.5413049376805835    0.496299828846766    
  0.4655007764677245    0.4546022108092008    0.5420755167751851    0.5498583247379852    0.5715662086197137    
  0.6025882088288174    0.6364068963599627    0.6664314413842292    0.6879169185515257    0.6988522776620771    
  0.6993970232934177    0.690709047255201    0.6743657712491032    0.6526611058895508    0.6290173953979271    
  0.6077150640911896    0.5929282847125585    0.5876415734455009    0.5929282847125587    0.6077150640911896    
  0.6290173953979271    0.652661105889551    0.6743657712491032    0.6907090472552008    0.6993970232934178    
  0.6988522776620771    0.6879169185515257    0.6664314413842292    0.6364068963599627    0.6025882088288174    
  0.5715662086197137    0.5498583247379852    0.5420755167751851    0.587653868056915    0.5929403688739734    
  0.6077264851521672    0.6290276261660277    0.6526695535743039    0.6743718419655412    0.6907122408497611    
  0.6993970232934177    0.6988490143711773    0.6879105970925968    0.6664225225362687    0.636396014254792    
  0.6025760349197118    0.5715533136634705    0.549845103650077    0.54206220754421    0.549845103650077    
  0.5715533136634705    0.6025760349197118    0.636396014254792    0.6664225225362688    0.6879105970925968    
  0.6988490143711774    0.6993970232934177    0.6907122408497611    0.6743718419655412    0.652669553574304    
  0.6290276261660277    0.6077264851521673    0.5929403688739734    0.587653868056915    0.5948630760833251    
  0.598830857071252    0.6101469893879554    0.627080938713884    0.6469435513314    0.6664881289111064    
  0.682279343353507    0.6907090472552009    0.6879105970925969    0.6704545216814057    0.6372592128308727    
  0.591606132225444    0.5412920784410676    0.4962869565904705    0.4654880596893241    0.4545895754392444    
  0.465488059689324    0.4962869565904705    0.5412920784410676    0.591606132225444    0.6372592128308727    
  0.6704545216814056    0.687910597092597    0.6907090472552009    0.682279343353507    0.6664881289111064    
  0.6469435513314001    0.627080938713884    0.6101469893879554    0.598830857071252    0.5948630760833251    
  0.5778258835807696    0.5814401006946283    0.591972107658929    0.6083517786783782    0.628518670658971    
  0.6493294448431262    0.6664851495150569    0.674365771249103    0.6664225225362685    0.6372592128308727    
  0.5862284127754427    0.5199342033444312    0.45076900995552194    0.3920360701670311    0.35350429698651964    
  0.3401930601390466    0.3535042969865196    0.3920360701670311    0.45076900995552194    0.5199342033444312    
  0.5862284127754427    0.6372592128308726    0.6664225225362688    0.674365771249103    0.6664851495150569    
  0.6493294448431262    0.6285186706589712    0.6083517786783782    0.591972107658929    0.5814401006946283    
  0.5778258835807696    0.5509536811242798    0.5547106958684443    0.5657845877494015    0.5833456821007744    
  0.6054389810083634    0.6285160530329145    0.6469380109618788    0.6526611058895508    0.6363960142547918    
  0.591606132225444    0.5199342033444313    0.4332433058534612    0.34897407349992154    0.28213500486516124    
  0.2406961980723907    0.22684185923513453    0.2406961980723907    0.28213500486516124    0.34897407349992154    
  0.4332433058534612    0.5199342033444313    0.591606132225444    0.6363960142547919    0.6526611058895508    
  0.6469380109618788    0.6285160530329145    0.6054389810083635    0.5833456821007743    0.5657845877494017    
  0.5547106958684443    0.5509536811242798    0.5241267806876534    0.5281698525864382    0.5401314205735154    
  0.5592171484455842    0.5833435539947667    0.6083470547600429    0.6270733789246409    0.6290173953979271    
  0.6025760349197117    0.5412920784410675    0.45076900995552194    0.34897407349992143    0.2573264970046503    
  0.19005665597522217    0.15105444410470178    0.13852694143026203    0.1510544441047017    0.19005665597522217    
  0.2573264970046503    0.34897407349992143    0.45076900995552194    0.5412920784410674    0.6025760349197118    
  0.6290173953979271    0.6270733789246409    0.6083470547600429    0.5833435539947668    0.5592171484455842    
  0.5401314205735154    0.5281698525864381    0.5241267806876534    0.5027657641183843    0.5070667173243979    
  0.5197990721307231    0.5401298665457274    0.5657809109914211    0.5919658623281036    0.6101380010256248    
  0.6077150640911896    0.5715533136634706    0.4962869565904704    0.3920360701670313    0.28213500486516135    
  0.19005665597522217    0.12745181813088804    0.093594369357221    0.08317997098793513    0.09359436935722096    
  0.127451818130888    0.19005665597522217    0.2821350048651613    0.3920360701670313    0.4962869565904704    
  0.5715533136634707    0.6077150640911896    0.6101380010256248    0.5919658623281036    0.5657809109914212    
  0.5401298665457274    0.5197990721307232    0.5070667173243979    0.5027657641183843    0.48937280297596064    
  0.4938411082638505    0.5070657772733137    0.5281673592365566    0.5547060847136743    0.5814329427876322    
  0.598821027686554    0.5929282847125584    0.5498451036500769    0.4654880596893237    0.35350429698651953    
  0.24069619807239062    0.1510544441047017    0.09359436935722082    0.06421593366272889    0.05550149489203174    
  0.06421593366272889    0.09359436935722082    0.1510544441047017    0.24069619807239062    0.3535042969865196    
  0.46548805968932383    0.549845103650077    0.5929282847125584    0.598821027686554    0.5814329427876322    
  0.5547060847136746    0.5281673592365566    0.5070657772733137    0.4938411082638505    0.48937280297596064    
  0.4848468866913052    0.48937248902565494    0.502764510149152    0.5241239737390939    0.5509487582922513    
  0.5778184223246035    0.5948529702948973    0.5876415734455009    0.54206220754421    0.4545895754392446    
  0.34019306013904654    0.22684185923513459    0.13852694143026237    0.08317997098793521    0.055501494892031975    
  0.04741104378067181    0.055501494892031926    0.08317997098793521    0.13852694143026237    0.2268418592351346    
  0.3401930601390465    0.4545895754392445    0.5420622075442101    0.5876415734455009    0.5948529702948973    
  0.5778184223246033    0.5509487582922513    0.5241239737390939    0.5027645101491521    0.48937248902565494    
  0.4848468866913052    0.48937280297596075    0.4938411082638505    0.5070657772733137    0.5281673592365568    
  0.5547060847136743    0.5814329427876324    0.598821027686554    0.5929282847125584    0.549845103650077    
  0.46548805968932383    0.35350429698651964    0.24069619807239062    0.15105444410470178    0.09359436935722092    
  0.06421593366272889    0.05550149489203179    0.06421593366272879    0.09359436935722092    0.1510544441047017    
  0.24069619807239065    0.3535042969865197    0.46548805968932383    0.5498451036500771    0.5929282847125584    
  0.598821027686554    0.5814329427876322    0.5547060847136746    0.5281673592365568    0.5070657772733137    
  0.4938411082638505    0.48937280297596075    0.5027657641183843    0.5070667173243979    0.5197990721307232    
  0.5401298665457276    0.5657809109914212    0.5919658623281036    0.6101380010256247    0.6077150640911896    
  0.5715533136634706    0.4962869565904706    0.3920360701670313    0.28213500486516135    0.19005665597522234    
  0.12745181813088804    0.09359436935722092    0.08317997098793499    0.09359436935722086    0.12745181813088804    
  0.19005665597522234    0.28213500486516135    0.3920360701670313    0.4962869565904705    0.5715533136634707    
  0.6077150640911896    0.6101380010256247    0.5919658623281036    0.5657809109914214    0.5401298665457276    
  0.5197990721307232    0.5070667173243979    0.5027657641183843    0.5241267806876534    0.5281698525864382    
  0.5401314205735154    0.5592171484455842    0.5833435539947667    0.6083470547600429    0.6270733789246409    
  0.6290173953979271    0.6025760349197117    0.5412920784410675    0.45076900995552194    0.34897407349992143    
  0.2573264970046503    0.19005665597522217    0.15105444410470178    0.13852694143026203    0.1510544441047017    
  0.19005665597522217    0.2573264970046503    0.34897407349992143    0.45076900995552194    0.5412920784410674    
  0.6025760349197118    0.6290173953979271    0.6270733789246409    0.6083470547600429    0.5833435539947668    
  0.5592171484455842    0.5401314205735154    0.5281698525864381    0.5241267806876534    0.5509536811242797    
  0.5547106958684443    0.5657845877494014    0.5833456821007745    0.6054389810083634    0.6285160530329145    
  0.6469380109618789    0.6526611058895508    0.6363960142547918    0.591606132225444    0.5199342033444313    
  0.4332433058534612    0.34897407349992154    0.28213500486516124    0.24069619807239062    0.22684185923513459    
  0.2406961980723905    0.2821350048651612    0.34897407349992154    0.4332433058534612    0.5199342033444313    
  0.591606132225444    0.636396014254792    0.6526611058895508    0.6469380109618789    0.6285160530329145    
  0.6054389810083635    0.5833456821007745    0.5657845877494015    0.5547106958684443    0.5509536811242797    
  0.5778258835807696    0.5814401006946281    0.591972107658929    0.6083517786783783    0.628518670658971    
  0.6493294448431262    0.6664851495150568    0.6743657712491031    0.6664225225362685    0.6372592128308727    
  0.5862284127754426    0.5199342033444313    0.4507690099555218    0.3920360701670311    0.3535042969865196    
  0.34019306013904643    0.3535042969865196    0.3920360701670311    0.4507690099555218    0.5199342033444313    
  0.5862284127754427    0.6372592128308725    0.6664225225362688    0.6743657712491031    0.6664851495150568    
  0.6493294448431262    0.628518670658971    0.6083517786783782    0.591972107658929    0.5814401006946281    
  0.5778258835807696    0.5948630760833252    0.598830857071252    0.6101469893879553    0.627080938713884    
  0.6469435513314    0.6664881289111063    0.682279343353507    0.6907090472552008    0.6879105970925969    
  0.6704545216814057    0.6372592128308727    0.591606132225444    0.5412920784410676    0.4962869565904705    
  0.465488059689324    0.4545895754392445    0.46548805968932394    0.4962869565904705    0.5412920784410676    
  0.591606132225444    0.6372592128308727    0.6704545216814056    0.687910597092597    0.6907090472552008    
  0.682279343353507    0.6664881289111063    0.6469435513314001    0.627080938713884    0.6101469893879554    
  0.598830857071252    0.5948630760833252    0.5876538680569152    0.5929403688739733    0.6077264851521674    
  0.6290276261660276    0.6526695535743039    0.6743718419655413    0.6907122408497612    0.6993970232934177    
  0.6988490143711774    0.6879105970925968    0.6664225225362687    0.6363960142547918    0.6025760349197117    
  0.5715533136634706    0.5498451036500771    0.54206220754421    0.5498451036500771    0.5715533136634706    
  0.6025760349197117    0.6363960142547918    0.6664225225362687    0.6879105970925968    0.6988490143711775    
  0.6993970232934177    0.6907122408497612    0.6743718419655413    0.652669553574304    0.6290276261660277    
  0.6077264851521674    0.5929403688739733    0.5876538680569152    0.5420755167751852    0.5498583247379853    
  0.5715662086197136    0.6025882088288174    0.6364068963599627    0.666431441384229    0.6879169185515257    
  0.6988522776620771    0.6993970232934176    0.690709047255201    0.6743657712491032    0.6526611058895511    
  0.6290173953979273    0.6077150640911896    0.5929282847125585    0.5876415734455008    0.5929282847125585    
  0.6077150640911896    0.6290173953979273    0.652661105889551    0.6743657712491032    0.6907090472552009    
  0.6993970232934177    0.6988522776620771    0.6879169185515257    0.666431441384229    0.6364068963599628    
  0.6025882088288174    0.5715662086197137    0.5498583247379855    0.5420755167751852    0.4546022108092008    
  0.46550077646772436    0.496299828846766    0.5413049376805835    0.5916184935699423    0.6372703330459945    
  0.6704635814369659    0.6879169185515255    0.690712240849761    0.682279343353507    0.6664851495150569    
  0.6469380109618788    0.6270733789246409    0.6101380010256245    0.5988210276865538    0.5948529702948971    
  0.5988210276865538    0.6101380010256245    0.6270733789246409    0.6469380109618788    0.6664851495150569    
  0.6822793433535069    0.6907122408497611    0.6879169185515255    0.6704635814369659    0.6372703330459945    
  0.5916184935699424    0.5413049376805835    0.496299828846766    0.4655007764677245    0.4546022108092008    
  0.34020346695704623    0.3535149542576207    0.3920473876833091    0.45078112103926704    0.5199468127904251    
  0.5862407792390514    0.6372703330459947    0.6664314413842292    0.6743718419655413    0.6664881289111064    
  0.6493294448431262    0.6285160530329144    0.6083470547600429    0.5919658623281034    0.5814329427876324    
  0.5778184223246033    0.5814329427876324    0.5919658623281034    0.6083470547600429    0.6285160530329145    
  0.6493294448431262    0.6664881289111062    0.6743718419655415    0.666431441384229    0.6372703330459947    
  0.5862407792390514    0.5199468127904251    0.45078112103926704    0.39204738768330905    0.3535149542576207    
  0.34020346695704623    0.22684931275086953    0.2407040105037743    0.2821438372369347    0.3489843687546946    
  0.43325506076213915    0.5199468127904249    0.5916184935699424    0.6364068963599626    0.6526695535743039    
  0.6469435513314    0.628518670658971    0.6054389810083635    0.5833435539947667    0.565780910991421    
  0.5547060847136746    0.5509487582922512    0.5547060847136746    0.565780910991421    0.5833435539947667    
  0.6054389810083635    0.628518670658971    0.6469435513313999    0.652669553574304    0.6364068963599626    
  0.5916184935699424    0.5199468127904249    0.43325506076213927    0.3489843687546946    0.28214383723693465    
  0.2407040105037743    0.22684931275086953    0.13853171673032336    0.15105960178044625    0.19006296232520176    
  0.25733463377372473    0.34898436875469463    0.45078112103926704    0.5413049376805836    0.6025882088288173    
  0.6290276261660277    0.6270809387138839    0.6083517786783783    0.5833456821007745    0.5592171484455843    
  0.5401298665457275    0.5281673592365567    0.5241239737390938    0.5281673592365568    0.5401298665457275    
  0.5592171484455843    0.5833456821007745    0.6083517786783783    0.6270809387138838    0.6290276261660278    
  0.6025882088288173    0.5413049376805836    0.45078112103926704    0.34898436875469474    0.25733463377372473    
  0.1900629623252017    0.1510596017804463    0.13853171673032336    0.08318291174836535    0.09359765832829518    
  0.12745620868336735    0.19006296232520156    0.2821438372369346    0.3920473876833088    0.496299828846766    
  0.5715662086197135    0.6077264851521671    0.6101469893879553    0.591972107658929    0.5657845877494015    
  0.5401314205735154    0.5197990721307231    0.5070657772733137    0.5027645101491519    0.5070657772733137    
  0.5197990721307231    0.5401314205735154    0.5657845877494015    0.591972107658929    0.6101469893879553    
  0.6077264851521672    0.5715662086197136    0.496299828846766    0.3920473876833088    0.2821438372369347    
  0.19006296232520156    0.1274562086833673    0.09359765832829518    0.08318291174836535    0.05550347294607749    
  0.06421821663874826    0.09359765832829532    0.15105960178044636    0.24070401050377438    0.35351495425762064    
  0.4655007764677245    0.5498583247379852    0.5929403688739733    0.5988308570712522    0.5814401006946283    
  0.5547106958684443    0.5281698525864381    0.5070667173243979    0.49384110826385064    0.48937248902565483    
  0.49384110826385075    0.5070667173243979    0.5281698525864381    0.5547106958684443    0.5814401006946283    
  0.5988308570712519    0.5929403688739734    0.5498583247379852    0.4655007764677245    0.35351495425762064    
  0.2407040105037745    0.1510596017804464    0.09359765832829528    0.0642182166387483    0.05550347294607749    
  0.047412734941079025    0.055503472946077305    0.08318291174836535    0.13853171673032336    0.22684931275086953    
  0.34020346695704623    0.4546022108092008    0.5420755167751851    0.587653868056915    0.5948630760833251    
  0.5778258835807697    0.5509536811242798    0.5241267806876535    0.5027657641183843    0.4893728029759605    
  0.4848468866913051    0.48937280297596064    0.5027657641183843    0.5241267806876535    0.5509536811242798    
  0.5778258835807696    0.594863076083325    0.5876538680569151    0.5420755167751851    0.4546022108092008    
  0.34020346695704623    0.22684931275086961    0.13853171673032336    0.08318291174836526    0.05550347294607735    
  0.047412734941079025    0.055503472946077395    0.06421821663874826    0.09359765832829528    0.1510596017804464    
  0.24070401050377438    0.35351495425762064    0.4655007764677245    0.5498583247379852    0.5929403688739733    
  0.5988308570712522    0.5814401006946283    0.5547106958684445    0.5281698525864382    0.5070667173243981    
  0.4938411082638505    0.48937248902565494    0.4938411082638505    0.5070667173243981    0.5281698525864382    
  0.5547106958684445    0.5814401006946283    0.598830857071252    0.5929403688739734    0.5498583247379852    
  0.4655007764677245    0.35351495425762064    0.2407040105037745    0.1510596017804464    0.09359765832829522    
  0.0642182166387483    0.055503472946077395    0.06421821663874834    0.07353268907355788    0.10451947904685405    
  0.1639060190869648    0.25462165095126504    0.3666637271812759    0.47612748746362965    0.557376977593919    
  0.5980222126908249    0.602647791590219    0.5849352311667705    0.5583670011201256    0.5321271474093398    
  0.5112958938874822    0.4982481791734063    0.4938407933758391    0.49824817917340636    0.5112958938874823    
  0.5321271474093398    0.5583670011201256    0.5849352311667705    0.6026477915902189    0.598022212690825    
  0.557376977593919    0.47612748746362965    0.3666637271812759    0.2546216509512651    0.16390601908696487    
  0.10451947904685399    0.07353268907355788    0.06421821663874834    0.09359765832829532    0.10451947904685395    
  0.139667854003138    0.20362113804364992    0.29605472865411003    0.4046044441459463    0.5060919889413786    
  0.5783173273777485    0.6122278884963204    0.6135394253892735    0.5951317462535793    0.5691560088822487    
  0.5438445715629262    0.5238220055281866    0.5112949512212419    0.5070654597658686    0.5112949512212419    
  0.5238220055281866    0.5438445715629262    0.5691560088822487    0.5951317462535793    0.6135394253892734    
  0.6122278884963205    0.5783173273777485    0.5060919889413786    0.4046044441459464    0.29605472865411014    
  0.20362113804364998    0.13966785400313794    0.10451947904685395    0.09359765832829532    0.1510596017804465    
  0.1639060190869648    0.20362113804365    0.2713271185653702    0.36234308424081163    0.46210661221842664    
  0.5496991421579132    0.6081622178841743    0.6326756247954309    0.6298581637926828    0.6110243056338577    
  0.5863003585096301    0.5625692796571677    0.5438430139071349    0.5321246475476547    0.5281670380046498    
  0.5321246475476547    0.5438430139071349    0.5625692796571677    0.5863003585096301    0.6110243056338577    
  0.6298581637926826    0.6326756247954309    0.6081622178841743    0.5496991421579132    0.46210661221842664    
  0.36234308424081174    0.2713271185653702    0.20362113804364998    0.16390601908696487    0.1510596017804465    
  0.24070401050377438    0.2546216509512648    0.29605472865411014    0.36234308424081163    0.4450924188852243    
  0.5293234751364148    0.5981821763355448    0.6405826327764219    0.6553558072495567    0.6490423445671751    
  0.6306558270189396    0.6079351765604291    0.5862982265110489    0.5691523239161661    0.5583623781075315    
  0.5547057597303188    0.5583623781075315    0.5691523239161661    0.5862982265110489    0.6079351765604291    
  0.6306558270189396    0.649042344567175    0.6553558072495567    0.6405826327764219    0.5981821763355448    
  0.5293234751364148    0.4450924188852244    0.36234308424081163    0.29605472865411014    0.2546216509512648    
  0.24070401050377438    0.3535149542576207    0.36666372718127577    0.40460444414594643    0.4621066122184265    
  0.5293234751364148    0.5932032183787342    0.6418775972706301    0.6692461461813782    0.676178709063909    
  0.6679938897514764    0.6510192650449939    0.6306532051302508    0.6110195720385049    0.5951254849093673    
  0.5849280519359835    0.5814326160285657    0.5849280519359835    0.5951254849093673    0.6110195720385048    
  0.6306532051302508    0.6510192650449939    0.6679938897514763    0.6761787090639091    0.6692461461813782    
  0.6418775972706301    0.5932032183787344    0.529323475136415    0.4621066122184265    0.40460444414594643    
  0.3666637271812759    0.3535149542576207    0.4655007764677245    0.47612748746362943    0.5060919889413786    
  0.5496991421579132    0.5981821763355448    0.6418775972706299    0.6733688388030251    0.6896524793889399    
  0.6918890462256    0.6834275906487407    0.6679909047702846    0.6490367911710758    0.6298505807923634    
  0.613530402609079    0.6026379189020434    0.5988207045881874    0.6026379189020434    0.613530402609079    
  0.6298505807923634    0.6490367911710758    0.6679909047702846    0.6834275906487406    0.6918890462256001    
  0.6896524793889399    0.6733688388030251    0.6418775972706299    0.5981821763355448    0.5496991421579132    
  0.5060919889413786    0.47612748746362954    0.4655007764677245    0.5498583247379852    0.557376977593919    
  0.5783173273777487    0.6081622178841746    0.6405826327764219    0.6692461461813783    0.6896524793889401    
  0.6999406421028405    0.7003099360921552    0.6918858452791626    0.676172620083125    0.6553473247261126    
  0.6326653381380972    0.6122163903085321    0.598010035598423    0.5929279754955683    0.598010035598423    
  0.6122163903085321    0.6326653381380972    0.6553473247261126    0.676172620083125    0.6918858452791623    
  0.7003099360921553    0.6999406421028405    0.6896524793889401    0.6692461461813783    0.640582632776422    
  0.6081622178841746    0.5783173273777487    0.557376977593919    0.5498583247379852    0.5929403688739733    
  0.5980222126908249    0.6122278884963205    0.6326756247954308    0.6553558072495567    0.6761787090639091    
  0.6918890462256001    0.7003099360921552    0.6999373706371841    0.6896461355611612    0.6692371807839744    
  0.6405716697242476    0.6081499232284645    0.5783042747691587    0.5573635730929098    0.5498448229082178    
  0.5573635730929098    0.5783042747691588    0.6081499232284645    0.6405716697242476    0.6692371807839744    
  0.6896461355611611    0.6999373706371842    0.7003099360921552    0.6918890462256001    0.676178709063909    
  0.6553558072495567    0.6326756247954308    0.6122278884963205    0.5980222126908249    0.5929403688739733    
  0.5988308570712523    0.602647791590219    0.6135394253892738    0.6298581637926828    0.6490423445671751    
  0.6679938897514764    0.6834275906487408    0.6918858452791625    0.6896461355611613    0.6733597275503556    
  0.6418663790850581    0.5981696570657276    0.5496860624028755    0.5060788435965707    0.47611446380813266    
  0.46548782274369593    0.47611446380813266    0.5060788435965707    0.5496860624028755    0.5981696570657276    
  0.6418663790850581    0.6733597275503554    0.6896461355611614    0.6918858452791624    0.6834275906487408    
  0.6679938897514764    0.6490423445671751    0.6298581637926828    0.6135394253892738    0.602647791590219    
  0.5988308570712523    0.5814401006946283    0.5849352311667705    0.5951317462535795    0.6110243056338577    
  0.6306558270189396    0.6510192650449937    0.6679909047702846    0.6761726200831248    0.6692371807839743    
  0.6418663790850581    0.5931906795480826    0.5293106077782284    0.462094165044304    0.40459273395548484    
  0.36665264584059915    0.35350411371911844    0.36665264584059903    0.40459273395548484    0.462094165044304    