#     DFTpy    
  CRYSTAL 
    
  PRIMVEC    
  4.62610344827586    0.0    0.0    
  0.0    4.62610344827586    0.0    
  0.0    0.0    4.62610344827586    
  PRIMCOORD    
  4    1    
  Si    0.0    0.0    0.0    
  Si    0.0    2.3130517241379307    2.3130517241379307    
  Si    2.3130517241379307    0.0    2.3130517241379307    
  Si    2.3130517241379307    2.3130517241379307    0.0    
  BEGIN_BLOCK_DATAGRID_3D    
  3d_datagrid_density    
  BEGIN_DATAGRID_3D#0    
  46    46    46    
  0.0    0.0    0.0    
  4.6261034655313145    0.0    0.0    
  0.0    4.6261034655313145    0.0    
  0.0    0.0    4.6261034655313145    
  0.0599819851998773    0.0681721511690119    0.09503207353610574    0.1446275587616304    0.21488259184024935    
  0.29036154751504967    0.346554267885955    0.3656181482668428    0.347488106224279    0.30570433323233204    
  0.2558074307778157    0.2081590223098785    0.16741785431268133    0.13468563388818658    0.10936883132314297    
  0.09025095258540994    0.07606260253912353    0.0657169505405915    0.05832958766827722    0.05318340276436814    
  0.04972838281942131    0.04759392078670598    0.04657106968208037    0.04657106968208037    0.04759392078670594    
  0.04972838281942136    0.05318340276436817    0.05832958766827722    0.06571695054059154    0.0760626025391235    
  0.09025095258540991    0.10936883132314287    0.1346856338881865    0.16741785431268133    0.2081590223098785    
  0.25580743077781565    0.30570433323233204    0.347488106224279    0.36561814826684275    0.34655426788595495    
  0.29036154751504967    0.21488259184024935    0.14462755876163036    0.09503207353610574    0.06817215116901193    
  0.0599819851998773    0.06817215116901189    0.07677856997357736    0.10461302482588813    0.1548938546527375    
  0.2244241772471152    0.2972943243295133    0.34982003352049346    0.36565511515401006    0.3456689452451818    
  0.30334762509720586    0.25368006156490996    0.20653488307797618    0.16631046405387348    0.13401391423377892    
  0.10903330102392475    0.09016351862288535    0.07615604042753191    0.06594351294865566    0.058655229550474086    
  0.05358251705355247    0.05018033686624345    0.04808062097824647    0.04707517579868101    0.04707517579868101    
  0.04808062097824647    0.0501803368662435    0.05358251705355247    0.058655229550474086    0.0659435129486557    
  0.0761560404275319    0.09016351862288538    0.10903330102392472    0.1340139142337789    0.16631046405387348    
  0.20653488307797618    0.2536800615649099    0.30334762509720586    0.34566894524518177    0.36565511515401    
  0.3498200335204934    0.2972943243295133    0.2244241772471152    0.1548938546527375    0.1046130248258881    
  0.07677856997357735    0.06817215116901189    0.09503207353610564    0.1046130248258881    0.13451929763799572    
  0.18553257196599462    0.25159294632521084    0.31602155048374186    0.3578107234821689    0.36469508242812354    
  0.3398133042553115    0.29625685724427564    0.24741040296165928    0.20178874048315185    0.1630917474440422    
  0.13207653852798273    0.10808572979184626    0.08994957102261851    0.07648019558537829    0.0666658832523384    
  0.059674846075380004    0.054822630258344114    0.05157883850589273    0.049583112201805536    0.048629698538464425    
  0.048629698538464425    0.049583112201805536    0.05157883850589278    0.054822630258344135    0.059674846075380004    
  0.06666588325233841    0.07648019558537823    0.08994957102261851    0.10808572979184619    0.1320765385279827    
  0.16309174744404217    0.20178874048315185    0.24741040296165925    0.29625685724427564    0.3398133042553114    
  0.36469508242812354    0.35781072348216886    0.316021550483742    0.25159294632521073    0.18553257196599468    
  0.13451929763799575    0.10461302482588809    0.09503207353610564    0.14462755876163033    0.1548938546527375    
  0.18553257196599468    0.23395686049355224    0.29098762796808875    0.34033781963988236    0.36563499466451516    
  0.3600420884616012    0.3290163203587115    0.2844713290916376    0.23734906963560667    0.19428850576044987    
  0.15806052199201015    0.1290995420130613    0.10669986941276399    0.08975406196389453    0.07716921582228037    
  0.06801744985582797    0.061524769433168286    0.05704329615892256    0.05406570925604172    0.052244422097964434    
  0.05137812313577793    0.05137812313577793    0.052244422097964455    0.05406570925604175    0.05704329615892256    
  0.061524769433168286    0.0680174498558281    0.07716921582228031    0.0897540619638945    0.10669986941276395    
  0.12909954201306129    0.15806052199201015    0.19428850576044987    0.2373490696356066    0.2844713290916376    
  0.3290163203587115    0.36004208846160113    0.3656349946645152    0.34033781963988236    0.29098762796808875    
  0.23395686049355227    0.18553257196599468    0.1548938546527375    0.14462755876163033    0.21488259184024935    
  0.22442417724711514    0.2515929463252109    0.29098762796808875    0.33198010257793736    0.36084839372685806    
  0.36704165002350964    0.348747020535488    0.3125691984522905    0.2683218847334914    0.2241109648350491    
  0.18461587920880693    0.15168326105634125    0.12544136750888912    0.10515997505025361    0.08982341585070634    
  0.07845933197321878    0.07023993444593155    0.06445834189983789    0.060509964969600184    0.05791624062453887    
  0.056346370963698066    0.055605415251789726    0.055605415251789726    0.05634637096369804    0.05791624062453887    
  0.06050996496960021    0.06445834189983789    0.07023993444593157    0.07845933197321873    0.08982341585070633    
  0.10515997505025355    0.1254413675088891    0.15168326105634125    0.18461587920880693    0.22411096483504905    
  0.2683218847334914    0.3125691984522905    0.34874702053548795    0.36704165002350964    0.36084839372685806    
  0.33198010257793736    0.2909876279680888    0.25159294632521084    0.22442417724711525    0.21488259184024935    
  0.29036154751504967    0.29729432432951336    0.316021550483742    0.3403378196398824    0.36084839372685806    
  0.36813823737538354    0.3571148639326964    0.32921348335412104    0.29064834899182457    0.24862316713017812    
  0.20858056022442828    0.1735287857698716    0.144561273546325    0.1215758567641053    0.1038592054696195    
  0.09051508735115685    0.08070500700858808    0.07370330867541    0.06886873016976812    0.06563981874982677    
  0.06356814728395958    0.062341163744227615    0.061771129508322024    0.061771129508322024    0.062341163744227615    
  0.06356814728395961    0.06563981874982676    0.06886873016976812    0.07370330867541003    0.08070500700858804    
  0.09051508735115686    0.10385920546961946    0.12157585676410528    0.144561273546325    0.17352878576987157    
  0.20858056022442822    0.24862316713017812    0.29064834899182457    0.32921348335412104    0.3571148639326964    
  0.36813823737538354    0.36084839372685806    0.3403378196398824    0.316021550483742    0.2972943243295134    
  0.29036154751504967    0.346554267885955    0.3498200335204934    0.35781072348216886    0.36563499466451527    
  0.36704165002350964    0.35711486393269637    0.3345802867774808    0.3021094661275038    0.26455236696738427    
  0.22667642873191407    0.19186107782398037    0.16190973357349725    0.13739102912677115    0.118067195029615    
  0.10328668274025037    0.09229131289841673    0.08437447699166517    0.07890077657230614    0.07528333842262637    
  0.07299672038013993    0.07161813846872174    0.07084992844469654    0.07050927649360565    0.07050927649360567    
  0.07084992844469654    0.07161813846872167    0.0729967203801399    0.07528333842262637    0.07890077657230621    
  0.08437447699166513    0.09229131289841672    0.10328668274025031    0.11806719502961499    0.13739102912677112    
  0.16190973357349725    0.19186107782398032    0.22667642873191407    0.26455236696738427    0.3021094661275037    
  0.3345802867774808    0.3571148639326964    0.36704165002350964    0.36563499466451527    0.35781072348216886    
  0.34982003352049346    0.346554267885955    0.36561814826684275    0.36565511515401    0.3646950824281235    
  0.3600420884616011    0.3487470205354879    0.32921348335412104    0.3021094661275037    0.2700403902501583    
  0.2363664674416188    0.2040609813179736    0.17515277974287471    0.15068452907888374    0.13090346551533308    
  0.11552232506633285    0.10398709234241653    0.09568108500668865    0.0900123517974393    0.0864130397164803    
  0.08433178149375621    0.08326447944014313    0.0828009449765053    0.0826466692710932    0.08261513617580378    
  0.08261513617580374    0.0826466692710932    0.0828009449765053    0.08326447944014309    0.08433178149375621    
  0.08641303971648039    0.09001235179743927    0.09568108500668863    0.10398709234241647    0.11552232506633281    
  0.13090346551533305    0.15068452907888374    0.17515277974287471    0.2040609813179736    0.2363664674416188    
  0.2700403902501583    0.3021094661275037    0.32921348335412115    0.3487470205354879    0.36004208846160113    
  0.3646950824281235    0.36565511515401    0.36561814826684275    0.347488106224279    0.34566894524518177    
  0.33981330425531153    0.3290163203587115    0.3125691984522904    0.2906483489918245    0.26455236696738427    
  0.23636646744161885    0.2083338959733504    0.182324407449205    0.15958215980212156    0.14070866626813938    
  0.1257793261224137    0.11452329726934074    0.10650319784781036    0.10123096633993138    0.09820080637636515    
  0.09688263375393372    0.0967342644254908    0.09724782469054587    0.09800000413965065    0.09867537878887943    
  0.09906555339801114    0.09906555339801114    0.09867537878887944    0.09800000413965065    0.09724782469054583    
  0.09673426442549078    0.09688263375393377    0.09820080637636515    0.10123096633993137    0.10650319784781033    
  0.1145232972693407    0.12577932612241366    0.14070866626813938    0.1595821598021215    0.182324407449205    
  0.2083338959733504    0.23636646744161885    0.26455236696738427    0.29064834899182457    0.3125691984522904    
  0.3290163203587115    0.33981330425531153    0.3456689452451818    0.347488106224279    0.30570433323233204    
  0.3033476250972058    0.29625685724427564    0.2844713290916376    0.2683218847334914    0.24862316713017812    
  0.22667642873191407    0.20406098131797362    0.18232440744920497    0.1627147487592634    0.1460383977319087    
  0.13265403488876326    0.12256769199938135    0.11556814698455249    0.11133536091369597    0.10948415158767806    
  0.10955931309489682    0.11103194396612161    0.11333168393139652    0.11590705114603472    0.11828079356333797    
  0.12007962624888414    0.12104568458205586    0.12104568458205586    0.12007962624888414    0.118280793563338    
  0.11590705114603471    0.11333168393139652    0.11103194396612164    0.10955931309489682    0.10948415158767803    
  0.11133536091369593    0.11556814698455244    0.12256769199938132    0.13265403488876323    0.14603839773190866    
  0.1627147487592634    0.18232440744920497    0.2040609813179736    0.22667642873191407    0.24862316713017818    
  0.2683218847334914    0.2844713290916376    0.29625685724427564    0.3033476250972058    0.30570433323233204    
  0.2558074307778157    0.2536800615649099    0.24741040296165934    0.23734906963560667    0.22411096483504905    
  0.20858056022442822    0.19186107782398043    0.17515277974287477    0.15958215980212154    0.14603839773190866    
  0.13508087238241065    0.12694893060675447    0.12164871516048036    0.1190505698107651    0.11893680159048373    
  0.12098962408016196    0.1247607671054545    0.12967410763517487    0.13507801957602414    0.14032238608555386    
  0.14482450025140547    0.14811039298827539    0.14984213531833934    0.14984213531833934    0.14811039298827536    
  0.14482450025140547    0.14032238608555386    0.1350780195760241    0.1296741076351749    0.12476076710545447    
  0.12098962408016196    0.11893680159048368    0.11905056981076508    0.12164871516048034    0.12694893060675444    
  0.13508087238241062    0.14603839773190866    0.15958215980212156    0.17515277974287474    0.1918610778239804    
  0.20858056022442822    0.22411096483504903    0.23734906963560667    0.24741040296165934    0.2536800615649099    
  0.2558074307778157    0.20815902230987854    0.20653488307797624    0.20178874048315193    0.19428850576044984    
  0.18461587920880687    0.17352878576987163    0.16190973357349725    0.15068452907888377    0.14070866626813935    
  0.1326540348887632    0.1269489306067544    0.12379825621858222    0.12325466259180984    0.12527535968685077    
  0.12971765838799137    0.13628428872736306    0.14447595357597173    0.15360371904939535    0.16286606579668766    
  0.1714509863962712    0.1786207434037285    0.1837679551129605    0.18645641680250155    0.18645641680250158    
  0.1837679551129605    0.1786207434037285    0.17145098639627118    0.16286606579668766    0.15360371904939538    
  0.1444759535759717    0.13628428872736306    0.12971765838799137    0.12527535968685075    0.12325466259180982    
  0.12379825621858222    0.12694893060675438    0.1326540348887632    0.14070866626813935    0.15068452907888377    
  0.16190973357349725    0.17352878576987163    0.18461587920880687    0.19428850576044993    0.20178874048315187    
  0.20653488307797624    0.20815902230987854    0.16741785431268136    0.16631046405387348    0.16309174744404215    
  0.15806052199201012    0.15168326105634122    0.144561273546325    0.13739102912677115    0.13090346551533308    
  0.12577932612241366    0.12256769199938129    0.12164871516048031    0.12325466259180984    0.12751495518662004    
  0.1344671320358112    0.1440038197430228    0.1557848411909396    0.16918207842092473    0.18330924637171087    
  0.1971335336829427    0.20961846664247707    0.21984368150187947    0.22707942366094439    0.23082452708570955    
  0.23082452708570955    0.22707942366094444    0.21984368150187947    0.20961846664247702    0.1971335336829427    
  0.18330924637171092    0.16918207842092473    0.1557848411909396    0.1440038197430228    0.1344671320358112    
  0.12751495518662    0.12325466259180982    0.12164871516048031    0.12256769199938132    0.12577932612241366    
  0.1309034655153331    0.13739102912677115    0.144561273546325    0.15168326105634122    0.15806052199201012    
  0.16309174744404215    0.16631046405387345    0.16741785431268136    0.13468563388818658    0.1340139142337789    
  0.13207653852798273    0.12909954201306129    0.12544136750888915    0.12157585676410528    0.11806719502961499    
  0.1155223250663329    0.11452329726934071    0.11556814698455246    0.11905056981076508    0.12527535968685077    
  0.13446713203581115    0.1467256687359469    0.16192289627110326    0.17958992067294044    0.19886428966047132    
  0.21854589154175222    0.23726250073242464    0.25369514052979    0.2667794284596982    0.2758053253277134    
  0.28039263611179427    0.28039263611179427    0.2758053253277134    0.2667794284596982    0.25369514052979    
  0.23726250073242464    0.21854589154175222    0.1988642896604713    0.17958992067294044    0.1619228962711033    
  0.14672566873594686    0.13446713203581112    0.12527535968685077    0.11905056981076503    0.11556814698455246    
  0.11452329726934071    0.1155223250663329    0.11806719502961499    0.12157585676410528    0.12544136750888915    
  0.1290995420130613    0.13207653852798273    0.1340139142337789    0.13468563388818658    0.1093688313231429    
  0.10903330102392468    0.10808572979184625    0.10669986941276392    0.10515997505025362    0.10385920546961948    
  0.10328668274025031    0.10398709234241649    0.10650319784781032    0.11133536091369588    0.11893680159048371    
  0.1297176583879914    0.1440038197430228    0.1619228962711033    0.1832467884266096    0.20725500614612502    
  0.23268245741105592    0.2578112662103983    0.28075195807921516    0.2998727204446996    0.31418769219808634    
  0.32346209600656556    0.3279515996201079    0.3279515996201079    0.32346209600656556    0.31418769219808634    
  0.29987272044469954    0.28075195807921516    0.2578112662103983    0.23268245741105587    0.20725500614612502    
  0.1832467884266096    0.1619228962711033    0.14400381974302273    0.12971765838799143    0.11893680159048368    
  0.11133536091369588    0.10650319784781032    0.10398709234241649    0.10328668274025031    0.10385920546961948    
  0.10515997505025365    0.10669986941276395    0.10808572979184625    0.10903330102392468    0.1093688313231429    
  0.0902509525854099    0.09016351862288537    0.08994957102261857    0.0897540619638945    0.08982341585070636    
  0.09051508735115683    0.09229131289841676    0.09568108500668868    0.10123096633993134    0.10948415158767807    
  0.12098962408016199    0.13628428872736306    0.1557848411909396    0.17958992067294047    0.20725500614612502    
  0.23760578316960995    0.2686595187829616    0.297797919383075    0.32235150748878644    0.3404962856307953    
  0.3519544671463374    0.3579378872852716    0.3602789679973324    0.3602789679973324    0.3579378872852716    
  0.3519544671463374    0.3404962856307953    0.32235150748878644    0.297797919383075    0.2686595187829616    
  0.2376057831696099    0.20725500614612496    0.17958992067294047    0.15578484119093955    0.13628428872736306    
  0.12098962408016196    0.10948415158767806    0.10123096633993132    0.09568108500668868    0.09229131289841674    
  0.09051508735115685    0.08982341585070634    0.08975406196389453    0.08994957102261857    0.09016351862288531    
  0.0902509525854099    0.0760626025391236    0.07615604042753193    0.07648019558537826    0.07716921582228031    
  0.07845933197321873    0.08070500700858815    0.08437447699166523    0.0900123517974393    0.09820080637636512    
  0.10955931309489685    0.12476076710545447    0.14447595357597176    0.16918207842092475    0.19886428966047126    
  0.23268245741105592    0.2686595187829617    0.3035462382565598    0.333249128053508    0.3541309421710991    
  0.3647419210178498    0.3667565134848881    0.364225664860507    0.3615717886250263    0.3615717886250263    
  0.364225664860507    0.36675651348488814    0.36474192101784975    0.3541309421710991    0.33324912805350804    
  0.30354623825655974    0.2686595187829616    0.23268245741105592    0.1988642896604713    0.16918207842092473    
  0.1444759535759718    0.12476076710545443    0.10955931309489682    0.09820080637636512    0.09001235179743934    
  0.08437447699166523    0.08070500700858813    0.07845933197321875    0.07716921582228031    0.07648019558537826    
  0.07615604042753184    0.0760626025391236    0.06571695054059161    0.06594351294865573    0.06666588325233853    
  0.06801744985582804    0.07023993444593159    0.07370330867541004    0.07890077657230621    0.08641303971648043    
  0.09688263375393374    0.11103194396612168    0.12967410763517492    0.1536037190493954    0.18330924637171095    
  0.21854589154175222    0.2578112662103983    0.297797919383075    0.33324912805350804    0.35806051028253694    
  0.3679287423414179    0.3631161220987823    0.3489552904300737    0.33341866265439385    0.3236549369275323    
  0.32365493692753233    0.3334186626543939    0.34895529043007373    0.3631161220987823    0.3679287423414179    
  0.35806051028253694    0.333249128053508    0.297797919383075    0.2578112662103983    0.21854589154175222    
  0.18330924637171092    0.15360371904939543    0.12967410763517492    0.11103194396612168    0.09688263375393373    
  0.08641303971648046    0.07890077657230621    0.07370330867541    0.07023993444593159    0.06801744985582807    
  0.06666588325233853    0.0659435129486557    0.06571695054059161    0.0583295876682772    0.05865522955047406    
  0.059674846075380004    0.061524769433168265    0.06445834189983793    0.06886873016976812    0.07528333842262633    
  0.0843317814937562    0.09673426442549078    0.11333168393139652    0.13507801957602414    0.16286606579668772    
  0.19713353368294276    0.23726250073242455    0.28075195807921516    0.3223515074887864    0.3541309421710991    
  0.3679287423414179    0.35995646280881266    0.3341928052273277    0.30101674205470186    0.27202873170507397    
  0.25558570462487834    0.25558570462487834    0.27202873170507397    0.30101674205470186    0.3341928052273277    
  0.35995646280881266    0.3679287423414179    0.3541309421710991    0.3223515074887863    0.28075195807921516    
  0.23726250073242458    0.1971335336829427    0.16286606579668772    0.13507801957602408    0.11333168393139652    
  0.09673426442549078    0.08433178149375624    0.0752833384226263    0.06886873016976812    0.06445834189983786    
  0.061524769433168355    0.059674846075380004    0.05865522955047401    0.0583295876682772    0.05318340276436824    
  0.05358251705355252    0.054822630258344184    0.05704329615892256    0.060509964969600184    0.0656398187498268    
  0.07299672038014    0.08326447944014315    0.09724782469054584    0.1159070511460348    0.14032238608555392    
  0.17145098639627124    0.20961846664247716    0.25369514052979    0.2998727204446995    0.3404962856307953    
  0.36474192101784975    0.36311612209878225    0.33419280522732764    0.2874739076142684    0.23846373095817727    
  0.2004301626533063    0.1803395662214434    0.1803395662214434    0.20043016265330632    0.23846373095817727    
  0.2874739076142684    0.33419280522732764    0.3631161220987823    0.3647419210178497    0.3404962856307953    
  0.2998727204446995    0.25369514052979    0.2096184666424771    0.17145098639627124    0.1403223860855539    
  0.1159070511460348    0.09724782469054585    0.0832644794401432    0.07299672038013998    0.0656398187498268    
  0.06050996496960021    0.057043296158922584    0.054822630258344135    0.05358251705355247    0.05318340276436824    
  0.04972838281942138    0.05018033686624343    0.05157883850589278    0.0540657092560417    0.057916240624538894    
  0.06356814728395971    0.07161813846872177    0.08280094497650536    0.09800000413965065    0.11828079356333797    
  0.14482450025140545    0.17862074340372858    0.21984368150187947    0.2667794284596982    0.31418769219808634    
  0.35195446714633744    0.36675651348488814    0.3489552904300737    0.3010167420547018    0.23846373095817727    
  0.18050486151017503    0.139593033421491    0.11935248846054163    0.11935248846054163    0.13959303342149104    
  0.18050486151017503    0.23846373095817727    0.3010167420547018    0.3489552904300736    0.3667565134848881    
  0.3519544671463373    0.3141876921980863    0.26677942845969815    0.21984368150187947    0.17862074340372858    
  0.14482450025140542    0.11828079356333797    0.09800000413965065    0.08280094497650536    0.07161813846872177    
  0.06356814728395965    0.057916240624538894    0.0540657092560417    0.05157883850589282    0.05018033686624338    
  0.04972838281942138    0.04759392078670598    0.04808062097824633    0.049583112201805515    0.05224442209796441    
  0.056346370963698086    0.062341163744227615    0.07084992844469656    0.08264666927109318    0.09867537878887947    
  0.12007962624888412    0.1481103929882754    0.18376795511296057    0.22707942366094447    0.2758053253277134    
  0.32346209600656556    0.3579378872852716    0.36422566486050695    0.33341866265439396    0.2720287317050739    
  0.20043016265330635    0.13959303342149107    0.09980515488711825    0.08121764969307682    0.08121764969307682    
  0.09980515488711822    0.13959303342149101    0.20043016265330635    0.2720287317050739    0.3334186626543939    
  0.36422566486050695    0.3579378872852715    0.32346209600656545    0.2758053253277134    0.22707942366094444    
  0.1837679551129605    0.14811039298827536    0.12007962624888412    0.09867537878887947    0.0826466692710932    
  0.07084992844469652    0.062341163744227615    0.056346370963698086    0.052244422097964455    0.04958311220180547    
  0.04808062097824633    0.04759392078670598    0.04657106968208037    0.047075175798681056    0.048629698538464446    
  0.05137812313577788    0.05560541525178975    0.06177112950832205    0.07050927649360565    0.08261513617580382    
  0.09906555339801121    0.12104568458205586    0.14984213531833931    0.18645641680250163    0.23082452708570955    
  0.28039263611179427    0.327951599620108    0.3602789679973324    0.3615717886250263    0.32365493692753244    
  0.2555857046248783    0.18033956622144354    0.1193524884605416    0.08121764969307678    0.06402293846269709    
  0.06402293846269709    0.08121764969307678    0.11935248846054157    0.18033956622144348    0.2555857046248783    
  0.32365493692753244    0.3615717886250263    0.3602789679973324    0.3279515996201079    0.28039263611179427    
  0.23082452708570955    0.18645641680250158    0.1498421353183393    0.12104568458205583    0.09906555339801121    
  0.08261513617580385    0.07050927649360562    0.061771129508322004    0.05560541525178977    0.05137812313577793    
  0.048629698538464425    0.04707517579868096    0.04657106968208037    0.04657106968208037    0.047075175798680986    
  0.048629698538464404    0.05137812313577788    0.05560541525178977    0.061771129508322024    0.07050927649360567    
  0.08261513617580374    0.09906555339801117    0.12104568458205586    0.14984213531833931    0.18645641680250163    
  0.23082452708570955    0.2803926361117944    0.32795159962010795    0.36027896799733244    0.3615717886250263    
  0.32365493692753244    0.2555857046248783    0.18033956622144354    0.11935248846054167    0.08121764969307672    
  0.06402293846269709    0.0640229384626971    0.08121764969307682    0.11935248846054163    0.1803395662214435    
  0.2555857046248783    0.3236549369275325    0.3615717886250263    0.3602789679973324    0.3279515996201079    
  0.28039263611179427    0.2308245270857095    0.18645641680250158    0.14984213531833926    0.12104568458205586    
  0.09906555339801114    0.08261513617580382    0.07050927649360562    0.06177112950832198    0.055605415251789796    
  0.05137812313577795    0.048629698538464425    0.04707517579868094    0.04657106968208037    0.04759392078670596    
  0.04808062097824642    0.049583112201805515    0.052244422097964434    0.056346370963698086    0.062341163744227615    
  0.0708499284446965    0.08264666927109315    0.09867537878887947    0.12007962624888412    0.1481103929882754    
  0.18376795511296054    0.22707942366094447    0.2758053253277134    0.32346209600656556    0.3579378872852716    
  0.36422566486050695    0.33341866265439396    0.27202873170507397    0.20043016265330635    0.1395930334214911    
  0.09980515488711818    0.08121764969307682    0.08121764969307682    0.09980515488711818    0.13959303342149107    
  0.20043016265330635    0.27202873170507397    0.33341866265439385    0.36422566486050695    0.3579378872852715    
  0.32346209600656545    0.2758053253277134    0.22707942366094439    0.1837679551129605    0.14811039298827536    
  0.12007962624888412    0.09867537878887943    0.0826466692710932    0.0708499284446965    0.062341163744227615    
  0.056346370963698114    0.052244422097964455    0.04958311220180549    0.04808062097824635    0.04759392078670596    
  0.04972838281942136    0.05018033686624348    0.05157883850589285    0.05406570925604175    0.057916240624538894    
  0.06356814728395971    0.07161813846872174    0.08280094497650536    0.09800000413965063    0.118280793563338    
  0.14482450025140547    0.17862074340372858    0.21984368150187947    0.26677942845969815    0.31418769219808634    
  0.35195446714633744    0.36675651348488814    0.3489552904300736    0.3010167420547018    0.23846373095817727    
  0.18050486151017503    0.13959303342149096    0.11935248846054163    0.1193524884605416    0.139593033421491    
  0.180504861510175    0.23846373095817727    0.3010167420547018    0.3489552904300736    0.3667565134848881    
  0.3519544671463374    0.3141876921980863    0.26677942845969815    0.21984368150187944    0.17862074340372855    
  0.1448245002514054    0.11828079356333797    0.09800000413965063    0.08280094497650536    0.07161813846872171    
  0.06356814728395963    0.057916240624538894    0.05406570925604177    0.05157883850589282    0.05018033686624343    
  0.04972838281942136    0.05318340276436826    0.05358251705355252    0.054822630258344184    0.05704329615892256    
  0.060509964969600184    0.06563981874982683    0.07299672038014002    0.0832644794401431    0.09724782469054583    
  0.11590705114603475    0.1403223860855539    0.17145098639627124    0.20961846664247713    0.25369514052979    
  0.2998727204446995    0.3404962856307953    0.36474192101784975    0.36311612209878225    0.3341928052273277    
  0.28747390761426833    0.23846373095817727    0.2004301626533063    0.18033956622144343    0.1803395662214434    
  0.20043016265330624    0.23846373095817727    0.28747390761426833    0.3341928052273277    0.3631161220987823    
  0.36474192101784964    0.3404962856307953    0.2998727204446995    0.2536951405297899    0.20961846664247707    
  0.1714509863962712    0.14032238608555386    0.11590705114603475    0.09724782469054584    0.08326447944014312    
  0.07299672038014002    0.06563981874982676    0.06050996496960021    0.05704329615892261    0.05482263025834416    
  0.05358251705355252    0.05318340276436826    0.0583295876682772    0.05865522955047406    0.059674846075380004    
  0.061524769433168265    0.06445834189983793    0.06886873016976812    0.07528333842262633    0.0843317814937562    
  0.09673426442549078    0.11333168393139652    0.13507801957602414    0.16286606579668772    0.19713353368294276    