#     DFTpy    
  CRYSTAL 
    
  PRIMVEC    
  3.710275862068971    0.0    0.0    
  0.0    3.710275862068971    0.0    
  0.0    0.0    3.710275862068971    
  PRIMCOORD    
  4    1    
  Si    0.0    0.0    0.0    
  Si    0.0    1.8551379310344802    1.8551379310344802    
  Si    1.8551379310344802    0.0    1.8551379310344802    
  Si    1.8551379310344802    1.8551379310344802    0.0    
  BEGIN_BLOCK_DATAGRID_3D    
  3d_datagrid_density    
  BEGIN_DATAGRID_3D#0    
  37    37    37    
  0.0    0.0    0.0    
  3.710275875908371    0.0    0.0    
  0.0    3.710275875908371    0.0    
  0.0    0.0    3.710275875908371    
  0.05404701600916422    0.06207222799608631    0.08877805481716369    0.13934893484979416    0.21348121274829548    
  0.29719068456899506    0.36574393368569535    0.3991787953431747    0.39474563960212083    0.36421392708414346    
  0.3226740357842693    0.2809162621919001    0.24435631734436244    0.21483155333661538    0.19230079152044122    
  0.1759273921455264    0.16479617824749054    0.15829467589000565    0.1561495633036396    0.15829467589000565    
  0.16479617824749054    0.1759273921455263    0.19230079152044122    0.21483155333661538    0.24435631734436244    
  0.2809162621919001    0.3226740357842693    0.3642139270841435    0.39474563960212083    0.3991787953431747    
  0.36574393368569535    0.29719068456899506    0.21348121274829548    0.13934893484979421    0.08877805481716369    
  0.06207222799608631    0.05404701600916422    0.06207222799608629    0.07057063042035853    0.09844160072416701    
  0.1500460984190068    0.22391122850741502    0.30543547357607453    0.37057185563455547    0.4008383550617932    
  0.39451774888642666    0.36342909469064977    0.32214982723248914    0.2809626461579174    0.24499542010093062    
  0.21597320449135413    0.19382945131945212    0.17773592649982678    0.16679398018363087    0.16040312496777284    
  0.15829465539528742    0.16040312496777284    0.16679398018363087    0.1777359264998267    0.19382945131945212    
  0.2159732044913541    0.24499542010093062    0.2809626461579174    0.32214982723248914    0.36342909469064977    
  0.39451774888642666    0.40083835506179327    0.37057185563455547    0.3054354735760746    0.22391122850741502    
  0.15004609841900687    0.09844160072416701    0.07057063042035851    0.06207222799608629    0.0887780548171637    
  0.09844160072416697    0.1289960219532409    0.18238881324243308    0.25409944044233435    0.32834229766970174    
  0.3833870236215563    0.4048231019200947    0.39348789661318107    0.3610904544248334    0.3207087076466072    
  0.28123205439587934    0.2470136473770122    0.21947579413965615    0.19848147101480718    0.18322441354738842    
  0.1728511641496147    0.16679391786186284    0.16479609539816148    0.16679391786186284    0.1728511641496147    
  0.18322441354738833    0.19848147101480718    0.21947579413965615    0.2470136473770122    0.2812320543958793    
  0.3207087076466072    0.3610904544248334    0.39348789661318107    0.4048231019200947    0.3833870236215563    
  0.32834229766970174    0.25409944044233435    0.18238881324243317    0.1289960219532409    0.09844160072416697    
  0.0887780548171637    0.13934893484979416    0.1500460984190068    0.18238881324243317    0.23486996410408495    
  0.29946850132809977    0.3601816908308622    0.3994897170769517    0.40848892980401125    0.3907665050061109    
  0.3572433440838039    0.31869351351806924    0.2820758843127487    0.2507041133861043    0.22558979187774827    
  0.2064933546203324    0.19263543323997553    0.18322430747462476    0.1777357577641341    0.17592720271750484    
  0.1777357577641341    0.18322430747462476    0.19263543323997545    0.2064933546203324    0.22558979187774827    
  0.2507041133861044    0.2820758843127487    0.31869351351806924    0.3572433440838039    0.3907665050061109    
  0.40848892980401125    0.3994897170769517    0.36018169083086227    0.29946850132809977    0.23486996410408506    
  0.18238881324243317    0.1500460984190068    0.13934893484979416    0.21348121274829554    0.2239112285074151    
  0.25409944044233435    0.2994685013280998    0.3500080832825903    0.39164955137131646    0.412385666524209    
  0.40854410510745987    0.3853444670734552    0.3519967493305648    0.31656948780516453    0.28399932232690783    
  0.25654340203039944    0.23478061175325732    0.21834981168437498    0.20649320265999083    0.19848121174682834    
  0.1938291282160415    0.19230044727509907    0.1938291282160415    0.19848121174682834    0.20649320265999072    
  0.21834981168437498    0.23478061175325737    0.25654340203039944    0.28399932232690783    0.31656948780516453    
  0.3519967493305648    0.3853444670734552    0.40854410510745987    0.412385666524209    0.39164955137131646    
  0.3500080832825903    0.2994685013280999    0.25409944044233435    0.22391122850741516    0.21348121274829554    
  0.29719068456899506    0.30543547357607453    0.32834229766970174    0.36018169083086216    0.3916495513713164    
  0.4125308991900111    0.4161848159440185    0.4024797676072141    0.3766686969038704    0.34564716952953006    
  0.3149052859935627    0.28763406415216186    0.26518316369328004    0.24772921961120598    0.23478041223899387    
  0.22558943747040872    0.21947532887639776    0.21597267278505258    0.21483099955376353    0.21597267278505258    
  0.2194753288763977    0.22558943747040863    0.23478041223899387    0.24772921961120598    0.26518316369328004    
  0.2876340641521618    0.3149052859935627    0.34564716952953006    0.3766686969038704    0.4024797676072141    
  0.4161848159440185    0.4125308991900111    0.3916495513713164    0.3601816908308622    0.32834229766970174    
  0.30543547357607453    0.29719068456899506    0.36574393368569535    0.37057185563455547    0.38338702362155636    
  0.39948971707695163    0.41238566652420894    0.4161848159440186    0.4081714086269509    0.38974851778608016    
  0.36509759466457764    0.3388410375752777    0.3144219456543682    0.29372031720202174    0.2773680775359705    
  0.2651829171967925    0.25654295077637423    0.2507034998281215    0.24701291601514475    0.24499461748770696    
  0.2443554909390539    0.24499461748770696    0.24701291601514475    0.2507034998281214    0.25654295077637423    
  0.2651829171967925    0.2773680775359705    0.29372031720202174    0.3144219456543682    0.3388410375752777    
  0.36509759466457764    0.3897485177860801    0.4081714086269509    0.4161848159440186    0.41238566652420894    
  0.39948971707695174    0.38338702362155636    0.37057185563455547    0.36574393368569535    0.3991787953431747    
  0.4008383550617932    0.40482310192009474    0.40848892980401136    0.4085441051074598    0.4024797676072141    
  0.38974851778608016    0.3719498815272038    0.3519476563667456    0.33261672361483496    0.31598479963077253    
  0.3030010750991091    0.2937200289785097    0.2876335219546981    0.28399856355104025    0.28207495044657377    
  0.28123099150726516    0.280961504224014    0.2809150936397939    0.280961504224014    0.28123099150726516    
  0.28207495044657366    0.28399856355104025    0.2876335219546981    0.2937200289785097    0.3030010750991091    
  0.31598479963077253    0.33261672361483496    0.3519476563667456    0.37194988152720376    0.38974851778608016    
  0.4024797676072141    0.4085441051074598    0.4084889298040114    0.40482310192009474    0.4008383550617932    
  0.3991787953431747    0.3947456396021209    0.3945177488864267    0.3934878966131811    0.390766505006111    
  0.3853444670734552    0.37666869690387056    0.36509759466457764    0.3519476563667456    0.33907015977051486    
  0.3281997568677469    0.3204236112048032    0.3159844802488356    0.31442132902066916    0.3149044000612666    
  0.3165683674096731    0.31869220079196525    0.32070725137803074    0.32214828189650996    0.322672460187024    
  0.32214828189650996    0.32070725137803074    0.3186922007919652    0.3165683674096731    0.3149044000612666    
  0.31442132902066916    0.3159844802488355    0.3204236112048032    0.3281997568677469    0.33907015977051486    
  0.3519476563667456    0.36509759466457764    0.3766686969038705    0.3853444670734552    0.3907665050061111    
  0.3934878966131811    0.3945177488864267    0.3947456396021209    0.3642139270841435    0.36342909469064977    
  0.3610904544248334    0.35724334408380387    0.3519967493305648    0.3456471695295302    0.3388410375752776    
  0.33261672361483496    0.3281997568677468    0.3265971752291428    0.3281994208486159    0.33261605835181707    
  0.338840057735794    0.34564589978862564    0.3519952257375212    0.35724161279571254    0.36108856885158064    
  0.3634271136053595    0.3642119135509397    0.3634271136053595    0.36108856885158064    0.3572416127957124    
  0.3519952257375212    0.34564589978862564    0.338840057735794    0.33261605835181707    0.3281994208486159    
  0.3265971752291428    0.3281997568677468    0.33261672361483496    0.3388410375752776    0.3456471695295301    
  0.3519967493305648    0.35724334408380404    0.3610904544248334    0.36342909469064977    0.3642139270841435    
  0.3226740357842693    0.3221498272324892    0.3207087076466072    0.3186935135180693    0.3165694878051645    
  0.3149052859935629    0.3144219456543682    0.3159847996307726    0.32042361120480317    0.3281994208486159    
  0.3390694775997335    0.3519466267855818    0.365096229187774    0.3766670238943274    0.38534253210753916    
  0.3907643652108674    0.39348561247206126    0.394515379348872    0.3947432417859447    0.394515379348872    
  0.39348561247206126    0.39076436521086727    0.38534253210753916    0.3766670238943274    0.365096229187774    
  0.35194662678558186    0.3390694775997335    0.3281994208486159    0.32042361120480317    0.31598479963077253    
  0.3144219456543682    0.3149052859935628    0.3165694878051645    0.31869351351806935    0.3207087076466072    
  0.3221498272324892    0.3226740357842693    0.28091626219190013    0.28096264615791744    0.28123205439587934    
  0.2820758843127486    0.28399932232690783    0.2876340641521618    0.29372031720202185    0.30300107509910906    
  0.3159844802488354    0.33261605835181707    0.3519466267855818    0.37194848318911905    0.38974676838469763    
  0.40247771260399595    0.4085418135388356    0.4084864787847371    0.4048205586441989    0.4008357675337099    
  0.39917619512481484    0.4008357675337099    0.4048205586441989    0.40848647878473704    0.4085418135388356    
  0.40247771260399595    0.38974676838469763    0.37194848318911905    0.3519466267855818    0.33261605835181707    
  0.3159844802488354    0.3030010750991091    0.29372031720202185    0.2876340641521618    0.28399932232690783    
  0.28207588431274877    0.28123205439587934    0.28096264615791744    0.28091626219190013    0.24435631734436244    
  0.24499542010093067    0.24701364737701215    0.25070411338610427    0.2565434020303993    0.26518316369328    
  0.2773680775359704    0.2937200289785097    0.31442132902066916    0.338840057735794    0.365096229187774    
  0.3897467683846976    0.40816931475953644    0.41618245900115214    0.41238315378947393    0.3994871495242972    
  0.38338446651789126    0.3705693284733836    0.36574142077448096    0.3705693284733836    0.38338446651789126    
  0.39948714952429715    0.41238315378947393    0.4161824590011521    0.40816931475953644    0.3897467683846976    
  0.365096229187774    0.338840057735794    0.31442132902066916    0.2937200289785097    0.2773680775359704    
  0.26518316369327993    0.2565434020303993    0.2507041133861043    0.24701364737701215    0.24499542010093067    
  0.24435631734436244    0.21483155333661544    0.21597320449135413    0.21947579413965615    0.22558979187774827    
  0.2347806117532573    0.24772921961120603    0.2651829171967925    0.2876335219546981    0.31490440006126647    
  0.34564589978862564    0.3766670238943273    0.40247771260399595    0.416182459001152    0.4125283746157119    
  0.39164701020452036    0.3601792484553784    0.32833999928008795    0.30543329333928615    0.29718854907727277    
  0.30543329333928615    0.32833999928008795    0.36017924845537835    0.39164701020452036    0.4125283746157119    
  0.416182459001152    0.40247771260399595    0.3766670238943273    0.34564589978862564    0.31490440006126647    
  0.2876335219546981    0.2651829171967925    0.24772921961120603    0.2347806117532573    0.22558979187774836    
  0.21947579413965615    0.21597320449135413    0.21483155333661544    0.19230079152044136    0.19382945131945226    
  0.19848147101480726    0.2064933546203324    0.21834981168437506    0.23478041223899385    0.25654295077637435    
  0.28399856355104036    0.3165683674096731    0.3519952257375213    0.38534253210753927    0.4085418135388357    
  0.41238315378947393    0.3916470102045204    0.35000569778140195    0.2994663791110935    0.25409758664612925    
  0.22390956555459265    0.21347961781277475    0.22390956555459265    0.25409758664612925    0.29946637911109336    
  0.35000569778140195    0.3916470102045204    0.41238315378947393    0.4085418135388357    0.38534253210753927    
  0.3519952257375213    0.3165683674096731    0.28399856355104036    0.2565429507763743    0.23478041223899385    
  0.21834981168437506    0.2064933546203324    0.19848147101480726    0.19382945131945226    0.19230079152044136    
  0.17592739214552636    0.17773592649982675    0.1832244135473883    0.1926354332399754    0.2064932026599907    
  0.2255894374704087    0.2507034998281214    0.2820749504465737    0.31869220079196503    0.3572416127957124    
  0.3907643652108672    0.408486478784737    0.39948714952429715    0.36017924845537835    0.29946637911109336    
  0.2348682387516948    0.18238743919715597    0.15004495359523418    0.13934786819179756    0.1500449535952342    
  0.18238743919715597    0.23486823875169469    0.29946637911109336    0.36017924845537835    0.39948714952429715    
  0.408486478784737    0.3907643652108672    0.3572416127957124    0.31869220079196503    0.2820749504465737    
  0.2507034998281214    0.22558943747040872    0.2064932026599907    0.1926354332399755    0.1832244135473883    
  0.17773592649982675    0.17592739214552636    0.1647961782474906    0.16679398018363092    0.1728511641496147    
  0.18322430747462473    0.19848121174682826    0.2194753288763978    0.2470129160151447    0.28123099150726516    
  0.32070725137803074    0.3610885688515807    0.39348561247206126    0.404820558644199    0.3833844665178913    
  0.32833999928008795    0.2540975866461292    0.18238743919715608    0.1289950352013719    0.0984408498644571    
  0.08877738125716328    0.09844084986445711    0.1289950352013719    0.182387439197156    0.2540975866461292    
  0.328339999280088    0.3833844665178913    0.404820558644199    0.39348561247206126    0.3610885688515807    
  0.32070725137803074    0.28123099150726516    0.2470129160151447    0.21947532887639784    0.19848121174682826    
  0.18322430747462484    0.1728511641496147    0.16679398018363092    0.1647961782474906    0.15829467589000568    
  0.1604031249677729    0.16679391786186284    0.17773575776413406    0.19382912821604142    0.2159726727850526    
  0.24499461748770698    0.2809615042240141    0.32214828189650996    0.3634271136053595    0.394515379348872    
  0.4008357675337099    0.37056932847338353    0.30543329333928615    0.22390956555459257    0.15004495359523434    
  0.09844084986445703    0.07057010763931079    0.06207177761089005    0.07057010763931079    0.09844084986445703    
  0.15004495359523426    0.22390956555459263    0.3054332933392861    0.3705693284733835    0.40083576753371    
  0.394515379348872    0.3634271136053595    0.32214828189650996    0.28096150422401417    0.24499461748770698    
  0.2159726727850526    0.19382912821604142    0.17773575776413417    0.16679391786186284    0.16040312496777293    
  0.15829467589000568    0.15614956330363958    0.15829465539528748    0.16479609539816148    0.17592720271750475    
  0.19230044727509893    0.21483099955376345    0.2443554909390539    0.2809150936397939    0.32267246018702395    
  0.3642119135509398    0.39474324178594467    0.39917619512481484    0.3657414207744809    0.2971885490772729    
  0.2134796178127747    0.13934786819179767    0.08877738125716327    0.06207177761089012    0.05404663556108577    
  0.0620717776108901    0.08877738125716327    0.13934786819179756    0.2134796178127747    0.2971885490772729    
  0.3657414207744809    0.3991761951248149    0.39474324178594467    0.36421191355093974    0.32267246018702395    
  0.2809150936397939    0.2443554909390539    0.21483099955376345    0.19230044727509893    0.17592720271750487    
  0.16479609539816148    0.15829465539528748    0.15614956330363958    0.1582946758900057    0.16040312496777295    
  0.16679391786186284    0.1777357577641341    0.1938291282160414    0.2159726727850526    0.24499461748770704    
  0.2809615042240141    0.32214828189650996    0.3634271136053595    0.39451537934887204    0.4008357675337099    
  0.37056932847338353    0.3054332933392862    0.22390956555459252    0.1500449535952343    0.09844084986445706    
  0.07057010763931076    0.06207177761089001    0.07057010763931076    0.09844084986445706    0.15004495359523423    
  0.22390956555459252    0.30543329333928615    0.3705693284733835    0.4008357675337099    0.39451537934887204    
  0.3634271136053595    0.32214828189650996    0.2809615042240141    0.24499461748770698    0.2159726727850526    
  0.1938291282160414    0.1777357577641342    0.16679391786186284    0.16040312496777295    0.1582946758900057    
  0.1647961782474906    0.16679398018363092    0.1728511641496147    0.18322430747462476    0.19848121174682826    
  0.2194753288763978    0.2470129160151447    0.28123099150726516    0.32070725137803074    0.3610885688515807    
  0.39348561247206126    0.404820558644199    0.3833844665178913    0.328339999280088    0.2540975866461292    
  0.18238743919715608    0.1289950352013719    0.0984408498644571    0.08877738125716328    0.09844084986445711    
  0.1289950352013719    0.182387439197156    0.2540975866461292    0.328339999280088    0.3833844665178913    
  0.404820558644199    0.39348561247206126    0.3610885688515807    0.32070725137803074    0.28123099150726516    
  0.2470129160151447    0.21947532887639784    0.19848121174682826    0.18322430747462484    0.1728511641496147    
  0.16679398018363092    0.1647961782474906    0.1759273921455263    0.17773592649982672    0.1832244135473883    
  0.1926354332399754    0.20649320265999066    0.22558943747040872    0.2507034998281215    0.28207495044657366    
  0.31869220079196503    0.3572416127957124    0.3907643652108672    0.408486478784737    0.3994871495242971    
  0.36017924845537835    0.29946637911109336    0.23486823875169474    0.182387439197156    0.15004495359523423    
  0.13934786819179756    0.15004495359523423    0.18238743919715597    0.23486823875169466    0.29946637911109336    
  0.36017924845537835    0.3994871495242971    0.40848647878473704    0.3907643652108672    0.3572416127957124    
  0.31869220079196503    0.2820749504465736    0.25070349982812146    0.22558943747040872    0.20649320265999066    
  0.19263543323997548    0.1832244135473883    0.17773592649982672    0.1759273921455263    0.19230079152044136    
  0.19382945131945226    0.19848147101480726    0.2064933546203324    0.21834981168437506    0.23478041223899385    
  0.2565429507763743    0.28399856355104036    0.3165683674096731    0.3519952257375213    0.38534253210753927    
  0.4085418135388357    0.41238315378947393    0.3916470102045204    0.35000569778140195    0.2994663791110934    
  0.25409758664612925    0.22390956555459265    0.21347961781277475    0.22390956555459265    0.25409758664612925    
  0.29946637911109336    0.35000569778140195    0.3916470102045204    0.4123831537894739    0.4085418135388357    
  0.38534253210753927    0.3519952257375213    0.3165683674096731    0.28399856355104036    0.25654295077637435    
  0.23478041223899385    0.21834981168437506    0.20649335462033241    0.19848147101480726    0.19382945131945226    
  0.19230079152044136    0.21483155333661536    0.2159732044913541    0.21947579413965615    0.22558979187774822    
  0.2347806117532573    0.24772921961120606    0.26518291719679243    0.2876335219546981    0.31490440006126647    
  0.3456458997886257    0.37666702389432727    0.40247771260399595    0.4161824590011521    0.41252837461571185    
  0.3916470102045204    0.36017924845537835    0.32833999928008795    0.3054332933392862    0.2971885490772728    
  0.30543329333928615    0.32833999928008795    0.36017924845537824    0.3916470102045204    0.41252837461571185    
  0.4161824590011521    0.40247771260399595    0.37666702389432727    0.3456458997886257    0.31490440006126647    
  0.2876335219546981    0.26518291719679243    0.24772921961120606    0.2347806117532573    0.22558979187774836    
  0.21947579413965615    0.2159732044913541    0.21483155333661536    0.24435631734436244    0.24499542010093067    
  0.24701364737701215    0.2507041133861042    0.2565434020303993    0.26518316369327993    0.2773680775359704    
  0.2937200289785097    0.31442132902066916    0.338840057735794    0.365096229187774    0.3897467683846976    
  0.40816931475953644    0.41618245900115214    0.41238315378947393    0.3994871495242972    0.38338446651789126    
  0.3705693284733836    0.36574142077448096    0.3705693284733836    0.38338446651789126    0.39948714952429715    
  0.41238315378947393    0.4161824590011521    0.40816931475953644    0.3897467683846976    0.365096229187774    
  0.338840057735794    0.31442132902066916    0.2937200289785097    0.2773680775359704    0.26518316369327993    
  0.2565434020303993    0.2507041133861043    0.24701364737701215    0.24499542010093067    0.24435631734436244    
  0.28091626219190013    0.28096264615791744    0.28123205439587934    0.2820758843127487    0.2839993223269077    
  0.2876340641521618    0.29372031720202185    0.3030010750991091    0.31598448024883546    0.3326160583518171    
  0.3519466267855818    0.37194848318911905    0.3897467683846977    0.40247771260399595    0.4085418135388356    
  0.4084864787847371    0.40482055864419897    0.4008357675337099    0.39917619512481484    0.4008357675337099    
  0.40482055864419897    0.40848647878473704    0.4085418135388356    0.40247771260399595    0.38974676838469763    
  0.37194848318911905    0.3519466267855818    0.3326160583518171    0.31598448024883546    0.3030010750991091    
  0.2937203172020219    0.2876340641521618    0.2839993223269077    0.2820758843127488    0.28123205439587934    
  0.28096264615791744    0.28091626219190013    0.3226740357842693    0.3221498272324892    0.3207087076466072    
  0.3186935135180693    0.3165694878051645    0.3149052859935629    0.3144219456543682    0.3159847996307726    
  0.32042361120480317    0.3281994208486159    0.3390694775997335    0.3519466267855818    0.365096229187774    
  0.3766670238943274    0.38534253210753916    0.3907643652108674    0.39348561247206126    0.394515379348872    
  0.3947432417859447    0.394515379348872    0.39348561247206126    0.39076436521086727    0.38534253210753916    
  0.3766670238943274    0.365096229187774    0.35194662678558186    0.3390694775997335    0.3281994208486159    
  0.32042361120480317    0.31598479963077253    0.3144219456543682    0.3149052859935628    0.3165694878051645    
  0.31869351351806935    0.3207087076466072    0.3221498272324892    0.3226740357842693    0.36421392708414346    
  0.36342909469064977    0.3610904544248334    0.35724334408380387    0.3519967493305648    0.3456471695295301    
  0.3388410375752776    0.33261672361483496    0.3281997568677468    0.3265971752291428    0.3281994208486159    
  0.33261605835181707    0.338840057735794    0.34564589978862564    0.3519952257375212    0.35724161279571254    
  0.36108856885158064    0.3634271136053595    0.36421191355093974    0.3634271136053595    0.36108856885158064    
  0.3572416127957124    0.3519952257375212    0.34564589978862564    0.338840057735794    0.33261605835181707    
  0.3281994208486159    0.3265971752291428    0.3281997568677468    0.332616723614835    0.3388410375752776    
  0.34564716952953006    0.3519967493305648    0.35724334408380404    0.3610904544248334    0.36342909469064977    
  0.36421392708414346    0.3947456396021209    0.3945177488864267    0.3934878966131811    0.390766505006111    
  0.3853444670734552    0.37666869690387056    0.36509759466457764    0.3519476563667456    0.33907015977051486    
  0.3281997568677469    0.3204236112048032    0.3159844802488356    0.31442132902066916    0.3149044000612666    
  0.3165683674096731    0.31869220079196525    0.32070725137803074    0.32214828189650996    0.322672460187024    
  0.32214828189650996    0.32070725137803074    0.3186922007919652    0.3165683674096731    0.3149044000612666    
  0.31442132902066916    0.3159844802488355    0.3204236112048032    0.3281997568677469    0.33907015977051486    
  0.3519476563667456    0.36509759466457764    0.3766686969038705    0.3853444670734552    0.3907665050061111    
  0.3934878966131811    0.3945177488864267    0.3947456396021209    0.3991787953431747    0.4008383550617932    
  0.40482310192009474    0.40848892980401125    0.4085441051074598    0.4024797676072142    0.38974851778608005    
  0.3719498815272037    0.3519476563667455    0.33261672361483485    0.31598479963077253    0.3030010750991091    
  0.2937200289785097    0.28763352195469805    0.28399856355104025    0.2820749504465737    0.2812309915072651    
  0.280961504224014    0.2809150936397939    0.280961504224014    0.2812309915072651    0.28207495044657366    
  0.28399856355104025    0.28763352195469805    0.2937200289785097    0.3030010750991091    0.31598479963077253    
  0.33261672361483485    0.3519476563667455    0.3719498815272037    0.38974851778608005    0.40247976760721416    
  0.40854410510745987    0.40848892980401136    0.40482310192009474    0.4008383550617932    0.3991787953431747    
  0.36574393368569535    0.37057185563455547    0.38338702362155636    0.39948971707695163    0.41238566652420894    
  0.4161848159440186    0.4081714086269509    0.38974851778608016    0.36509759466457764    0.3388410375752777    
  0.3144219456543682    0.29372031720202174    0.2773680775359705    0.2651829171967925    0.25654295077637423    
  0.2507034998281215    0.24701291601514475    0.24499461748770696    0.2443554909390539    0.24499461748770696    
  0.24701291601514475    0.2507034998281214    0.25654295077637423    0.2651829171967925    0.2773680775359705    
  0.29372031720202174    0.3144219456543682    0.3388410375752777    0.36509759466457764    0.3897485177860801    
  0.4081714086269509    0.4161848159440186    0.41238566652420894    0.39948971707695174    0.38338702362155636    
  0.37057185563455547    0.36574393368569535    0.2971906845689951    0.3054354735760746    0.32834229766970174    
  0.3601816908308622    0.3916495513713164    0.412530899190011    0.4161848159440186    0.4024797676072141    
  0.3766686969038704    0.34564716952953006    0.31490528599356277    0.28763406415216186    0.26518316369327993    
  0.24772921961120606    0.23478041223899385    0.22558943747040872    0.2194753288763978    0.21597267278505253    
  0.21483099955376347    0.21597267278505258    0.2194753288763978    0.22558943747040863    0.23478041223899385    
  0.24772921961120603    0.26518316369327993    0.2876340641521618    0.31490528599356277    0.34564716952953006    
  0.3766686969038704    0.4024797676072141    0.4161848159440186    0.412530899190011    0.3916495513713164    
  0.3601816908308623    0.32834229766970174    0.3054354735760746    0.2971906845689951    0.21348121274829554    
  0.2239112285074151    0.25409944044233435    0.2994685013280998    0.3500080832825903    0.39164955137131646    
  0.412385666524209    0.40854410510745987    0.3853444670734552    0.3519967493305648    0.31656948780516453    
  0.28399932232690783    0.25654340203039944    0.23478061175325732    0.21834981168437498    0.2064932026599908    
  0.19848121174682834    0.1938291282160415    0.19230044727509907    0.1938291282160415    0.19848121174682834    
  0.20649320265999072    0.21834981168437498    0.23478061175325732    0.25654340203039944    0.28399932232690783    
  0.31656948780516453    0.3519967493305648    0.3853444670734552    0.40854410510745987    0.412385666524209    
  0.39164955137131646    0.3500080832825903    0.29946850132809993    0.25409944044233435    0.22391122850741516    
  0.21348121274829554    0.1393489348497942    0.15004609841900685    0.18238881324243317    0.234869964104085    
  0.29946850132809977    0.36018169083086227    0.3994897170769517    0.40848892980401136    0.3907665050061109    
  0.3572433440838039    0.31869351351806924    0.2820758843127487    0.2507041133861044    0.22558979187774827    
  0.20649335462033236    0.19263543323997553    0.18322430747462476    0.1777357577641341    0.17592720271750484    
  0.17773575776413408    0.18322430747462476    0.19263543323997545    0.2064933546203324    0.22558979187774827    
  0.2507041133861044    0.2820758843127487    0.31869351351806924    0.3572433440838039    0.3907665050061109    
  0.40848892980401136    0.3994897170769517    0.36018169083086227    0.29946850132809977    0.23486996410408506    
  0.18238881324243317    0.15004609841900685    0.1393489348497942    0.0887780548171637    0.09844160072416697    
  0.1289960219532409    0.18238881324243308    0.25409944044233435    0.32834229766970174    0.3833870236215563    
  0.4048231019200947    0.39348789661318107    0.3610904544248334    0.3207087076466072    0.28123205439587934    