#     DFTpy    
  CRYSTAL 
    
  PRIMVEC    
  4.48520689655172    0.0    0.0    
  0.0    4.48520689655172    0.0    
  0.0    0.0    4.48520689655172    
  PRIMCOORD    
  4    1    
  Si    0.0    0.0    0.0    
  Si    0.0    2.24260344827586    2.24260344827586    
  Si    2.24260344827586    0.0    2.24260344827586    
  Si    2.24260344827586    2.24260344827586    0.0    
  BEGIN_BLOCK_DATAGRID_3D    
  3d_datagrid_density    
  BEGIN_DATAGRID_3D#0    
  46    46    46    
  0.0    0.0    0.0    
  4.485206913281628    0.0    0.0    
  0.0    4.485206913281628    0.0    
  0.0    0.0    4.485206913281628    
  0.059423516123584826    0.06707157735737666    0.092080989376681    0.1383428919235753    0.2049043988858429    
  0.2792106810337745    0.3392653124733064    0.36652065299876974    0.35737039711285823    0.3221479196694094    
  0.27546465919482716    0.22841894395864837    0.18675432304531167    0.1523884065801147    0.125238785940099    
  0.10437021446173762    0.0886280946036938    0.07696089572294781    0.06851116778184908    0.06258440645307077    
  0.05861807489740316    0.056191159397688185    0.05503845113584197    0.05503845113584197    0.056191159397688116    
  0.058618074897403206    0.06258440645307078    0.06851116778184908    0.07696089572294772    0.08862809460369382    
  0.10437021446173761    0.12523878594009905    0.1523884065801147    0.18675432304531164    0.2284189439586483    
  0.27546465919482716    0.3221479196694094    0.35737039711285823    0.36652065299876974    0.3392653124733064    
  0.2792106810337745    0.2049043988858429    0.13834289192357538    0.09208098937668108    0.06707157735737664    
  0.059423516123584826    0.06707157735737662    0.07509316707465791    0.1009987143980207    0.1479769087573161    
  0.21409925665510893    0.28628391932678166    0.3430843373852428    0.3672255550101785    0.3560753773896601    
  0.32010096500323265    0.27348981635301883    0.22686500171626697    0.1856814452313385    0.1517391315296832    
  0.12492703684114015    0.10431591721919982    0.08876732939842069    0.07724515558501459    0.06890276301428039    
  0.06305280830239215    0.05913840739992914    0.05674334112907014    0.05560576156489462    0.05560576156489467    
  0.05674334112907003    0.05913840739992919    0.06305280830239217    0.06890276301428039    0.07724515558501459    
  0.08876732939842069    0.10431591721919978    0.12492703684114018    0.15173913152968324    0.1856814452313385    
  0.22686500171626697    0.27348981635301883    0.3201009650032326    0.3560753773896601    0.3672255550101785    
  0.3430843373852427    0.28628391932678166    0.21409925665510893    0.1479769087573161    0.10099871439802072    
  0.0750931670746579    0.06707157735737662    0.092080989376681    0.10099871439802066    0.12889158023591132    
  0.1769054520738655    0.24055931036954412    0.3057333447432149    0.3528711778946905    0.36825001582502376    
  0.3517068050455267    0.3138555921467313    0.26761430718699836    0.22228333454542298    0.18253352434870299    
  0.14984798983937642    0.12403911240252069    0.10419596555168384    0.08922723872643373    0.07814180515781935    
  0.07012451833723589    0.06450871684643449    0.060753715853507445    0.05845699805266955    0.057366318221555884    
  0.057366318221555884    0.058456998052669504    0.06075371585350752    0.06450871684643458    0.07012451833723589    
  0.07814180515781928    0.08922723872643373    0.10419596555168384    0.12403911240252075    0.14984798983937644    
  0.18253352434870296    0.22228333454542298    0.26761430718699836    0.3138555921467313    0.3517068050455267    
  0.3682500158250238    0.3528711778946904    0.3057333447432149    0.24055931036954412    0.17690545207386554    
  0.12889158023591138    0.10099871439802062    0.092080989376681    0.1383428919235753    0.14797690875731612    
  0.1769054520738655    0.22336060211029846    0.27989057226260855    0.3321041973707792    0.36398732101156206    
  0.36677072576081826    0.34311119796915857    0.30323991638960657    0.2580438156134081    0.2149441080857364    
  0.1775444011588169    0.1469029229111076    0.12273151482181191    0.10415126423292977    0.0901453791764224    
  0.07979332083834788    0.07232874991208728    0.0671164269232617    0.06363988280244921    0.06151700518418964    
  0.06050985615737905    0.060509856157379076    0.06151700518418962    0.06363988280244925    0.06711642692326172    
  0.07232874991208728    0.07979332083834785    0.0901453791764224    0.10415126423292974    0.12273151482181191    
  0.14690292291110757    0.17754440115881687    0.2149441080857364    0.2580438156134081    0.30323991638960657    
  0.34311119796915857    0.36677072576081826    0.36398732101156206    0.33210419737077923    0.27989057226260866    
  0.22336060211029854    0.17690545207386552    0.14797690875731606    0.1383428919235753    0.20490439888584283    
  0.21409925665510893    0.24055931036954406    0.2798905722626085    0.3228792615906066    0.35669874342016067    
  0.37016706427650115    0.3594652281630413    0.3291965939264452    0.2883318985514152    0.24525525563322184    
  0.20535726304716473    0.1711470673341918    0.1432552386729904    0.12129834622485769    0.10444592973708129    
  0.09177794285088188    0.08246310345212705    0.07579501872903892    0.07117554005339449    0.0681159831637908    
  0.0662575653097227    0.06537875597354428    0.06537875597354431    0.06625756530972265    0.06811598316379083    
  0.07117554005339453    0.07579501872903892    0.08246310345212698    0.09177794285088188    0.10444592973708125    
  0.12129834622485769    0.1432552386729904    0.17114706733419174    0.2053572630471647    0.24525525563322184    
  0.2883318985514152    0.3291965939264452    0.35946522816304133    0.37016706427650115    0.35669874342016067    
  0.3228792615906066    0.2798905722626086    0.24055931036954417    0.21409925665510893    0.20490439888584283    
  0.27921068103377444    0.2862839193267816    0.3057333447432149    0.3321041973707792    0.3566987434201607    
  0.37003592780573913    0.3658919004074958    0.34408186745753055    0.30968899651099546    0.26971872559676424    
  0.23004889582196567    0.19426953725723453    0.1639674938227499    0.13942015897948054    0.12017764229290198    
  0.10547692886325899    0.09451025725688338    0.08654485712762248    0.08093714254255696    0.07712511302218034    
  0.07464569269955255    0.07316148616599602    0.07246615649221815    0.07246615649221812    0.07316148616599592    
  0.07464569269955253    0.07712511302218036    0.08093714254255693    0.08654485712762246    0.09451025725688339    
  0.10547692886325896    0.12017764229290198    0.13942015897948054    0.16396749382274983    0.19426953725723453    
  0.23004889582196572    0.26971872559676424    0.30968899651099546    0.34408186745753055    0.3658919004074958    
  0.3700359278057391    0.3566987434201607    0.3321041973707792    0.3057333447432149    0.2862839193267816    
  0.27921068103377444    0.3392653124733064    0.3430843373852428    0.3528711778946904    0.36398732101156206    
  0.37016706427650115    0.36589190040749586    0.3488015813252215    0.32053851238962167    0.28548116058631556    
  0.2485270147576035    0.21348040860291484    0.18258135182705112    0.15675093993578942    0.13601856122066625    
  0.11990825573148073    0.1077427330276712    0.09883296615788813    0.09254283751903897    0.08828529903952725    
  0.08552635334740051    0.08381990599607415    0.08284246662523673    0.08239797851331167    0.08239797851331167    
  0.08284246662523673    0.08381990599607418    0.08552635334740055    0.08828529903952725    0.09254283751903897    
  0.09883296615788813    0.10774273302767118    0.11990825573148073    0.13601856122066625    0.15675093993578937    
  0.18258135182705112    0.2134804086029149    0.2485270147576035    0.28548116058631556    0.3205385123896217    
  0.3488015813252215    0.3658919004074958    0.3701670642765012    0.3639873210115621    0.3528711778946904    
  0.34308433738524274    0.3392653124733064    0.36652065299876974    0.3672255550101785    0.3682500158250238    
  0.36677072576081826    0.35946522816304133    0.34408186745753055    0.3205385123896217    0.2909070064474807    
  0.25841365367778285    0.22622895892181996    0.19671232333166844    0.17122160882032714    0.15025069134678953    
  0.1336809108870552    0.12105083722662544    0.11178090402486936    0.10529488371010207    0.10103881175750726    
  0.0984658836877176    0.09705364411968972    0.09635658949372436    0.09605102058048007    0.09594193535687795    
  0.09594193535687798    0.09605102058048003    0.0963565894937244    0.09705364411968977    0.0984658836877176    
  0.10103881175750727    0.10529488371010207    0.11178090402486936    0.12105083722662538    0.1336809108870552    
  0.1502506913467895    0.1712216088203271    0.19671232333166844    0.22622895892181996    0.2584136536777829    
  0.2909070064474807    0.3205385123896217    0.34408186745753055    0.3594652281630414    0.3667707257608183    
  0.3682500158250238    0.3672255550101785    0.36652065299876974    0.35737039711285823    0.35607537738966016    
  0.3517068050455267    0.34311119796915857    0.32919659392644524    0.3096889965109955    0.28548116058631556    
  0.2584136536777829    0.23069957695746102    0.2043551605569772    0.18085677980937714    0.16103523667342287    
  0.14513380756596103    0.13296779405700385    0.12412399667761918    0.11812078273651648    0.114473134802242    
  0.11267999773648749    0.11220622178367894    0.11251364878475169    0.11313114082041069    0.11371261771263529    
  0.11404969238782518    0.1140496923878252    0.11371261771263522    0.11313114082041066    0.11251364878475173    
  0.11220622178367894    0.11267999773648751    0.11447313480224197    0.11812078273651648    0.12412399667761916    
  0.13296779405700385    0.145133807565961    0.16103523667342287    0.18085677980937714    0.20435516055697722    
  0.23069957695746102    0.2584136536777829    0.28548116058631556    0.3096889965109955    0.32919659392644524    
  0.34311119796915857    0.35170680504552676    0.35607537738966016    0.35737039711285823    0.3221479196694095    
  0.3201009650032327    0.3138555921467312    0.3032399163896065    0.2883318985514153    0.26971872559676424    
  0.2485270147576035    0.22622895892181996    0.2043551605569772    0.18423925405118394    0.1668481756983573    
  0.15270913608096517    0.14193701291317332    0.13434669398116508    0.12959556074921674    0.12728420608710497    
  0.12697923226408753    0.12818645923057384    0.13033939811811535    0.13284495573038232    0.13517034338364783    
  0.13691727538989457    0.1378442362053361    0.1378442362053361    0.1369172753898945    0.13517034338364783    
  0.13284495573038232    0.13033939811811535    0.12818645923057387    0.12697923226408753    0.12728420608710497    
  0.12959556074921674    0.13434669398116508    0.1419370129131733    0.15270913608096517    0.1668481756983573    
  0.18423925405118394    0.20435516055697722    0.22622895892181996    0.2485270147576035    0.26971872559676424    
  0.2883318985514153    0.3032399163896066    0.3138555921467312    0.32010096500323265    0.3221479196694095    
  0.27546465919482716    0.27348981635301883    0.2676143071869983    0.2580438156134081    0.24525525563322179    
  0.23004889582196567    0.21348040860291484    0.19671232333166846    0.1808567798093771    0.16684817569835725    
  0.15535403342405116    0.14673497686656148    0.14106699335614575    0.1382143388619332    0.13791063849837856    
  0.13980404484704415    0.14345470958735307    0.14831318896580972    0.15372637397635963    0.15899932557360158    
  0.16349755249696812    0.16673820360940592    0.1684245496279386    0.1684245496279386    0.1667382036094059    
  0.16349755249696812    0.1589993255736016    0.15372637397635963    0.14831318896580975    0.14345470958735304    
  0.13980404484704415    0.1379106384983786    0.1382143388619332    0.14106699335614575    0.1467349768665615    
  0.15535403342405116    0.16684817569835725    0.1808567798093771    0.19671232333166846    0.21348040860291484    
  0.23004889582196567    0.24525525563322184    0.2580438156134081    0.26761430718699836    0.27348981635301883    
  0.27546465919482716    0.2284189439586483    0.22686500171626692    0.22228333454542298    0.2149441080857364    
  0.2053572630471647    0.1942695372572345    0.18258135182705115    0.17122160882032714    0.1610352366734228    
  0.1527091360809651    0.14673497686656148    0.14340228171427605    0.14281446955074711    0.14491260399821546    
  0.14948893355744194    0.15618410371676628    0.16447793788433518    0.17369233485248797    0.18302653703512742    
  0.19163826148829521    0.19875964754941247    0.20380302228148134    0.2064054396383334    0.2064054396383334    
  0.20380302228148134    0.19875964754941244    0.1916382614882952    0.1830265370351274    0.17369233485248797    
  0.16447793788433518    0.15618410371676628    0.14948893355744192    0.14491260399821546    0.14281446955074711    
  0.14340228171427605    0.14673497686656148    0.1527091360809651    0.16103523667342282    0.17122160882032714    
  0.18258135182705112    0.19426953725723453    0.20535726304716473    0.2149441080857364    0.22228333454542298    
  0.22686500171626692    0.2284189439586483    0.18675432304531173    0.18568144523133856    0.18253352434870296    
  0.17754440115881695    0.17114706733419177    0.1639674938227499    0.15675093993578945    0.15025069134678953    
  0.14513380756596103    0.1419370129131733    0.14106699335614575    0.14281446955074717    0.14735012697552388    
  0.15468892291095077    0.16463703911211444    0.17675351707155001    0.190351170977356    0.20453947627790578    
  0.21830298059372402    0.23061465862671782    0.24057355718491247    0.24752055856949046    0.2510730821634633    
  0.2510730821634633    0.24752055856949046    0.24057355718491247    0.23061465862671782    0.21830298059372402    
  0.20453947627790578    0.190351170977356    0.17675351707155001    0.1646370391121144    0.15468892291095077    
  0.1473501269755239    0.14281446955074717    0.14106699335614575    0.1419370129131733    0.145133807565961    
  0.1502506913467895    0.15675093993578945    0.1639674938227499    0.17114706733419183    0.17754440115881695    
  0.182533524348703    0.18568144523133856    0.18675432304531173    0.15238840658011465    0.15173913152968313    
  0.14984798983937636    0.14690292291110757    0.14325523867299036    0.1394201589794805    0.1360185612206662    
  0.1336809108870551    0.13296779405700382    0.13434669398116506    0.1382143388619332    0.1449126039982154    
  0.15468892291095074    0.1675975746716885    0.18338868258040666    0.2014457937494022    0.2208036736761261    
  0.24024076081573514    0.25843061026656244    0.27413853802398824    0.28642096107899306    0.29473795258333846    
  0.29890295553780116    0.29890295553780116    0.2947379525833384    0.28642096107899306    0.2741385380239882    
  0.25843061026656244    0.24024076081573514    0.2208036736761261    0.20144579374940214    0.18338868258040664    
  0.1675975746716885    0.15468892291095077    0.1449126039982154    0.1382143388619332    0.13434669398116506    
  0.1329677940570038    0.13368091088705508    0.13601856122066622    0.13942015897948054    0.1432552386729904    
  0.14690292291110763    0.14984798983937636    0.15173913152968319    0.15238840658011465    0.125238785940099    
  0.12492703684114013    0.12403911240252069    0.12273151482181188    0.12129834622485766    0.12017764229290198    
  0.11990825573148073    0.12105083722662541    0.12412399667761911    0.1295955607492167    0.13791063849837856    
  0.14948893355744194    0.16463703911211436    0.1833886825804066    0.20534340705371612    0.22957627041654516    
  0.25465993204203163    0.27882490901920304    0.30027438675696766    0.3176012941839066    0.33013060719362947    
  0.33796341443749295    0.3416462486105234    0.34164624861052345    0.33796341443749295    0.33013060719362947    
  0.3176012941839066    0.30027438675696766    0.2788249090192031    0.25465993204203163    0.2295762704165451    
  0.20534340705371606    0.18338868258040664    0.16463703911211436    0.14948893355744197    0.13791063849837856    
  0.1295955607492167    0.12412399667761909    0.12105083722662541    0.11990825573148073    0.12017764229290208    
  0.12129834622485769    0.12273151482181191    0.12403911240252075    0.12492703684114015    0.125238785940099    
  0.10437021446173761    0.10431591721919982    0.10419596555168383    0.10415126423292974    0.10444592973708128    
  0.10547692886325903    0.10774273302767122    0.11178090402486933    0.11812078273651648    0.12728420608710495    
  0.13980404484704412    0.15618410371676628    0.17675351707155    0.2014457937494022    0.22957627041654524    
  0.2596871371335241    0.2895497877635491    0.31647245487339026    0.33800080832544876    0.35279872896298337    
  0.3611816521788332    0.36486237315806086    0.36598467374736693    0.365984673747367    0.36486237315806086    
  0.3611816521788332    0.3527987289629833    0.33800080832544876    0.31647245487339026    0.2895497877635491    
  0.2596871371335241    0.22957627041654521    0.2014457937494022    0.17675351707155001    0.1561841037167663    
  0.1398040448470441    0.12728420608710495    0.11812078273651645    0.11178090402486932    0.1077427330276712    
  0.10547692886325906    0.1044459297370813    0.10415126423292974    0.10419596555168381    0.1043159172191998    
  0.10437021446173761    0.0886280946036938    0.08876732939842064    0.0892272387264337    0.09014537917642244    
  0.09177794285088187    0.0945102572568834    0.09883296615788816    0.1052948837101021    0.11447313480224197    
  0.12697923226408755    0.14345470958735304    0.16447793788433518    0.190351170977356    0.22080367367612624    
  0.2546599320420317    0.2895497877635491    0.3219048996179942    0.34764463077051855    0.3636608059353772    
  0.3694054746222489    0.36740438611250315    0.3621696253075897    0.3581979690317902    0.3581979690317902    
  0.3621696253075897    0.3674043861125032    0.3694054746222488    0.36366080593537725    0.3476446307705186    
  0.32190489961799423    0.2895497877635491    0.25465993204203163    0.22080367367612624    0.190351170977356    
  0.16447793788433518    0.14345470958735304    0.12697923226408755    0.11447313480224194    0.10529488371010211    
  0.09883296615788821    0.0945102572568835    0.09177794285088191    0.09014537917642244    0.0892272387264337    
  0.08876732939842064    0.0886280946036938    0.07696089572294779    0.07724515558501459    0.07814180515781928    
  0.07979332083834793    0.08246310345212703    0.08654485712762251    0.09254283751903893    0.1010388117575073    
  0.11267999773648751    0.12818645923057384    0.14831318896580967    0.17369233485248797    0.20453947627790575    
  0.24024076081573514    0.27882490901920315    0.31647245487339026    0.34764463077051855    0.3665983915709269    
  0.3701437224243393    0.35989208065021083    0.3419976416322507    0.3244299496736371    0.3138557244123008    
  0.3138557244123008    0.32442994967363714    0.34199764163225066    0.35989208065021083    0.3701437224243393    
  0.36659839157092694    0.34764463077051855    0.31647245487339026    0.2788249090192031    0.24024076081573514    
  0.20453947627790575    0.173692334852488    0.14831318896580964    0.12818645923057384    0.11267999773648751    
  0.10103881175750726    0.092542837519039    0.08654485712762261    0.08246310345212705    0.0797933208383479    
  0.07814180515781928    0.07724515558501462    0.07696089572294779    0.06851116778184904    0.06890276301428039    
  0.07012451833723592    0.07232874991208728    0.07579501872903889    0.08093714254255693    0.08828529903952725    
  0.09846588368771761    0.11220622178367899    0.13033939811811532    0.1537263739763596    0.18302653703512745    
  0.21830298059372397    0.25843061026656244    0.3002743867569678    0.33800080832544876    0.36366080593537725    
  0.3701437224243393    0.3555202899606113    0.3253041660300027    0.2901381624999377    0.26077298250132086    
  0.24447176368041953    0.24447176368041953    0.26077298250132086    0.2901381624999376    0.3253041660300027    
  0.3555202899606113    0.37014372242433935    0.36366080593537725    0.33800080832544876    0.30027438675696777    
  0.2584306102665625    0.21830298059372402    0.18302653703512745    0.1537263739763596    0.13033939811811532    
  0.11220622178367894    0.09846588368771758    0.08828529903952725    0.08093714254255696    0.07579501872903889    
  0.07232874991208724    0.07012451833723589    0.06890276301428042    0.06851116778184904    0.06258440645307078    
  0.06305280830239215    0.06450871684643458    0.06711642692326175    0.07117554005339456    0.07712511302218036    
  0.08552635334740055    0.0970536441196898    0.11251364878475173    0.13284495573038232    0.15899932557360158    
  0.19163826148829524    0.23061465862671782    0.27413853802398824    0.3176012941839067    0.3527987289629834    
  0.3694054746222489    0.35989208065021083    0.3253041660300027    0.2763405502578678    0.2277428333301945    
  0.1910799427767666    0.1719720800293991    0.17197208002939907    0.19107994277676668    0.2277428333301945    
  0.2763405502578678    0.3253041660300027    0.3598920806502109    0.3694054746222489    0.35279872896298337    
  0.3176012941839066    0.27413853802398824    0.23061465862671782    0.19163826148829521    0.15899932557360158    
  0.13284495573038232    0.11251364878475169    0.09705364411968975    0.08552635334740061    0.07712511302218036    
  0.07117554005339453    0.06711642692326175    0.06450871684643456    0.06305280830239215    0.06258440645307078    
  0.05861807489740323    0.0591384073999291    0.06075371585350747    0.06363988280244923    0.06811598316379076    
  0.0746456926995525    0.08381990599607421    0.09635658949372443    0.11313114082041066    0.1351703433836479    
  0.16349755249696812    0.19875964754941242    0.2405735571849124    0.2864209610789931    0.33013060719362947    
  0.3611816521788332    0.36740438611250315    0.3419976416322507    0.2901381624999377    0.2277428333301945    
  0.17214640796479452    0.13363853486255645    0.11472946811823462    0.11472946811823463    0.13363853486255645    
  0.17214640796479447    0.22774283333019443    0.2901381624999376    0.3419976416322507    0.3674043861125031    
  0.36118165217883313    0.33013060719362947    0.2864209610789931    0.2405735571849124    0.19875964754941242    
  0.16349755249696807    0.1351703433836479    0.11313114082041065    0.09635658949372437    0.08381990599607424    
  0.0746456926995525    0.06811598316379074    0.06363988280244919    0.06075371585350747    0.05913840739992914    
  0.05861807489740323    0.056191159397688165    0.05674334112907007    0.058456998052669434    0.06151700518418966    
  0.0662575653097227    0.07316148616599592    0.0828424666252368    0.09605102058047996    0.11371261771263524    
  0.1369172753898945    0.16673820360940586    0.20380302228148134    0.24752055856949037    0.29473795258333846    
  0.33796341443749295    0.36486237315806086    0.3621696253075897    0.32442994967363714    0.26077298250132086    
  0.19107994277676665    0.13363853486255645    0.09652642307193718    0.07922751835305392    0.07922751835305392    
  0.09652642307193715    0.13363853486255645    0.1910799427767666    0.26077298250132086    0.32442994967363714    
  0.36216962530758967    0.36486237315806075    0.33796341443749295    0.29473795258333846    0.24752055856949046    
  0.20380302228148134    0.16673820360940586    0.1369172753898945    0.1137126177126352    0.09605102058047997    
  0.08284246662523677    0.07316148616599599    0.0662575653097227    0.06151700518418962    0.058456998052669455    
  0.05674334112907012    0.056191159397688165    0.05503845113584204    0.05560576156489462    0.057366318221555954    
  0.06050985615737912    0.06537875597354424    0.07246615649221817    0.08239797851331167    0.09594193535687798    
  0.11404969238782516    0.13784423620533612    0.16842454962793854    0.20640543963833347    0.25107308216346336    
  0.29890295553780116    0.3416462486105235    0.36598467374736693    0.35819796903179024    0.3138557244123009    
  0.2444717636804196    0.17197208002939907    0.11472946811823459    0.07922751835305387    0.06320012973741994    
  0.06320012973741994    0.07922751835305392    0.11472946811823456    0.17197208002939904    0.2444717636804196    
  0.3138557244123009    0.3581979690317902    0.3659846737473669    0.3416462486105234    0.29890295553780116    
  0.25107308216346336    0.20640543963833347    0.16842454962793854    0.13784423620533612    0.11404969238782516    
  0.0959419353568779    0.0823979785133117    0.07246615649221817    0.06537875597354428    0.06050985615737905    
  0.057366318221555884    0.05560576156489458    0.05503845113584204    0.055038451135842    0.05560576156489465    
  0.057366318221555954    0.0605098561573791    0.06537875597354424    0.07246615649221812    0.08239797851331163    
  0.09594193535687798    0.11404969238782513    0.1378442362053361    0.16842454962793854    0.20640543963833347    
  0.2510730821634633    0.29890295553780116    0.3416462486105235    0.36598467374736693    0.3581979690317902    
  0.31385572441230086    0.2444717636804196    0.17197208002939907    0.11472946811823462    0.07922751835305387    
  0.06320012973741992    0.06320012973741992    0.07922751835305394    0.11472946811823462    0.17197208002939907    
  0.2444717636804196    0.3138557244123009    0.3581979690317902    0.36598467374736693    0.34164624861052345    
  0.29890295553780116    0.25107308216346336    0.20640543963833347    0.1684245496279385    0.1378442362053361    
  0.11404969238782513    0.09594193535687792    0.08239797851331174    0.07246615649221817    0.06537875597354428    
  0.060509856157379076    0.057366318221555884    0.05560576156489462    0.055038451135842    0.056191159397688116    
  0.05674334112907012    0.058456998052669455    0.061517005184189594    0.06625756530972267    0.07316148616599595    
  0.08284246662523675    0.09605102058048    0.11371261771263524    0.13691727538989448    0.16673820360940586    
  0.20380302228148134    0.24752055856949037    0.29473795258333846    0.337963414437493    0.36486237315806086    
  0.3621696253075897    0.32442994967363714    0.26077298250132086    0.19107994277676665    0.13363853486255647    
  0.09652642307193718    0.07922751835305387    0.07922751835305392    0.09652642307193712    0.13363853486255645    
  0.1910799427767666    0.26077298250132086    0.32442994967363714    0.36216962530758967    0.3648623731580608    
  0.33796341443749295    0.29473795258333835    0.2475205585694904    0.20380302228148137    0.16673820360940586    
  0.13691727538989448    0.11371261771263522    0.09605102058047997    0.08284246662523673    0.07316148616599596    
  0.0662575653097227    0.06151700518418957    0.058456998052669455    0.05674334112907014    0.056191159397688116    
  0.058618074897403186    0.05913840739992914    0.060753715853507424    0.06363988280244928    0.06811598316379078    
  0.07464569269955253    0.08381990599607421    0.09635658949372443    0.11313114082041062    0.13517034338364783    
  0.1634975524969681    0.19875964754941242    0.24057355718491238    0.2864209610789931    0.3301306071936295    
  0.3611816521788332    0.3674043861125032    0.3419976416322507    0.2901381624999376    0.2277428333301944    
  0.17214640796479447    0.1336385348625564    0.11472946811823462    0.11472946811823456    0.13363853486255636    
  0.17214640796479447    0.2277428333301944    0.2901381624999376    0.3419976416322507    0.36740438611250315    
  0.36118165217883313    0.33013060719362947    0.2864209610789931    0.24057355718491238    0.19875964754941242    
  0.1634975524969681    0.13517034338364783    0.11313114082041062    0.09635658949372437    0.08381990599607425    
  0.07464569269955253    0.06811598316379078    0.06363988280244923    0.0607537158535074    0.05913840739992912    
  0.058618074897403186    0.06258440645307084    0.06305280830239217    0.06450871684643458    0.0671164269232618    
  0.07117554005339456    0.07712511302218038    0.08552635334740052    0.09705364411968977    0.11251364878475169    
  0.13284495573038235    0.15899932557360158    0.19163826148829521    0.23061465862671782    0.27413853802398824    
  0.3176012941839067    0.3527987289629834    0.3694054746222489    0.3598920806502108    0.3253041660300027    
  0.2763405502578678    0.2277428333301944    0.19107994277676665    0.17197208002939912    0.1719720800293991    
  0.19107994277676665    0.2277428333301944    0.2763405502578678    0.3253041660300027    0.35989208065021083    
  0.3694054746222489    0.35279872896298337    0.3176012941839066    0.27413853802398824    0.23061465862671782    
  0.19163826148829521    0.15899932557360158    0.13284495573038235    0.11251364878475169    0.09705364411968972    
  0.08552635334740051    0.07712511302218043    0.07117554005339452    0.06711642692326172    0.06450871684643458    
  0.0630528083023922    0.06258440645307084    0.06851116778184904    0.06890276301428039    0.07012451833723592    
  0.07232874991208728    0.07579501872903889    0.08093714254255693    0.08828529903952725    0.09846588368771761    
  0.11220622178367899    0.13033939811811532    0.1537263739763596    0.18302653703512745    0.21830298059372397    
  0.25843061026656244    0.3002743867569678    0.33800080832544876    0.36366080593537725    0.3701437224243393    