#     DFTpy    
  CRYSTAL 
    
  PRIMVEC    
  4.555655172413791    0.0    0.0    
  0.0    4.555655172413791    0.0    
  0.0    0.0    4.555655172413791    
  PRIMCOORD    
  4    1    
  Si    0.0    0.0    0.0    
  Si    0.0    2.2778275862069006    2.2778275862069006    
  Si    2.2778275862069006    0.0    2.2778275862069006    
  Si    2.2778275862069006    2.2778275862069006    0.0    
  BEGIN_BLOCK_DATAGRID_3D    
  3d_datagrid_density    
  BEGIN_DATAGRID_3D#0    
  46    46    46    
  0.0    0.0    0.0    
  4.555655189406472    0.0    0.0    
  0.0    4.555655189406472    0.0    
  0.0    0.0    4.555655189406472    
  0.05969462629289754    0.067608767979622    0.09352409447696709    0.14141889896963414    0.2098120297286492    
  0.2847646532045107    0.34301900726610124    0.3662767089515017    0.35260501176163056    0.3139550773178667    
  0.26549378651232    0.21802340110890447    0.17676114344881125    0.14319727068995988    0.11696866004773064    
  0.09698379762537641    0.08202671304516233    0.07103043946011872    0.06312480953028261    0.05760004132120858    
  0.05389471674449841    0.05161245148175033    0.05052118148840298    0.05052118148840298    0.05161245148175026    
  0.05389471674449841    0.05760004132120863    0.06312480953028261    0.07103043946011872    0.08202671304516226    
  0.09698379762537644    0.11696866004773061    0.14319727068995985    0.17676114344881128    0.2180234011089044    
  0.26549378651232    0.3139550773178667    0.35260501176163056    0.36627670895150166    0.34301900726610124    
  0.2847646532045107    0.20981202972864926    0.14141889896963414    0.0935240944769671    0.067608767979622    
  0.05969462629289754    0.067608767979622    0.07591746339711822    0.10276815627051301    0.15136690260105606    
  0.21918511010317573    0.2917777260149073    0.3465679221805721    0.36664454376120686    0.3510391374804565    
  0.31174747119395496    0.2634444467707183    0.21644192732871362    0.17568000005899936    0.14254392138253869    
  0.11664937699060283    0.09691511601857869    0.08214403880674544    0.07128629614048952    0.06348365693486224    
  0.05803411085558335    0.05438163043451058    0.0521333578422052    0.05105888411961511    0.05105888411961513    
  0.05213335784220516    0.05438163043451058    0.058034110855583396    0.06348365693486224    0.07128629614048952    
  0.08214403880674541    0.09691511601857872    0.1166493769906028    0.14254392138253869    0.1756800000589994    
  0.21644192732871356    0.2634444467707183    0.31174747119395496    0.3510391374804565    0.36664454376120686    
  0.3465679221805721    0.2917777260149073    0.21918511010317576    0.15136690260105612    0.10276815627051297    
  0.07591746339711818    0.067608767979622    0.09352409447696712    0.10276815627051294    0.1316515911650435    
  0.1811473667855118    0.24601817976127532    0.31089754724800905    0.3554750192432099    0.36666650288897573    
  0.34590041090287044    0.3050601855989122    0.25737215129029234    0.21179363229461545    0.17251676533570337    
  0.1406460493878267    0.11574171233349446    0.0967531172602186    0.08253800694528436    0.07209615969447039    
  0.064603839063599    0.05938147454725121    0.055888710170833196    0.05374310362016303    0.05271929562541674    
  0.05271929562541671    0.05374310362016296    0.055888710170833196    0.059381474547251234    0.064603839063599    
  0.07209615969447036    0.08253800694528432    0.09675311726021864    0.11574171233349442    0.14064604938782665    
  0.1725167653357034    0.21179363229461542    0.25737215129029234    0.3050601855989122    0.34590041090287044    
  0.36666650288897573    0.35547501924320984    0.310897547248009    0.24601817976127538    0.18114736678551177    
  0.1316515911650435    0.10276815627051294    0.09352409447696712    0.14141889896963417    0.1513669026010561    
  0.18114736678551185    0.22859689183460766    0.2854236051386966    0.33629364644158466    0.36496943845841556    
  0.3635802931613367    0.3361607876196373    0.29382516909441825    0.24754602740350992    0.20438321793290934    
  0.1675231919868243    0.13769957636145275    0.11440397542696834    0.09663688219087704    0.08334199255475527    
  0.0735958332912324    0.06662736519685993    0.0617911175861729    0.058570820400841855    0.05660046433601638    
  0.05566304725548771    0.05566304725548773    0.05660046433601636    0.058570820400841835    0.0617911175861729    
  0.06662736519685995    0.0735958332912324    0.08334199255475525    0.09663688219087707    0.11440397542696834    
  0.13769957636145275    0.16752319198682433    0.20438321793290926    0.24754602740350998    0.29382516909441825    
  0.3361607876196373    0.36358029316133667    0.3649694384584155    0.33629364644158466    0.2854236051386966    
  0.22859689183460766    0.18114736678551177    0.15136690260105612    0.14141889896963417    0.2098120297286492    
  0.21918511010317576    0.24601817976127538    0.2854236051386966    0.32748491152825615    0.3589074034692661    
  0.3687784793764454    0.35424619045858374    0.3209245015448157    0.27825050883701674    0.2345088353511943    
  0.1947475436061333    0.16113853753193397    0.1340507668205868    0.11291960977652576    0.09681825161781438    
  0.084800186715012    0.0760366662861282    0.06981990186120463    0.06554478540036225    0.0627239019611745    
  0.061011495561576555    0.06020132386931952    0.06020132386931954    0.061011495561576486    0.06272390196117444    
  0.0655447854003623    0.06981990186120463    0.07603666628612814    0.08480018671501198    0.0968182516178144    
  0.11291960977652571    0.1340507668205868    0.16113853753193397    0.19474754360613325    0.2345088353511943    
  0.27825050883701674    0.3209245015448157    0.35424619045858374    0.3687784793764454    0.3589074034692661    
  0.3274849115282562    0.2854236051386966    0.2460181797612754    0.21918511010317573    0.2098120297286492    
  0.2847646532045107    0.29177772601490726    0.31089754724800905    0.33629364644158455    0.3589074034692662    
  0.36926128726177154    0.36166504364179    0.33673610978806134    0.30014852363814043    0.259044254215662    
  0.2191072625029375    0.18364034825503994    0.1539762399551284    0.13019340785047515    0.11170356339480167    
  0.09767429706612625    0.08728311007863225    0.07980197115170856    0.0745872017036609    0.07107346705548676    
  0.0688018825185347    0.06744706892038813    0.06681384913805784    0.0668138491380579    0.0674470689203881    
  0.06880188251853464    0.07107346705548682    0.0745872017036609    0.07980197115170852    0.0872831100786322    
  0.09767429706612628    0.11170356339480164    0.13019340785047515    0.15397623995512844    0.18364034825503986    
  0.2191072625029375    0.259044254215662    0.30014852363814043    0.33673610978806123    0.3616650436417899    
  0.3692612872617716    0.3589074034692662    0.33629364644158455    0.3108975472480091    0.29177772601490726    
  0.2847646532045107    0.34301900726610135    0.3465679221805721    0.3554750192432099    0.3649694384584155    
  0.36877847937644553    0.36166504364179    0.34179861095959113    0.3113418884261163    0.274931663855405    
  0.2374248028887534    0.20242678061602853    0.1719604814101155    0.14676446959345923    0.12672591976865027    
  0.11127412001051237    0.09968879336404324    0.09127350772980075    0.08539404501744144    0.08146200536085721    
  0.07894408306517041    0.07740337146832388    0.07652970865165858    0.07613583969794227    0.0761358396979423    
  0.0765297086516585    0.07740337146832385    0.07894408306517045    0.08146200536085724    0.08539404501744136    
  0.09127350772980071    0.09968879336404327    0.11127412001051237    0.12672591976865027    0.14676446959345923    
  0.17196048141011544    0.20242678061602853    0.2374248028887534    0.274931663855405    0.3113418884261163    
  0.34179861095959113    0.36166504364179    0.36877847937644553    0.36496943845841556    0.35547501924320996    
  0.3465679221805721    0.34301900726610135    0.36627670895150166    0.36664454376120686    0.36666650288897573    
  0.36358029316133667    0.35424619045858374    0.3367361097880613    0.3113418884261163    0.28040754946750984    
  0.24723813261315214    0.21491893387665284    0.18565325547830655    0.16064313947677716    0.14025397318293054    
  0.12427419038090784    0.11218911030673638    0.10339874888905885    0.09732111367851815    0.09339683979997085    
  0.09107490716808705    0.08983823414836446    0.08925702573540736    0.08902362593825447    0.08895043182693987    
  0.0889504318269399    0.08902362593825439    0.08925702573540738    0.08983823414836455    0.09107490716808705    
  0.09339683979997086    0.09732111367851813    0.10339874888905888    0.11218911030673635    0.12427419038090784    
  0.14025397318293054    0.16064313947677714    0.1856532554783066    0.21491893387665284    0.2472381326131522    
  0.28040754946750984    0.3113418884261163    0.33673610978806134    0.35424619045858385    0.36358029316133667    
  0.36666650288897573    0.3666445437612068    0.36627670895150166    0.35260501176163056    0.3510391374804565    
  0.3459004109028705    0.33616078761963725    0.3209245015448157    0.30014852363814043    0.274931663855405    
  0.2472381326131522    0.21930005139732744    0.19306832196829185    0.16991066737448587    0.1505447170060882    
  0.1351242699747899    0.12341325592903456    0.1149809929519135    0.10934258576015787    0.10600543503480506    
  0.1044549585889014    0.10414948459181962    0.10456138390693916    0.10524154730227965    0.10586197692521057    
  0.10621960005664853    0.1062196000566485    0.10586197692521057    0.10524154730227968    0.10456138390693918    
  0.10414948459181962    0.10445495858890137    0.10600543503480506    0.10934258576015787    0.11498099295191347    
  0.12341325592903452    0.1351242699747899    0.15054471700608815    0.16991066737448587    0.19306832196829185    
  0.21930005139732744    0.2472381326131522    0.27493166385540496    0.30014852363814043    0.3209245015448158    
  0.3361607876196373    0.34590041090287044    0.3510391374804565    0.35260501176163056    0.31395507731786676    
  0.31174747119395496    0.3050601855989122    0.29382516909441825    0.27825050883701674    0.259044254215662    
  0.2374248028887533    0.21491893387665287    0.19306832196829185    0.1731700258937516    0.15611588439200158    
  0.14234763210764836    0.13191884811749488    0.12462459508524999    0.12013161847371827    0.11805032402306474    
  0.11793967826895574    0.11928786876017226    0.12152167492321266    0.12406256837117019    0.12640301649817656    
  0.12816151936759915    0.1290972631667334    0.1290972631667334    0.1281615193675991    0.12640301649817656    
  0.12406256837117025    0.12152167492321266    0.11928786876017224    0.11793967826895572    0.11805032402306477    
  0.12013161847371824    0.12462459508524996    0.13191884811749485    0.1423476321076483    0.15611588439200158    
  0.1731700258937516    0.19306832196829182    0.21491893387665287    0.23742480288875337    0.259044254215662    
  0.27825050883701674    0.29382516909441825    0.3050601855989122    0.31174747119395496    0.31395507731786676    
  0.26549378651232    0.2634444467707183    0.25737215129029234    0.24754602740350998    0.23450883535119424    
  0.2191072625029375    0.2024267806160285    0.18565325547830655    0.16991066737448585    0.15611588439200152    
  0.1448837781948934    0.1365095041572632    0.13102672614579505    0.12829917540933125    0.128087362642806    
  0.13006167987117506    0.13378092241400724    0.13868013377493418    0.14410015664608825    0.1493603798493941    
  0.15384856731798383    0.15709177960679618    0.15878538962036962    0.15878538962036964    0.15709177960679618    
  0.1538485673179838    0.14936037984939418    0.14410015664608825    0.13868013377493418    0.13378092241400721    
  0.13006167987117512    0.12808736264280599    0.1282991754093312    0.13102672614579505    0.13650950415726318    
  0.14488377819489343    0.15611588439200152    0.16991066737448585    0.18565325547830658    0.20242678061602853    
  0.2191072625029375    0.2345088353511943    0.24754602740350992    0.25737215129029234    0.26344444677071827    
  0.26549378651232    0.21802340110890447    0.21644192732871356    0.21179363229461545    0.20438321793290926    
  0.19474754360613328    0.18364034825503997    0.17196048141011544    0.16064313947677714    0.15054471700608815    
  0.14234763210764834    0.1365095041572632    0.13327066353326394    0.13270341809189026    0.134757620795305    
  0.13926425659046834    0.1459008435806472    0.1541586186889703    0.16334992648121516    0.17266604971495284    
  0.18127121937809745    0.18840791736128124    0.19348364175240365    0.19611292774975614    0.19611292774975614    
  0.19348364175240362    0.18840791736128124    0.18127121937809745    0.17266604971495284    0.16334992648121519    
  0.1541586186889703    0.14590084358064725    0.13926425659046832    0.13475762079530498    0.13270341809189026    
  0.1332706635332639    0.1365095041572632    0.14234763210764834    0.15054471700608815    0.16064313947677714    
  0.17196048141011547    0.18364034825503997    0.19474754360613333    0.20438321793290926    0.21179363229461545    
  0.21644192732871356    0.21802340110890447    0.1767611434488113    0.17568000005899942    0.17251676533570345    
  0.1675231919868243    0.161138537531934    0.15397623995512846    0.14676446959345923    0.14025397318293056    
  0.1351242699747899    0.13191884811749488    0.13102672614579505    0.13270341809189032    0.1370970561403538    
  0.1442385851115193    0.15398480735987302    0.16594883753122153    0.17947088268363587    0.1936574004837749    
  0.20747840696402    0.21989540048261727    0.22999222087158255    0.23707611578145374    0.24071578798985252    
  0.2407157879898526    0.2370761157814537    0.22999222087158255    0.21989540048261733    0.20747840696402    
  0.1936574004837749    0.17947088268363587    0.16594883753122153    0.15398480735987302    0.1442385851115193    
  0.1370970561403538    0.13270341809189026    0.13102672614579508    0.13191884811749488    0.1351242699747899    
  0.14025397318293056    0.14676446959345923    0.15397623995512846    0.16113853753193402    0.1675231919868244    
  0.17251676533570345    0.17568000005899942    0.1767611434488113    0.14319727068995994    0.14254392138253874    
  0.14064604938782665    0.13769957636145277    0.1340507668205868    0.13019340785047512    0.1267259197686503    
  0.1242741903809078    0.12341325592903456    0.12462459508524999    0.12829917540933125    0.13475762079530498    
  0.1442385851115193    0.15682621529034593    0.17233743744073712    0.1902292659069022    0.20958260657395084    
  0.229181873777972    0.24767538751365692    0.26378284031047833    0.27649408619448923    0.2851803257392584    
  0.28956115308852093    0.28956115308852093    0.2851803257392584    0.27649408619448923    0.2637828403104784    
  0.24767538751365692    0.229181873777972    0.20958260657395084    0.19022926590690226    0.1723374374407371    
  0.15682621529034593    0.14423858511151927    0.13475762079530493    0.12829917540933125    0.12462459508524999    
  0.12341325592903456    0.1242741903809078    0.1267259197686503    0.13019340785047512    0.13405076682058684    
  0.13769957636145275    0.1406460493878267    0.14254392138253874    0.14319727068995994    0.11696866004773065    
  0.11664937699060283    0.11574171233349446    0.11440397542696829    0.11291960977652571    0.11170356339480161    
  0.11127412001051235    0.11218911030673635    0.11498099295191347    0.12013161847371827    0.12808736264280604    
  0.13926425659046834    0.15398480735987302    0.17233743744073712    0.194011171676759    0.21817943925597277    
  0.2434886523886394    0.26819043739851506    0.29044095016894855    0.3087191721051281    0.3221886651612126    
  0.3307755466499045    0.3348780251999174    0.3348780251999175    0.3307755466499045    0.3221886651612126    
  0.3087191721051281    0.29044095016894855    0.26819043739851506    0.2434886523886394    0.21817943925597277    
  0.194011171676759    0.1723374374407371    0.15398480735987302    0.1392642565904683    0.12808736264280604    
  0.12013161847371827    0.11498099295191344    0.11218911030673633    0.11127412001051232    0.11170356339480161    
  0.11291960977652574    0.11440397542696831    0.1157417123334945    0.11664937699060283    0.11696866004773065    
  0.09698379762537644    0.09691511601857873    0.09675311726021867    0.09663688219087704    0.09681825161781443    
  0.09767429706612626    0.09968879336404328    0.10339874888905884    0.10934258576015787    0.11805032402306473    
  0.1300616798711751    0.14590084358064723    0.16594883753122153    0.19022926590690223    0.21817943925597283    
  0.2484779900421125    0.27900967751141087    0.30711078624274124    0.3302146776087774    0.3467393206887809    
  0.3567016586968972    0.3615619583007607    0.3633075651642953    0.36330756516429535    0.3615619583007607    
  0.3567016586968972    0.3467393206887809    0.3302146776087774    0.30711078624274124    0.27900967751141087    
  0.24847799004211257    0.21817943925597277    0.1902292659069022    0.16594883753122153    0.1459008435806472    
  0.1300616798711751    0.11805032402306473    0.10934258576015787    0.10339874888905888    0.09968879336404328    
  0.09767429706612626    0.09681825161781445    0.09663688219087704    0.0967531172602187    0.09691511601857869    
  0.09698379762537644    0.08202671304516232    0.08214403880674544    0.08253800694528435    0.08334199255475525    
  0.08480018671501206    0.08728311007863228    0.09127350772980075    0.09732111367851812    0.1060054350348051    
  0.11793967826895577    0.13378092241400727    0.15415861868897035    0.17947088268363587    0.2095826065739509    
  0.24348865238863945    0.27900967751141087    0.3127220151848522    0.3405197911874653    0.3590175937955323    
  0.3672166306900059    0.36722679251888646    0.36334067405824877    0.36002487026010865    0.36002487026010876    
  0.36334067405824877    0.36722679251888646    0.36721663069000593    0.3590175937955323    0.3405197911874653    
  0.3127220151848522    0.27900967751141087    0.2434886523886394    0.2095826065739509    0.17947088268363587    
  0.1541586186889703    0.13378092241400727    0.11793967826895577    0.1060054350348051    0.09732111367851815    
  0.09127350772980075    0.08728311007863226    0.08480018671501206    0.08334199255475518    0.08253800694528436    
  0.08214403880674541    0.08202671304516232    0.07103043946011875    0.07128629614048952    0.07209615969447034    
  0.07359583329123237    0.07603666628612817    0.07980197115170853    0.08539404501744136    0.09339683979997082    
  0.10445495858890139    0.11928786876017226    0.13868013377493416    0.16334992648121516    0.19365740048377492    
  0.229181873777972    0.26819043739851506    0.30711078624274124    0.3405197911874652    0.3624628638168855    
  0.3691786842279733    0.36161625701588485    0.34554546990301466    0.32895844573917826    0.3187714573247484    
  0.3187714573247485    0.32895844573917826    0.34554546990301466    0.3616162570158849    0.3691786842279733    
  0.3624628638168856    0.3405197911874653    0.30711078624274124    0.268190437398515    0.229181873777972    
  0.1936574004837749    0.16334992648121516    0.13868013377493416    0.11928786876017226    0.10445495858890136    
  0.09339683979997082    0.0853940450174414    0.07980197115170852    0.07603666628612814    0.0735958332912323    
  0.07209615969447034    0.07128629614048951    0.07103043946011875    0.06312480953028261    0.06348365693486227    
  0.06460383906359898    0.06662736519685991    0.06981990186120463    0.07458720170366089    0.08146200536085724    
  0.09107490716808703    0.10414948459181957    0.12152167492321263    0.14410015664608822    0.1726660497149529    
  0.20747840696401995    0.24767538751365692    0.29044095016894855    0.3302146776087774    0.35901759379553233    
  0.36917868422797323    0.3578395288494104    0.3297808102342158    0.2955496218568686    0.26633627903042606    
  0.2499484067372551    0.2499484067372552    0.26633627903042606    0.2955496218568686    0.3297808102342158    
  0.3578395288494104    0.3691786842279733    0.35901759379553233    0.3302146776087774    0.2904409501689485    
  0.24767538751365692    0.20747840696401995    0.17266604971495286    0.14410015664608822    0.12152167492321263    
  0.10414948459181958    0.09107490716808707    0.08146200536085721    0.07458720170366089    0.06981990186120463    
  0.06662736519685988    0.06460383906359898    0.0634836569348622    0.06312480953028261    0.05760004132120865    
  0.058034110855583416    0.059381474547251165    0.0617911175861729    0.0655447854003623    0.07107346705548671    
  0.07894408306517041    0.08983823414836446    0.10456138390693914    0.12406256837117022    0.14936037984939407    
  0.18127121937809748    0.21989540048261727    0.2637828403104784    0.3087191721051281    0.3467393206887809    
  0.3672166306900059    0.3616162570158849    0.32978081023421574    0.28186663520932737    0.23302423564371255    
  0.19566436705541926    0.1760637464498954    0.17606374644989548    0.19566436705541929    0.23302423564371258    
  0.28186663520932737    0.32978081023421574    0.3616162570158849    0.3672166306900059    0.3467393206887809    
  0.3087191721051281    0.2637828403104784    0.21989540048261727    0.18127121937809745    0.14936037984939407    
  0.12406256837117022    0.10456138390693911    0.08983823414836446    0.07894408306517041    0.07107346705548671    
  0.06554478540036232    0.06179111758617286    0.05938147454725121    0.05803411085558335    0.05760004132120865    
  0.05389471674449844    0.05438163043451063    0.055888710170833265    0.05857082040084181    0.06272390196117451    
  0.06880188251853464    0.07740337146832384    0.08925702573540731    0.10524154730227969    0.12640301649817656    
  0.1538485673179837    0.18840791736128124    0.22999222087158255    0.27649408619448934    0.3221886651612126    
  0.35670165869689713    0.36722679251888646    0.34554546990301466    0.29554962185686856    0.23302423564371255    
  0.1762442135584529    0.13654905495279684    0.11698420362767958    0.11698420362767964    0.13654905495279684    
  0.17624421355845293    0.23302423564371255    0.2955496218568686    0.34554546990301466    0.3672267925188865    
  0.3567016586968972    0.32218866516121253    0.27649408619448934    0.22999222087158255    0.18840791736128124    
  0.15384856731798371    0.12640301649817656    0.10524154730227965    0.08925702573540736    0.07740337146832381    
  0.06880188251853467    0.0627239019611745    0.058570820400841786    0.055888710170833265    0.05438163043451051    
  0.05389471674449844    0.05161245148175036    0.05213335784220523    0.05374310362016308    0.05660046433601633    
  0.06101149556157653    0.0674470689203881    0.0765297086516585    0.08902362593825451    0.1058619769252106    
  0.12816151936759915    0.15709177960679618    0.19348364175240373    0.23707611578145374    0.28518032573925844    
  0.3307755466499045    0.3615619583007607    0.3633406740582488    0.32895844573917826    0.266336279030426    
  0.1956643670554192    0.13654905495279693    0.09812673323950816    0.08019668634261592    0.08019668634261594    
  0.09812673323950816    0.13654905495279693    0.19566436705541923    0.266336279030426    0.32895844573917826    
  0.36334067405824877    0.3615619583007607    0.3307755466499045    0.2851803257392584    0.23707611578145374    
  0.19348364175240368    0.15709177960679618    0.12816151936759915    0.10586197692521054    0.08902362593825455    
  0.07652970865165852    0.0674470689203881    0.061011495561576576    0.05660046433601638    0.0537431036201631    
  0.05213335784220516    0.05161245148175036    0.05052118148840303    0.05105888411961516    0.05271929562541674    
  0.05566304725548771    0.06020132386931952    0.06681384913805785    0.07613583969794227    0.08895043182693983    
  0.10621960005664857    0.1290972631667334    0.15878538962036967    0.1961129277497562    0.24071578798985258    
  0.28956115308852093    0.3348780251999175    0.3633075651642953    0.36002487026010865    0.31877145732474843    
  0.2499484067372551    0.1760637464498955    0.11698420362767965    0.08019668634261594    0.06359833895768419    
  0.06359833895768427    0.08019668634261598    0.11698420362767971    0.1760637464498955    0.2499484067372551    
  0.3187714573247485    0.36002487026010865    0.3633075651642953    0.33487802519991744    0.2895611530885209    
  0.24071578798985252    0.19611292774975614    0.15878538962036967    0.1290972631667334    0.10621960005664853    
  0.08895043182693992    0.07613583969794227    0.06681384913805785    0.06020132386931952    0.05566304725548766    
  0.05271929562541671    0.05105888411961511    0.05052118148840303    0.05052118148840303    0.05105888411961513    
  0.05271929562541676    0.05566304725548768    0.0602013238693195    0.06681384913805785    0.07613583969794227    
  0.08895043182693987    0.10621960005664856    0.12909726316673345    0.15878538962036967    0.1961129277497562    
  0.24071578798985252    0.28956115308852093    0.3348780251999175    0.3633075651642953    0.36002487026010865    
  0.3187714573247484    0.24994840673725516    0.1760637464498955    0.11698420362767957    0.08019668634261591    
  0.06359833895768426    0.06359833895768426    0.08019668634261591    0.11698420362767965    0.1760637464498955    
  0.24994840673725516    0.3187714573247485    0.36002487026010865    0.3633075651642953    0.33487802519991744    
  0.2895611530885209    0.24071578798985252    0.19611292774975614    0.15878538962036967    0.12909726316673345    
  0.10621960005664856    0.08895043182693987    0.07613583969794227    0.06681384913805785    0.06020132386931954    
  0.05566304725548768    0.05271929562541676    0.05105888411961509    0.05052118148840303    0.05161245148175036    
  0.0521333578422052    0.05374310362016315    0.05660046433601638    0.061011495561576506    0.0674470689203881    
  0.07652970865165855    0.08902362593825451    0.10586197692521057    0.12816151936759915    0.15709177960679618    
  0.19348364175240373    0.23707611578145374    0.28518032573925844    0.3307755466499045    0.3615619583007607    
  0.36334067405824877    0.32895844573917826    0.26633627903042606    0.19566436705541923    0.1365490549527969    
  0.09812673323950816    0.08019668634261592    0.08019668634261598    0.09812673323950814    0.13654905495279693    
  0.19566436705541923    0.26633627903042606    0.32895844573917826    0.3633406740582488    0.3615619583007607    
  0.3307755466499045    0.2851803257392584    0.23707611578145374    0.19348364175240368    0.15709177960679618    
  0.12816151936759915    0.10586197692521057    0.08902362593825454    0.07652970865165852    0.0674470689203881    
  0.06101149556157653    0.056600464336016405    0.0537431036201631    0.05213335784220516    0.05161245148175036    
  0.05389471674449844    0.05438163043451061    0.05588871017083329    0.05857082040084181    0.06272390196117451    
  0.0688018825185347    0.07740337146832388    0.08925702573540734    0.10524154730227969    0.12640301649817656    
  0.15384856731798371    0.18840791736128126    0.22999222087158255    0.27649408619448934    0.3221886651612126    
  0.3567016586968972    0.3672267925188864    0.34554546990301466    0.2955496218568685    0.23302423564371255    
  0.1762442135584529    0.1365490549527968    0.11698420362767958    0.11698420362767964    0.13654905495279676    
  0.17624421355845293    0.23302423564371255    0.2955496218568685    0.34554546990301466    0.3672267925188865    
  0.3567016586968972    0.32218866516121253    0.2764940861944893    0.22999222087158255    0.18840791736128124    
  0.15384856731798374    0.12640301649817656    0.10524154730227965    0.08925702573540734    0.07740337146832385    
  0.06880188251853467    0.06272390196117454    0.058570820400841765    0.05588871017083329    0.05438163043451058    
  0.05389471674449844    0.05760004132120865    0.058034110855583416    0.059381474547251234    0.06179111758617286    
  0.0655447854003623    0.07107346705548671    0.07894408306517045    0.08983823414836449    0.10456138390693909    
  0.12406256837117018    0.14936037984939407    0.18127121937809748    0.21989540048261733    0.2637828403104784    
  0.3087191721051281    0.3467393206887809    0.3672166306900059    0.36161625701588485    0.32978081023421574    
  0.28186663520932737    0.23302423564371255    0.19566436705541923    0.17606374644989545    0.1760637464498955    
  0.19566436705541923    0.23302423564371258    0.28186663520932737    0.32978081023421574    0.3616162570158849    
  0.3672166306900059    0.3467393206887809    0.3087191721051281    0.2637828403104784    0.21989540048261727    
  0.18127121937809745    0.14936037984939407    0.12406256837117018    0.10456138390693911    0.08983823414836449    
  0.07894408306517048    0.07107346705548671    0.06554478540036228    0.06179111758617283    0.05938147454725121    
  0.05803411085558335    0.05760004132120865    0.06312480953028261    0.06348365693486227    0.06460383906359898    
  0.06662736519685991    0.06981990186120463    0.07458720170366089    0.08146200536085724    0.09107490716808703    
  0.10414948459181957    0.12152167492321263    0.14410015664608822    0.1726660497149529    0.20747840696401995    
  0.24767538751365692    0.29044095016894855    0.3302146776087774    0.35901759379553233    0.36917868422797323    