
     Program PWSCF v.6.5 starts on 20Mar2023 at 14: 6:54 

     This program is part of the open-source Quantum ESPRESSO suite
     for quantum simulation of materials; please cite
         "P. Giannozzi et al., J. Phys.:Condens. Matter 21 395502 (2009);
         "P. Giannozzi et al., J. Phys.:Condens. Matter 29 465901 (2017);
          URL http://www.quantum-espresso.org", 
     in publications or presentations arising from this work. More details at
     http://www.quantum-espresso.org/quote

     Serial version
     Reading input from /home/valeria/Documents/DFTPY/Fitting_densities/Si-fcc/DATA2/Si1.in
Warning: card &IONS ignored
Warning: card / ignored
Warning: card &CELL ignored
Warning: card / ignored
Warning: card &FCP ignored
Warning: card / ignored
Warning: card &RISM ignored
Warning: card / ignored

     Current dimensions of program PWSCF are:
     Max number of different atomic species (ntypx) = 10
     Max number of k-points (npk) =  40000
     Max angular momentum in pseudopotentials (lmaxx) =  3

     WARNING: check_stop already initialized
     Found symmetry operation: I + (  0.0000  0.5000  0.5000)
     This is a supercell, fractional translations are disabled
     Message from routine setup:
     using ibrav=0 with symmetry is DISCOURAGED, use correct ibrav instead

     G-vector sticks info
     --------------------
     sticks:   dense  smooth     PW     G-vecs:    dense   smooth      PW
     Sum         529     529    177                 9171     9171    1647



     bravais-lattice index     =            0
     lattice parameter (alat)  =       5.2807  a.u.
     unit-cell volume          =     147.2600 (a.u.)^3
     number of atoms/cell      =            4
     number of atomic types    =            1
     number of electrons       =        16.00
     number of Kohn-Sham states=           12
     kinetic-energy cutoff     =      60.0000  Ry
     charge density cutoff     =     240.0000  Ry
     convergence threshold     =      1.0E-06
     mixing beta               =       0.7000
     number of iterations used =            8  plain     mixing
     Exchange-correlation= LDA
                           (   1   1   0   0   0   0   0)

     celldm(1)=   5.280742  celldm(2)=   0.000000  celldm(3)=   0.000000
     celldm(4)=   0.000000  celldm(5)=   0.000000  celldm(6)=   0.000000

     crystal axes: (cart. coord. in units of alat)
               a(1) = (   1.000000   0.000000   0.000000 )  
               a(2) = (   0.000000   1.000000   0.000000 )  
               a(3) = (   0.000000   0.000000   1.000000 )  

     reciprocal axes: (cart. coord. in units 2 pi/alat)
               b(1) = (  1.000000  0.000000  0.000000 )  
               b(2) = (  0.000000  1.000000  0.000000 )  
               b(3) = (  0.000000  0.000000  1.000000 )  


     PseudoPot. # 1 for Si read from file:
     /home/valeria/Desktop/programs/dftpy/examples/ofpp/EAC/upf/blps/si.lda.upf
     MD5 check sum: 946fc5a8d23174f015515f8139e499ed
     Pseudo is Norm-conserving, Zval =  4.0
     DFTpy
     Using radial grid of 1601 points,  1 beta functions with: 
                l(1) =   0

     atomic species   valence    mass     pseudopotential
        Si             4.00    28.08000     Si( 1.00)

     48 Sym. Ops., with inversion, found



   Cartesian axes

     site n.     atom                  positions (alat units)
         1           Si  tau(   1) = (   0.0000000   0.0000000   0.0000000  )
         2           Si  tau(   2) = (   0.0000000   0.5000000   0.5000000  )
         3           Si  tau(   3) = (   0.5000000   0.0000000   0.5000000  )
         4           Si  tau(   4) = (   0.5000000   0.5000000   0.0000000  )

     number of k points=   220  Gaussian smearing, width (Ry)=  0.0050

     Number of k-points >= 100: set verbosity='high' to print them.

     Dense  grid:     9171 G-vectors     FFT dimensions: (  27,  27,  27)

     Estimated max dynamical RAM per process >      53.83 MB

     Initial potential from superposition of free atoms

     starting charge   15.99744, renormalised to   16.00000
     Starting wfcs are random

     total cpu time spent up to now is        4.2 secs

     Self-consistent Calculation

     iteration #  1     ecut=    60.00 Ry     beta= 0.70
     Davidson diagonalization with overlap
     ethr =  1.00E-02,  avg # of iterations =  7.1

     Threshold (ethr) on eigenvalues was too large:
     Diagonalizing with lowered threshold

     Davidson diagonalization with overlap
     ethr =  6.39E-04,  avg # of iterations =  1.2

     total cpu time spent up to now is       31.1 secs

     total energy              =     -29.54381803 Ry
     Harris-Foulkes estimate   =     -29.56850565 Ry
     estimated scf accuracy    <       0.10232147 Ry

     iteration #  2     ecut=    60.00 Ry     beta= 0.70
     Davidson diagonalization with overlap
     ethr =  6.40E-04,  avg # of iterations =  1.0

     total cpu time spent up to now is       37.9 secs

     total energy              =     -29.54386489 Ry
     Harris-Foulkes estimate   =     -29.54462140 Ry
     estimated scf accuracy    <       0.00778607 Ry

     iteration #  3     ecut=    60.00 Ry     beta= 0.70
     Davidson diagonalization with overlap
     ethr =  4.87E-05,  avg # of iterations =  2.4

     total cpu time spent up to now is       45.1 secs

     total energy              =     -29.54403959 Ry
     Harris-Foulkes estimate   =     -29.54403470 Ry
     estimated scf accuracy    <       0.00000770 Ry

     iteration #  4     ecut=    60.00 Ry     beta= 0.70
     Davidson diagonalization with overlap
     ethr =  4.81E-08,  avg # of iterations =  4.0

     total cpu time spent up to now is       59.3 secs

     total energy              =     -29.54406213 Ry
     Harris-Foulkes estimate   =     -29.54406233 Ry
     estimated scf accuracy    <       0.00000113 Ry

     iteration #  5     ecut=    60.00 Ry     beta= 0.70
     Davidson diagonalization with overlap
     ethr =  7.09E-09,  avg # of iterations =  1.0

     total cpu time spent up to now is       65.6 secs

     End of self-consistent calculation

     Number of k-points >= 100: set verbosity='high' to print the bands.

     the Fermi energy is    31.0411 ev

!    total energy              =     -29.54406214 Ry
     Harris-Foulkes estimate   =     -29.54406215 Ry
     estimated scf accuracy    <       0.00000004 Ry

     The total energy is the sum of the following terms:

     one-electron contribution =      38.93288545 Ry
     hartree contribution      =       0.30787629 Ry
     xc contribution           =     -13.21837485 Ry
     ewald contribution        =     -55.56627771 Ry
     smearing contrib. (-TS)   =      -0.00017133 Ry

     convergence has been achieved in   5 iterations

 Energies determined by pw2casino tool
 -------------------------------------
 Kinetic energy      11.257948336102562       au  =     22.515896672205123       Ry
 Local energy        8.2084943888626292       au  =     16.416988777725258       Ry
 Non-Local energy    0.0000000000000000       au  =     0.0000000000000000       Ry
 Ewald energy       -27.783138852848033       au  =    -55.566277705696066       Ry
 xc contribution    -6.6091874236079926       au  =    -13.218374847215985       Ry
 hartree energy     0.15393814633155614       au  =    0.30787629266311228       Ry
 Smearing (-TS)     -8.5665259107460409E-005  au  =    -1.7133051821492082E-004  Ry
 Total energy       -14.772031070391041       au  =    -29.544062140782081       Ry
 -------------------------------------
 Total energy0      -14.772031070418386       au  =    -29.544062140836772       Ry
 External energy0    0.0000000000000000       au  =     0.0000000000000000       Ry
 -------------------------------------


     Writing output data file ./si.save/
