
     Program PWSCF v.6.5 starts on 20Mar2023 at 14:24:18 

     This program is part of the open-source Quantum ESPRESSO suite
     for quantum simulation of materials; please cite
         "P. Giannozzi et al., J. Phys.:Condens. Matter 21 395502 (2009);
         "P. Giannozzi et al., J. Phys.:Condens. Matter 29 465901 (2017);
          URL http://www.quantum-espresso.org", 
     in publications or presentations arising from this work. More details at
     http://www.quantum-espresso.org/quote

     Serial version
     Reading input from /home/valeria/Documents/DFTPY/Fitting_densities/Si-fcc/DATA2/Si14.in
Warning: card &IONS ignored
Warning: card / ignored
Warning: card &CELL ignored
Warning: card / ignored
Warning: card &FCP ignored
Warning: card / ignored
Warning: card &RISM ignored
Warning: card / ignored

     Current dimensions of program PWSCF are:
     Max number of different atomic species (ntypx) = 10
     Max number of k-points (npk) =  40000
     Max angular momentum in pseudopotentials (lmaxx) =  3

     WARNING: check_stop already initialized
     Found symmetry operation: I + (  0.0000  0.5000  0.5000)
     This is a supercell, fractional translations are disabled
     Message from routine setup:
     using ibrav=0 with symmetry is DISCOURAGED, use correct ibrav instead

     G-vector sticks info
     --------------------
     sticks:   dense  smooth     PW     G-vecs:    dense   smooth      PW
     Sum         949     949    285                21631    21631    3575



     bravais-lattice index     =            0
     lattice parameter (alat)  =       7.0114  a.u.
     unit-cell volume          =     344.6793 (a.u.)^3
     number of atoms/cell      =            4
     number of atomic types    =            1
     number of electrons       =        16.00
     number of Kohn-Sham states=           12
     kinetic-energy cutoff     =      60.0000  Ry
     charge density cutoff     =     240.0000  Ry
     convergence threshold     =      1.0E-06
     mixing beta               =       0.7000
     number of iterations used =            8  plain     mixing
     Exchange-correlation= LDA
                           (   1   1   0   0   0   0   0)

     celldm(1)=   7.011405  celldm(2)=   0.000000  celldm(3)=   0.000000
     celldm(4)=   0.000000  celldm(5)=   0.000000  celldm(6)=   0.000000

     crystal axes: (cart. coord. in units of alat)
               a(1) = (   1.000000   0.000000   0.000000 )  
               a(2) = (   0.000000   1.000000   0.000000 )  
               a(3) = (   0.000000   0.000000   1.000000 )  

     reciprocal axes: (cart. coord. in units 2 pi/alat)
               b(1) = (  1.000000  0.000000  0.000000 )  
               b(2) = (  0.000000  1.000000  0.000000 )  
               b(3) = (  0.000000  0.000000  1.000000 )  


     PseudoPot. # 1 for Si read from file:
     /home/valeria/Desktop/programs/dftpy/examples/ofpp/EAC/upf/blps/si.lda.upf
     MD5 check sum: 946fc5a8d23174f015515f8139e499ed
     Pseudo is Norm-conserving, Zval =  4.0
     DFTpy
     Using radial grid of 1601 points,  1 beta functions with: 
                l(1) =   0

     atomic species   valence    mass     pseudopotential
        Si             4.00    28.08000     Si( 1.00)

     48 Sym. Ops., with inversion, found



   Cartesian axes

     site n.     atom                  positions (alat units)
         1           Si  tau(   1) = (   0.0000000   0.0000000   0.0000000  )
         2           Si  tau(   2) = (   0.0000000   0.5000000   0.5000000  )
         3           Si  tau(   3) = (   0.5000000   0.0000000   0.5000000  )
         4           Si  tau(   4) = (   0.5000000   0.5000000   0.0000000  )

     number of k points=   220  Gaussian smearing, width (Ry)=  0.0050

     Number of k-points >= 100: set verbosity='high' to print them.

     Dense  grid:    21631 G-vectors     FFT dimensions: (  36,  36,  36)

     Estimated max dynamical RAM per process >     125.91 MB

     Initial potential from superposition of free atoms

     starting charge   15.99744, renormalised to   16.00000
     Starting wfcs are random

     total cpu time spent up to now is        9.4 secs

     Self-consistent Calculation

     iteration #  1     ecut=    60.00 Ry     beta= 0.70
     Davidson diagonalization with overlap
     ethr =  1.00E-02,  avg # of iterations =  7.3

     Threshold (ethr) on eigenvalues was too large:
     Diagonalizing with lowered threshold

     Davidson diagonalization with overlap
     ethr =  1.27E-04,  avg # of iterations =  2.6

     total cpu time spent up to now is       88.9 secs

     total energy              =     -32.13941610 Ry
     Harris-Foulkes estimate   =     -32.14583764 Ry
     estimated scf accuracy    <       0.02012850 Ry

     iteration #  2     ecut=    60.00 Ry     beta= 0.70
     Davidson diagonalization with overlap
     ethr =  1.26E-04,  avg # of iterations =  1.0

     total cpu time spent up to now is      107.4 secs

     total energy              =     -32.13951890 Ry
     Harris-Foulkes estimate   =     -32.13985430 Ry
     estimated scf accuracy    <       0.00112391 Ry

     iteration #  3     ecut=    60.00 Ry     beta= 0.70
     Davidson diagonalization with overlap
     ethr =  7.02E-06,  avg # of iterations =  3.4

     total cpu time spent up to now is      130.7 secs

     total energy              =     -32.13960394 Ry
     Harris-Foulkes estimate   =     -32.13960356 Ry
     estimated scf accuracy    <       0.00000359 Ry

     iteration #  4     ecut=    60.00 Ry     beta= 0.70
     Davidson diagonalization with overlap
     ethr =  2.24E-08,  avg # of iterations =  3.5

     total cpu time spent up to now is      163.7 secs

     End of self-consistent calculation

     Number of k-points >= 100: set verbosity='high' to print the bands.

     the Fermi energy is    12.3740 ev

!    total energy              =     -32.13961096 Ry
     Harris-Foulkes estimate   =     -32.13961098 Ry
     estimated scf accuracy    <       0.00000006 Ry

     The total energy is the sum of the following terms:

     one-electron contribution =      19.74538350 Ry
     hartree contribution      =       0.08869286 Ry
     xc contribution           =     -10.12288457 Ry
     ewald contribution        =     -41.85055093 Ry
     smearing contrib. (-TS)   =      -0.00025183 Ry

     convergence has been achieved in   4 iterations

 Energies determined by pw2casino tool
 -------------------------------------
 Kinetic energy      6.4322102126211815       au  =     12.864420425242363       Ry
 Local energy        3.4404815397441482       au  =     6.8809630794882963       Ry
 Non-Local energy    0.0000000000000000       au  =     0.0000000000000000       Ry
 Ewald energy       -20.925275466418015       au  =    -41.850550932836029       Ry
 xc contribution    -5.0614422843053877       au  =    -10.122884568610775       Ry
 hartree energy      4.4346432024627395E-002  au  =     8.8692864049254791E-002  Ry
 Smearing (-TS)     -1.2591585770879111E-004  au  =    -2.5183171541758221E-004  Ry
 Total energy       -16.069805482107210       au  =    -32.139610964214420       Ry
 -------------------------------------
 Total energy0      -16.069805482191153       au  =    -32.139610964382307       Ry
 External energy0    0.0000000000000000       au  =     0.0000000000000000       Ry
 -------------------------------------


     Writing output data file ./si.save/
