
     Program PWSCF v.6.5 starts on 20Mar2023 at 14:10:12 

     This program is part of the open-source Quantum ESPRESSO suite
     for quantum simulation of materials; please cite
         "P. Giannozzi et al., J. Phys.:Condens. Matter 21 395502 (2009);
         "P. Giannozzi et al., J. Phys.:Condens. Matter 29 465901 (2017);
          URL http://www.quantum-espresso.org", 
     in publications or presentations arising from this work. More details at
     http://www.quantum-espresso.org/quote

     Serial version
     Reading input from /home/valeria/Documents/DFTPY/Fitting_densities/Si-fcc/DATA2/Si4.in
Warning: card &IONS ignored
Warning: card / ignored
Warning: card &CELL ignored
Warning: card / ignored
Warning: card &FCP ignored
Warning: card / ignored
Warning: card &RISM ignored
Warning: card / ignored

     Current dimensions of program PWSCF are:
     Max number of different atomic species (ntypx) = 10
     Max number of k-points (npk) =  40000
     Max angular momentum in pseudopotentials (lmaxx) =  3

     WARNING: check_stop already initialized
     Found symmetry operation: I + (  0.0000 -0.5000 -0.5000)
     This is a supercell, fractional translations are disabled
     Message from routine setup:
     using ibrav=0 with symmetry is DISCOURAGED, use correct ibrav instead

     G-vector sticks info
     --------------------
     sticks:   dense  smooth     PW     G-vecs:    dense   smooth      PW
     Sum         613     613    193                11513    11513    2007



     bravais-lattice index     =            0
     lattice parameter (alat)  =       5.6801  a.u.
     unit-cell volume          =     183.2626 (a.u.)^3
     number of atoms/cell      =            4
     number of atomic types    =            1
     number of electrons       =        16.00
     number of Kohn-Sham states=           12
     kinetic-energy cutoff     =      60.0000  Ry
     charge density cutoff     =     240.0000  Ry
     convergence threshold     =      1.0E-06
     mixing beta               =       0.7000
     number of iterations used =            8  plain     mixing
     Exchange-correlation= LDA
                           (   1   1   0   0   0   0   0)

     celldm(1)=   5.680126  celldm(2)=   0.000000  celldm(3)=   0.000000
     celldm(4)=   0.000000  celldm(5)=   0.000000  celldm(6)=   0.000000

     crystal axes: (cart. coord. in units of alat)
               a(1) = (   1.000000   0.000000   0.000000 )  
               a(2) = (   0.000000   1.000000   0.000000 )  
               a(3) = (   0.000000   0.000000   1.000000 )  

     reciprocal axes: (cart. coord. in units 2 pi/alat)
               b(1) = (  1.000000  0.000000  0.000000 )  
               b(2) = (  0.000000  1.000000  0.000000 )  
               b(3) = (  0.000000  0.000000  1.000000 )  


     PseudoPot. # 1 for Si read from file:
     /home/valeria/Desktop/programs/dftpy/examples/ofpp/EAC/upf/blps/si.lda.upf
     MD5 check sum: 946fc5a8d23174f015515f8139e499ed
     Pseudo is Norm-conserving, Zval =  4.0
     DFTpy
     Using radial grid of 1601 points,  1 beta functions with: 
                l(1) =   0

     atomic species   valence    mass     pseudopotential
        Si             4.00    28.08000     Si( 1.00)

     48 Sym. Ops., with inversion, found



   Cartesian axes

     site n.     atom                  positions (alat units)
         1           Si  tau(   1) = (   0.0000000   0.0000000   0.0000000  )
         2           Si  tau(   2) = (   0.0000000   0.5000000   0.5000000  )
         3           Si  tau(   3) = (   0.5000000   0.0000000   0.5000000  )
         4           Si  tau(   4) = (   0.5000000   0.5000000   0.0000000  )

     number of k points=   220  Gaussian smearing, width (Ry)=  0.0050

     Number of k-points >= 100: set verbosity='high' to print them.

     Dense  grid:    11513 G-vectors     FFT dimensions: (  30,  30,  30)

     Estimated max dynamical RAM per process >      67.14 MB

     Initial potential from superposition of free atoms

     starting charge   15.99744, renormalised to   16.00000
     Starting wfcs are random

     total cpu time spent up to now is        4.6 secs

     Self-consistent Calculation

     iteration #  1     ecut=    60.00 Ry     beta= 0.70
     Davidson diagonalization with overlap
     ethr =  1.00E-02,  avg # of iterations =  7.2

     Threshold (ethr) on eigenvalues was too large:
     Diagonalizing with lowered threshold

     Davidson diagonalization with overlap
     ethr =  4.34E-04,  avg # of iterations =  1.4

     total cpu time spent up to now is       38.5 secs

     total energy              =     -30.91765958 Ry
     Harris-Foulkes estimate   =     -30.93458439 Ry
     estimated scf accuracy    <       0.06940396 Ry

     iteration #  2     ecut=    60.00 Ry     beta= 0.70
     Davidson diagonalization with overlap
     ethr =  4.34E-04,  avg # of iterations =  1.0

     total cpu time spent up to now is       46.9 secs

     total energy              =     -30.91767112 Ry
     Harris-Foulkes estimate   =     -30.91835176 Ry
     estimated scf accuracy    <       0.00504554 Ry

     iteration #  3     ecut=    60.00 Ry     beta= 0.70
     Davidson diagonalization with overlap
     ethr =  3.15E-05,  avg # of iterations =  2.6

     total cpu time spent up to now is       55.4 secs

     total energy              =     -30.91781644 Ry
     Harris-Foulkes estimate   =     -30.91781254 Ry
     estimated scf accuracy    <       0.00000518 Ry

     iteration #  4     ecut=    60.00 Ry     beta= 0.70
     Davidson diagonalization with overlap
     ethr =  3.24E-08,  avg # of iterations =  3.9

     total cpu time spent up to now is       69.2 secs

     End of self-consistent calculation

     Number of k-points >= 100: set verbosity='high' to print the bands.

     the Fermi energy is    25.0339 ev

!    total energy              =     -30.91783634 Ry
     Harris-Foulkes estimate   =     -30.91783654 Ry
     estimated scf accuracy    <       0.00000083 Ry

     The total energy is the sum of the following terms:

     one-electron contribution =      32.85695134 Ry
     hartree contribution      =       0.19328226 Ry
     xc contribution           =     -12.30867601 Ry
     ewald contribution        =     -51.65927380 Ry
     smearing contrib. (-TS)   =      -0.00012013 Ry

     convergence has been achieved in   4 iterations

 Energies determined by pw2casino tool
 -------------------------------------
 Kinetic energy      9.6334275141452235       au  =     19.266855028290447       Ry
 Local energy        6.7950481535996703       au  =     13.590096307199341       Ry
 Non-Local energy    0.0000000000000000       au  =     0.0000000000000000       Ry
 Ewald energy       -25.829636901246680       au  =    -51.659273802493360       Ry
 xc contribution    -6.1543380037324118       au  =    -12.308676007464824       Ry
 hartree energy      9.6641127860831275E-002  au  =    0.19328225572166255       Ry
 Smearing (-TS)     -6.0063116659212500E-005  au  =    -1.2012623331842500E-004  Ry
 Total energy       -15.458918172432639       au  =    -30.917836344865279       Ry
 -------------------------------------
 Total energy0      -15.458918172490026       au  =    -30.917836344980053       Ry
 External energy0    0.0000000000000000       au  =     0.0000000000000000       Ry
 -------------------------------------


     Writing output data file ./si.save/
