#     DFTpy    
  CRYSTAL 
    
  PRIMVEC    
  1.2316806422567703    -2.1333334510878004    0.0    
  1.2316806422567703    2.1333334510878004    0.0    
  0.0    0.0    4.164414359862071    
  PRIMCOORD    
  2    1    
  Si    1.2316806422567703    0.7111111503626002    1.0411035899655203    
  Si    1.2316806422567703    -0.7111111503626002    3.123310769896551    
  BEGIN_BLOCK_DATAGRID_3D    
  3d_datagrid_density    
  BEGIN_DATAGRID_3D#0    
  25    25    41    
  0.0    0.0    0.0    
  1.2316806468509627    -2.1333334590451747    0.0    
  1.2316806468509627    2.1333334590451747    0.0    
  0.0    0.0    4.164414375395416    
  0.20212864118280538    0.20476714053932138    0.21257760529969122    0.22524469378251083    0.24223940713068032    
  0.2628033835685959    0.28590977907299525    0.3102096949703848    0.3340146324974693    0.35538784036407994    
  0.37237414811438935    0.383307022935672    0.387079766907874    0.383307022935672    0.37237414811438924    
  0.3553878403640799    0.33401463249746915    0.31020969497038475    0.28590977907299514    0.26280338356859584    
  0.24223940713068026    0.22524469378251083    0.21257760529969114    0.20476714053932138    0.20212864118280538    
  0.20476714053932138    0.20476714053932138    0.20999234502348127    0.22023612292734118    0.23508043740417048    
  0.25388337736622424    0.2757509212174397    0.29949055379853606    0.3235749430036891    0.34618008349182244    
  0.36535300103344703    0.379289275405342    0.38662162367258185    0.3866216236725818    0.37928927540534213    
  0.36535300103344703    0.34618008349182244    0.32357494300368905    0.2994905537985359    0.2757509212174397    
  0.25388337736622424    0.23508043740417037    0.22023612292734115    0.2099923450234813    0.20476714053932138    
  0.2125776052996913    0.2099923450234813    0.21257760529969114    0.22023612292734118    0.232668019616919    
  0.24935000522336748    0.26950645356132863    0.292073558162606    0.31566900586908736    0.3386099679261763    
  0.35903478282900364    0.3751363710366471    0.38543313678231617    0.38897361234093475    0.38543313678231617    
  0.3751363710366471    0.35903478282900375    0.3386099679261762    0.31566900586908725    0.29207355816260594    
  0.26950645356132863    0.24935000522336728    0.23266801961691888    0.22023612292734115    0.2125776052996913    
  0.22524469378251083    0.22023612292734124    0.22023612292734115    0.22524469378251083    0.23508043740417037    
  0.24935000522336742    0.2674046426016809    0.28830201208578854    0.3107859506487646    0.333307318735711    
  0.354125042993841    0.3715044977514292    0.3839615002326858    0.3904522603757084    0.3904522603757085    
  0.38396150023268577    0.37150449775142924    0.3541250429938408    0.33330731873571084    0.3107859506487646    
  0.2883020120857885    0.26740464260168084    0.24935000522336734    0.23508043740417042    0.22524469378251083    
  0.24223940713068023    0.23508043740417042    0.23266801961691894    0.23508043740417048    0.24223940713068026    
  0.2538833773662243    0.26950645356132863    0.28830201208578854    0.3091407674486546    0.3306000870127825    
  0.35106280606155893    0.36889542526171554    0.38266906424619623    0.39133547188685236    0.3942886055213112    
  0.39133547188685236    0.3826690642461962    0.3688954252617156    0.3510628060615588    0.3306000870127825    
  0.30914076744865454    0.2883020120857885    0.26950645356132863    0.25388337736622424    0.24223940713068023    
  0.26280338356859584    0.25388337736622424    0.24935000522336748    0.24935000522336748    0.25388337736622424    
  0.26280338356859584    0.27575092121743966    0.29207355816260594    0.3107859506487646    0.33060008701278243    
  0.35002924046950445    0.36755714669956996    0.3818390564116625    0.3918647738006449    0.3970153782104523    
  0.3970153782104523    0.39186477380064494    0.3818390564116625    0.36755714669957    0.35002924046950445    
  0.3306000870127825    0.3107859506487645    0.2920735581626059    0.2757509212174397    0.26280338356859584    
  0.28590977907299525    0.2757509212174397    0.2695064535613287    0.267404642601681    0.2695064535613287    
  0.2757509212174397    0.2859097790729952    0.29949055379853595    0.31566900586908736    0.33330731873571096    
  0.3510628060615589    0.36755714669956996    0.3815601916689614    0.3921319247298874    0.3986735205353942    
  0.4008831405746823    0.3986735205353942    0.3921319247298875    0.3815601916689614    0.36755714669957    
  0.3510628060615589    0.3333073187357109    0.31566900586908725    0.29949055379853595    0.28590977907299525    
  0.31020969497038475    0.29949055379853595    0.292073558162606    0.2883020120857887    0.2883020120857887    
  0.2920735581626061    0.29949055379853595    0.31020969497038475    0.3235749430036891    0.3386099679261762    
  0.35412504299384084    0.36889542526171554    0.38183905641166255    0.3921319247298874    0.3992348431808604    
  0.4028493193616662    0.4028493193616663    0.3992348431808604    0.39213192472988745    0.3818390564116625    
  0.3688954252617156    0.3541250429938408    0.33860996792617626    0.32357494300368905    0.31020969497038475    
  0.3340146324974691    0.3235749430036891    0.3156690058690874    0.31078595064876463    0.3091407674486547    
  0.3107859506487646    0.31566900586908736    0.32357494300368916    0.3340146324974692    0.34618008349182233    
  0.3590347828290037    0.3715044977514292    0.3826690642461962    0.39186477380064483    0.3986735205353941    
  0.4028493193616662    0.4042563567130771    0.4028493193616663    0.3986735205353941    0.3918647738006449    
  0.38266906424619623    0.37150449775142913    0.35903478282900364    0.3461800834918224    0.3340146324974691    
  0.35538784036407994    0.3461800834918224    0.3386099679261762    0.333307318735711    0.3306000870127825    
  0.3306000870127825    0.3333073187357109    0.3386099679261762    0.34618008349182244    0.3553878403640799    
  0.365353001033447    0.375136371036647    0.38396150023268566    0.39133547188685236    0.39701537821045224    
  0.4008831405746822    0.40284931936166624    0.4028493193616662    0.4008831405746823    0.39701537821045235    
  0.39133547188685236    0.3839615002326857    0.3751363710366471    0.36535300103344703    0.35538784036407994    
  0.37237414811438924    0.365353001033447    0.3590347828290036    0.35412504299384073    0.3510628060615588    
  0.35002924046950445    0.35106280606155876    0.3541250429938408    0.3590347828290036    0.3653530010334469    
  0.3723741481143892    0.37928927540534196    0.38543313678231605    0.3904522603757084    0.39428860552131106    
  0.3970153782104523    0.3986735205353942    0.39923484318086033    0.3986735205353941    0.39701537821045235    
  0.39428860552131106    0.3904522603757084    0.3854331367823161    0.3792892754053421    0.37237414811438924    
  0.38330702293567204    0.37928927540534196    0.37513637103664693    0.37150449775142896    0.3688954252617154    
  0.3675571466995698    0.36755714669956974    0.36889542526171537    0.371504497751429    0.37513637103664693    
  0.37928927540534196    0.383307022935672    0.3866216236725818    0.38897361234093475    0.3904522603757084    
  0.39133547188685236    0.39186477380064494    0.39213192472988745    0.3921319247298874    0.3918647738006449    
  0.3913354718868524    0.39045226037570835    0.38897361234093486    0.3866216236725818    0.38330702293567204    
  0.387079766907874    0.3866216236725817    0.3854331367823159    0.3839615002326855    0.38266906424619596    
  0.3818390564116622    0.3815601916689611    0.38183905641166227    0.382669064246196    0.3839615002326855    
  0.385433136782316    0.3866216236725817    0.387079766907874    0.3866216236725818    0.38543313678231617    
  0.38396150023268566    0.3826690642461962    0.38183905641166255    0.3815601916689614    0.38183905641166255    
  0.38266906424619623    0.38396150023268577    0.38543313678231617    0.38662162367258185    0.387079766907874    
  0.3833070229356721    0.3866216236725817    0.3889736123409346    0.3904522603757081    0.3913354718868521    
  0.39186477380064455    0.392131924729887    0.3921319247298871    0.3918647738006446    0.3913354718868521    
  0.39045226037570824    0.3889736123409345    0.3866216236725817    0.383307022935672    0.379289275405342    
  0.3751363710366471    0.3715044977514292    0.3688954252617156    0.36755714669957    0.36755714669957007    
  0.3688954252617156    0.3715044977514292    0.37513637103664704    0.37928927540534213    0.3833070229356721    
  0.37237414811438935    0.379289275405342    0.38543313678231594    0.3904522603757081    0.3942886055213108    
  0.3970153782104519    0.39867352053539373    0.39923484318086    0.39867352053539384    0.3970153782104519    
  0.39428860552131084    0.3904522603757081    0.38543313678231594    0.37928927540534196    0.37237414811438924    
  0.36535300103344703    0.3590347828290037    0.35412504299384084    0.3510628060615588    0.35002924046950445    
  0.3510628060615589    0.3541250429938408    0.35903478282900364    0.36535300103344703    0.37237414811438935    
  0.35538784036408005    0.365353001033447    0.3751363710366469    0.3839615002326855    0.3913354718868521    
  0.3970153782104519    0.4008831405746819    0.4028493193616658    0.4028493193616658    0.4008831405746819    
  0.3970153782104519    0.391335471886852    0.38396150023268555    0.37513637103664693    0.36535300103344703    
  0.35538784036408    0.34618008349182244    0.33860996792617626    0.333307318735711    0.3306000870127825    
  0.3306000870127825    0.3333073187357109    0.33860996792617626    0.34618008349182244    0.35538784036408005    
  0.3340146324974692    0.34618008349182244    0.3590347828290036    0.37150449775142896    0.38266906424619596    
  0.39186477380064455    0.39867352053539373    0.4028493193616658    0.40425635671307675    0.4028493193616657    
  0.39867352053539373    0.39186477380064455    0.38266906424619596    0.37150449775142896    0.3590347828290036    
  0.34618008349182244    0.3340146324974692    0.3235749430036891    0.31566900586908736    0.3107859506487646    
  0.30914076744865454    0.3107859506487646    0.31566900586908736    0.3235749430036891    0.3340146324974692    
  0.31020969497038475    0.3235749430036891    0.3386099679261762    0.3541250429938408    0.36889542526171537    
  0.3818390564116622    0.392131924729887    0.39923484318085994    0.40284931936166574    0.4028493193616657    
  0.39923484318085994    0.39213192472988695    0.38183905641166216    0.36889542526171537    0.3541250429938408    
  0.3386099679261762    0.3235749430036892    0.31020969497038475    0.29949055379853595    0.29207355816260605    
  0.2883020120857886    0.28830201208578854    0.29207355816260594    0.29949055379853606    0.31020969497038475    
  0.2859097790729953    0.29949055379853606    0.3156690058690874    0.333307318735711    0.3510628060615588    
  0.3675571466995698    0.3815601916689611    0.39213192472988706    0.39867352053539373    0.40088314057468183    
  0.39867352053539373    0.39213192472988695    0.3815601916689611    0.36755714669956974    0.3510628060615588    
  0.333307318735711    0.3156690058690874    0.299490553798536    0.28590977907299525    0.2757509212174397    
  0.26950645356132863    0.2674046426016809    0.26950645356132863    0.2757509212174397    0.2859097790729953    
  0.2628033835685959    0.27575092121743977    0.2920735581626061    0.3107859506487647    0.33060008701278254    
  0.35002924046950434    0.3675571466995698    0.3818390564116622    0.39186477380064455    0.3970153782104519    
  0.3970153782104519    0.39186477380064455    0.38183905641166216    0.36755714669956974    0.35002924046950434    
  0.3306000870127825    0.31078595064876463    0.29207355816260616    0.2757509212174397    0.2628033835685959    
  0.25388337736622424    0.24935000522336737    0.24935000522336742    0.2538833773662243    0.2628033835685959    
  0.24223940713068023    0.25388337736622435    0.2695064535613288    0.28830201208578876    0.3091407674486547    
  0.33060008701278254    0.35106280606155876    0.3688954252617154    0.382669064246196    0.39133547188685197    
  0.3942886055213108    0.3913354718868519    0.38266906424619584    0.36889542526171526    0.35106280606155876    
  0.3306000870127825    0.30914076744865465    0.2883020120857887    0.26950645356132874    0.2538833773662243    
  0.24223940713068032    0.23508043740417042    0.23266801961691894    0.23508043740417042    0.24223940713068023    
  0.22524469378251083    0.23508043740417048    0.24935000522336756    0.26740464260168106    0.2883020120857887    
  0.31078595064876463    0.333307318735711    0.3541250429938408    0.37150449775142896    0.38396150023268544    
  0.3904522603757081    0.39045226037570807    0.3839615002326854    0.3715044977514289    0.35412504299384073    
  0.33330731873571096    0.31078595064876463    0.2883020120857887    0.267404642601681    0.24935000522336756    
  0.23508043740417053    0.22524469378251083    0.22023612292734118    0.2202361229273413    0.22524469378251083    
  0.2125776052996913    0.22023612292734138    0.232668019616919    0.24935000522336753    0.2695064535613287    
  0.2920735581626062    0.3156690058690874    0.33860996792617626    0.3590347828290036    0.3751363710366469    
  0.3854331367823159    0.3889736123409345    0.3854331367823159    0.3751363710366469    0.3590347828290036    
  0.33860996792617615    0.3156690058690874    0.2920735581626061    0.2695064535613287    0.24935000522336756    
  0.23266801961691902    0.22023612292734124    0.21257760529969122    0.20999234502348124    0.2125776052996913    
  0.20476714053932138    0.20999234502348124    0.2202361229273413    0.23508043740417048    0.25388337736622435    
  0.27575092121743977    0.29949055379853606    0.32357494300368916    0.34618008349182244    0.365353001033447    
  0.379289275405342    0.3866216236725817    0.3866216236725817    0.37928927540534185    0.3653530010334469    
  0.3461800834918224    0.3235749430036891    0.29949055379853595    0.2757509212174397    0.25388337736622435    
  0.23508043740417048    0.22023612292734124    0.2099923450234813    0.20476714053932138    0.20476714053932138    
  0.20212864118280538    0.20476714053932138    0.21257760529969122    0.22524469378251083    0.24223940713068032    
  0.2628033835685959    0.28590977907299525    0.3102096949703848    0.3340146324974693    0.35538784036407994    
  0.37237414811438935    0.383307022935672    0.387079766907874    0.383307022935672    0.37237414811438924    
  0.3553878403640799    0.33401463249746915    0.31020969497038475    0.28590977907299514    0.26280338356859584    
  0.24223940713068026    0.22524469378251083    0.21257760529969114    0.20476714053932138    0.20212864118280538    
  0.20581435515559093    0.20845446764031078    0.21627551383295332    0.22897190069197357    0.2460137293282964    
  0.2666240891023632    0.2897472345873247    0.3140103539033255    0.33771887593486605    0.3589525264954083    
  0.37579135559895355    0.386611804980758    0.39034251190789987    0.386611804980758    0.3757913555989535    
  0.35895252649540826    0.337718875934866    0.31401035390332543    0.28974723458732465    0.2666240891023631    
  0.24601372932829635    0.22897190069197357    0.21627551383295326    0.20845446764031078    0.20581435515559093    
  0.20845446764031073    0.20845446764031078    0.21354364947497892    0.2235041978417188    0.237904010998873    
  0.25609594212242515    0.2771993671799335    0.30005940438804435    0.32321153204816006    0.3449148529245761    
  0.3633081769751    0.3766716785019779    0.38370112845993654    0.3837011284599365    0.37667167850197797    
  0.36330817697509993    0.34491485292457613    0.32321153204816    0.30005940438804424    0.2771993671799335    
  0.2560959421224252    0.2379040109988729    0.22350419784171874    0.21354364947497892    0.20845446764031073    
  0.2162755138329534    0.213827831355319    0.21627551383295326    0.2235041978417188    0.23517883459269828    
  0.2507582898103049    0.2694953003795508    0.29040816641798073    0.31224025825927626    0.33345997139802935    
  0.35236111647686713    0.3672739029593294    0.3768182171221244    0.3801015931168953    0.3768182171221244    
  0.3672739029593294    0.3523611164768672    0.33345997139802924    0.3122402582592762    0.29040816641798056    
  0.26949530037955066    0.25075828981030474    0.2351788345926981    0.22350419784171874    0.2162755138329534    
  0.22897190069197357    0.2243940961793419    0.22439409617934178    0.22897190069197357    0.2379040109988729    
  0.2507582898103049    0.2669047998232326    0.2855034699365592    0.3054729815995352    0.3254798680314637    
  0.34400359175349243    0.359502636330626    0.370635835372845    0.37644574436443173    0.37644574436443184    
  0.37063583537284495    0.35950263633062607    0.34400359175349227    0.3254798680314636    0.30547298159953507    
  0.28550346993655906    0.26690479982323256    0.25075828981030474    0.23790401099887296    0.22897190069197357    
  0.2460137293282963    0.2397567210706782    0.23763589759683565    0.23975672107067825    0.24601372932829646    
  0.2560959421224252    0.26949530037955066    0.2855034699365592    0.30319450179283947    0.32141712761407126    
  0.3388405314927549    0.3540838464275194    0.3659045802619682    0.37336596707272196    0.37591296438029553    
  0.37336596707272196    0.36590458026196815    0.3540838464275194    0.3388405314927548    0.3214171276140712    
  0.3031945017928394    0.28550346993655906    0.2694953003795507    0.25609594212242515    0.2460137293282963    
  0.2666240891023631    0.259257490404936    0.2554794997157842    0.2554794997157842    0.25925749040493595    
  0.26662408910236307    0.2771993671799334    0.2904081664179807    0.3054729815995352    0.32141712761407115    
  0.3371042826345831    0.35133799942063126    0.3630119742927327    0.3712555064873805    0.3755078664449348    
  0.3755078664449348    0.37125550648738054    0.3630119742927327    0.3513379994206313    0.3371042826345831    
  0.32141712761407126    0.30547298159953507    0.29040816641798056    0.27719936717993343    0.2666240891023631    
  0.2897472345873247    0.2819397612584673    0.27708275302671587    0.27543558432613785    0.2770827530267158    
  0.28193976125846737    0.28974723458732465    0.30005940438804424    0.31224025825927626    0.3254798680314637    
  0.33884053149275484    0.3513379994206313    0.36204940949318715    0.37021792264368325    0.37531515282836736    
  0.3770451835645346    0.37531515282836736    0.3702179226436834    0.36204940949318715    0.3513379994206313    
  0.33884053149275484    0.32547986803146367    0.3122402582592762    0.30005940438804424    0.2897472345873247    
  0.3140103539033255    0.3065196845354806    0.30125102740406084    0.2985370995341122    0.2985370995341122    
  0.30125102740406096    0.3065196845354806    0.31401035390332543    0.32321153204816    0.33345997139802924    
  0.3440035917534923    0.3540838464275194    0.3630119742927327    0.37021792264368325    0.37526826889310716    
  0.37786876102668676    0.3778687610266869    0.37526826889310716    0.37021792264368336    0.3630119742927327    
  0.3540838464275194    0.3440035917534923    0.3334599713980293    0.32321153204816    0.3140103539033255    
  0.337718875934866    0.33137685873418127    0.3264379733447836    0.32331406184501954    0.3222468584074017    
  0.32331406184501954    0.3264379733447835    0.33137685873418127    0.33771887593486605    0.3449148529245761    
  0.35236111647686713    0.35950263633062596    0.36590458026196815    0.37125550648738037    0.3753151528283673    
  0.37786876102668676    0.3787430985958341    0.3778687610266868    0.37531515282836736    0.3712555064873804    
  0.36590458026196815    0.35950263633062596    0.3523611164768671    0.3449148529245761    0.337718875934866    
  0.3589525264954083    0.35461514555911494    0.35080181901084295    0.3479816026003999    0.3464887160885514    
  0.3464887160885514    0.34798160260039984    0.350801819010843    0.354615145559115    0.3589525264954083    
  0.3633081769750999    0.36727390295932927    0.37063583537284484    0.37336596707272196    0.3755078664449347    
  0.3770451835645346    0.3778687610266868    0.3778687610266868    0.37704518356453465    0.3755078664449348    
  0.37336596707272196    0.3706358353728449    0.3672739029593293    0.36330817697509993    0.3589525264954083    
  0.3757913555989535    0.3742445735762572    0.37236189445491213    0.3705962333513914    0.3693591885999818    
  0.36891708459817585    0.36935918859998174    0.37059623335139147    0.3723618944549122    0.3742445735762571    
  0.3757913555989535    0.3766716785019779    0.37681821712212427    0.37644574436443173    0.3759129643802955    
  0.3755078664449348    0.37531515282836736    0.37526826889310716    0.3753151528283673    0.3755078664449348    
  0.3759129643802955    0.37644574436443173    0.3768182171221243    0.3766716785019779    0.3757913555989535    
  0.38661180498075803    0.3884613113078764    0.38925497906697776    0.38930263777240337    0.38902999025132545    
  0.3887967378433216    0.38879673784332147    0.38902999025132545    0.3893026377724034    0.3892549790669778    
  0.3884613113078764    0.386611804980758    0.3837011284599365    0.3801015931168953    0.37644574436443173    
  0.37336596707272196    0.3712555064873805    0.37021792264368336    0.3702179226436833    0.3712555064873804    
  0.373365967072722    0.37644574436443173    0.3801015931168954    0.3837011284599365    0.38661180498075803    
  0.39034251190789987    0.3959225410723543    0.4000037971989514    0.4025955630146612    0.4040167188692192    
  0.40466882346791655    0.40485067114737927    0.4046688234679166    0.4040167188692192    0.4025955630146612    
  0.4000037971989515    0.3959225410723543    0.39034251190789987    0.3837011284599365    0.3768182171221244    
  0.37063583537284484    0.36590458026196815    0.3630119742927327    0.3620494094931872    0.3630119742927327    
  0.36590458026196815    0.37063583537284495    0.3768182171221244    0.38370112845993654    0.39034251190789987    
  0.3866118049807581    0.3959225410723543    0.4036891666813093    0.409478893204731    0.41333747557712947    
  0.4155940532966772    0.4166123368155272    0.41661233681552723    0.4155940532966772    0.41333747557712947    
  0.4094788932047311    0.4036891666813092    0.3959225410723543    0.386611804980758    0.3766716785019779    
  0.36727390295932943    0.359502636330626    0.3540838464275194    0.3513379994206313    0.3513379994206314    
  0.3540838464275194    0.359502636330626    0.3672739029593294    0.37667167850197797    0.3866118049807581    
  0.3757913555989536    0.3884613113078765    0.40000379719895146    0.409478893204731    0.4164922346539272    
  0.42112578906619813    0.42370033365017945    0.4245189308938881    0.4237003336501795    0.42112578906619813    
  0.4164922346539272    0.409478893204731    0.40000379719895146    0.3884613113078764    0.3757913555989535    
  0.36330817697509993    0.3523611164768672    0.3440035917534923    0.33884053149275484    0.33710428263458303    
  0.33884053149275484    0.34400359175349227    0.3523611164768672    0.36330817697509993    0.3757913555989536    
  0.35895252649540843    0.3742445735762572    0.38925497906697776    0.4025955630146612    0.41333747557712947    
  0.4211257890661982    0.4260571456458411    0.4284154766872428    0.4284154766872428    0.4260571456458411    
  0.4211257890661982    0.41333747557712947    0.40259556301466126    0.3892549790669778    0.3742445735762572    
  0.3589525264954084    0.34491485292457613    0.33345997139802924    0.3254798680314637    0.32141712761407126    
  0.32141712761407126    0.32547986803146367    0.3334599713980293    0.34491485292457613    0.35895252649540843    
  0.33771887593486605    0.35461514555911494    0.3723618944549122    0.38930263777240337    0.40401671886921914    
  0.41559405329667715    0.42370033365017945    0.4284154766872428    0.42995298979652147    0.42841547668724267    
  0.42370033365017945    0.4155940532966772    0.40401671886921914    0.3893026377724034    0.3723618944549122    
  0.35461514555911494    0.33771887593486605    0.32321153204816006    0.3122402582592763    0.3054729815995351    
  0.3031945017928394    0.3054729815995352    0.3122402582592763    0.32321153204816006    0.33771887593486605    
  0.3140103539033255    0.33137685873418127    0.350801819010843    0.37059623335139147    0.38902999025132545    
  0.4046688234679166    0.4166123368155272    0.4245189308938881    0.42841547668724267    0.42841547668724267    
  0.4245189308938881    0.4166123368155272    0.4046688234679165    0.38902999025132545    0.37059623335139147    
  0.35080181901084306    0.3313768587341813    0.31401035390332543    0.30005940438804424    0.2904081664179808    
  0.28550346993655923    0.2855034699365591    0.2904081664179807    0.30005940438804435    0.3140103539033255    
  0.2897472345873248    0.3065196845354807    0.32643797334478364    0.3479816026003999    0.3693591885999818    
  0.3887967378433216    0.40485067114737927    0.41661233681552723    0.42370033365017945    0.426057145645841    
  0.42370033365017945    0.4166123368155271    0.4048506711473792    0.38879673784332147    0.3693591885999818    
  0.3479816026003999    0.3264379733447836    0.3065196845354807    0.2897472345873247    0.27719936717993354    
  0.2694953003795507    0.26690479982323256    0.2694953003795507    0.27719936717993354    0.2897472345873248    
  0.2666240891023632    0.2819397612584674    0.30125102740406096    0.3233140618450196    0.3464887160885515    
  0.36891708459817585    0.3887967378433216    0.4046688234679166    0.41559405329667715    0.42112578906619813    
  0.42112578906619813    0.41559405329667715    0.40466882346791655    0.38879673784332147    0.3689170845981758    
  0.3464887160885514    0.32331406184501954    0.30125102740406107    0.2819397612584673    0.2666240891023632    
  0.2560959421224252    0.2507582898103048    0.2507582898103049    0.2560959421224252    0.2666240891023632    
  0.24601372932829635    0.259257490404936    0.2770827530267159    0.29853709953411234    0.3222468584074017    
  0.3464887160885515    0.3693591885999818    0.38902999025132545    0.4040167188692192    0.41333747557712935    
  0.4164922346539272    0.4133374755771293    0.4040167188692191    0.3890299902513253    0.36935918859998174    
  0.34648871608855136    0.32224685840740164    0.2985370995341123    0.27708275302671587    0.259257490404936    
  0.2460137293282965    0.23790401099887296    0.2351788345926982    0.23790401099887296    0.24601372932829635    
  0.22897190069197362    0.23975672107067825    0.2554794997157844    0.27543558432613796    0.2985370995341123    
  0.32331406184501954    0.3479816026003999    0.3705962333513914    0.3893026377724034    0.40259556301466115    
  0.409478893204731    0.40947889320473096    0.4025955630146611    0.38930263777240326    0.37059623335139136    
  0.34798160260039984    0.32331406184501954    0.2985370995341123    0.27543558432613785    0.2554794997157844    
  0.23975672107067827    0.22897190069197357    0.2235041978417188    0.22350419784171888    0.22897190069197362    
  0.2162755138329534    0.22439409617934203    0.2376358975968357    0.2554794997157843    0.27708275302671587    
  0.30125102740406107    0.32643797334478364    0.35080181901084306    0.3723618944549122    0.3892549790669778    
  0.4000037971989514    0.4036891666813092    0.40000379719895135    0.3892549790669777    0.37236189445491213    
  0.35080181901084295    0.3264379733447835    0.30125102740406096    0.2770827530267158    0.2554794997157844    
  0.23763589759683573    0.22439409617934192    0.21627551383295335    0.21354364947497892    0.2162755138329534    
  0.20845446764031078    0.213827831355319    0.22439409617934197    0.23975672107067825    0.259257490404936    
  0.2819397612584674    0.3065196845354807    0.3313768587341813    0.354615145559115    0.3742445735762572    
  0.38846131130787653    0.3959225410723543    0.3959225410723543    0.3884613113078763    0.3742445735762571    
  0.35461514555911494    0.3313768587341812    0.3065196845354806    0.2819397612584673    0.259257490404936    
  0.23975672107067825    0.2243940961793419    0.213827831355319    0.20845446764031075    0.20845446764031078    
  0.20581435515559093    0.20845446764031078    0.21627551383295332    0.22897190069197357    0.2460137293282964    
  0.2666240891023632    0.2897472345873247    0.3140103539033255    0.33771887593486605    0.3589525264954083    
  0.37579135559895355    0.386611804980758    0.39034251190789987    0.386611804980758    0.3757913555989535    
  0.35895252649540826    0.337718875934866    0.31401035390332543    0.28974723458732465    0.2666240891023631    
  0.24601372932829635    0.22897190069197357    0.21627551383295326    0.20845446764031078    0.20581435515559093    
  0.216646189339035    0.21929534200836104    0.22715549795513013    0.23993925605015826    0.25710618592741336    
  0.2778232714641634    0.300951008193851    0.3250452711559193    0.3483912637645264    0.3691203295973974    
  0.3854305883894063    0.39584839083428924    0.3994284444208883    0.39584839083428924    0.3854305883894062    
  0.3691203295973973    0.3483912637645262    0.32504527115591925    0.3009510081938509    0.2778232714641633    
  0.25710618592741336    0.23993925605015826    0.22715549795513004    0.21929534200836104    0.216646189339035    