#     DFTpy    
  CRYSTAL 
    
  PRIMVEC    
  1.7280295577930902    -2.9930349910784004    0.0    
  1.7280295577930902    2.9930349910784004    0.0    
  0.0    0.0    5.842611191448281    
  PRIMCOORD    
  2    1    
  Si    1.7280295577930902    0.99767833035947    1.4606527978620703    
  Si    1.7280295577930902    -0.99767833035947    4.381958393586211    
  BEGIN_BLOCK_DATAGRID_3D    
  3d_datagrid_density    
  BEGIN_DATAGRID_3D#0    
  37    37    61    
  0.0    0.0    0.0    
  1.7280295642386736    -2.993035002242478    0.0    
  1.7280295642386736    2.993035002242478    0.0    
  0.0    0.0    5.842611213241333    
  0.03346499192743461    0.03371190803944941    0.03445590614943285    0.035704586480547626    0.03746443384940908    
  0.039734667642312316    0.04250329245488345    0.045746036356810425    0.049425385942418965    0.053485776497078225    
  0.05784439855076651    0.06238226232904988    0.06694165284888239    0.07133224388334004    0.07534333055578181    
  0.07875893198793091    0.08137534252549539    0.0830220947102271    0.08358453817191651    0.08302209471022712    
  0.08137534252549543    0.07875893198793103    0.07534333055578206    0.07133224388334039    0.06694165284888287    
  0.06238226232905048    0.05784439855076719    0.05348577649707893    0.049425385942419665    0.04574603635681101    
  0.04250329245488391    0.03973466764231262    0.037464433849409284    0.03570458648054782    0.034455906149432926    
  0.03371190803944944    0.03346499192743461    0.03371190803944942    0.033711908039449436    0.03420740133392729    
  0.03520404867068334    0.036709416763578515    0.038727157325514426    0.041251845603116906    0.04426638779480585    
  0.04774100900164608    0.05163028448175155    0.05586578618992786    0.06034655199818644    0.06493317931715024    
  0.06944988074633507    0.07369396985830096    0.07744943746568618    0.08050293698942486    0.08266311674865393    
  0.08378330070487942    0.08378330070487938    0.08266311674865402    0.08050293698942489    0.07744943746568633    
  0.07369396985830129    0.06944988074633551    0.06493317931715074    0.06034655199818704    0.05586578618992854    
  0.05163028448175223    0.0477410090016467    0.044266387794806406    0.041251845603117274    0.038727157325514704    
  0.0367094167635787    0.035204048670683497    0.03420740133392733    0.03371190803944942    0.03445590614943287    
  0.03420740133392732    0.03445590614943288    0.03520404867068334    0.036458186114758755    0.038224373518293    
  0.04050340159797962    0.04328676331095245    0.04655404127251675    0.05026987285944495    0.05437800655157766    
  0.05879267654581945    0.06339134359738617    0.06801352661773609    0.07246700269736457    0.0765390113747431    
  0.08001024877718246    0.08267221332341758    0.08434912828203787    0.08492215630436582    0.08434912828203793    
  0.08267221332341762    0.08001024877718252    0.0765390113747434    0.07246700269736495    0.06801352661773656    
  0.06339134359738673    0.058792676545820134    0.05437800655157839    0.050269872859445605    0.046554041272517395    
  0.043286763310952894    0.04050340159797992    0.038224373518293206    0.03645818611475894    0.03520404867068348    
  0.03445590614943287    0.03570458648054775    0.03520404867068346    0.03520404867068344    0.03570458648054767    
  0.03670941676357856    0.038224373518293046    0.04025420395624654    0.04279853755182872    0.045847672330775545    
  0.049377942528119695    0.05334552710420757    0.057678476382941574    0.062269336621982564    0.06697222701021505    
  0.07160641119113648    0.0759650822125354    0.0798271503352806    0.0829721388002887    0.08520014482363547    
  0.08635661419397475    0.08635661419397479    0.08520014482363547    0.08297213880028874    0.07982715033528077    
  0.0759650822125357    0.07160641119113687    0.06697222701021556    0.062269336621983244    0.05767847638294224    
  0.05334552710420829    0.049377942528120375    0.045847672330776086    0.04279853755182911    0.04025420395624679    
  0.038224373518293234    0.03670941676357866    0.03570458648054775    0.03746443384940924    0.03670941676357864    
  0.03645818611475882    0.03670941676357856    0.037464433849409146    0.038727157325514544    0.04050340159797965    
  0.04279853755182871    0.045613064157627926    0.04893630806729425    0.052738616889994726    0.05696269182954558    
  0.06151586834761908    0.06626622073191277    0.0710444794073576    0.07565112326440844    0.07986651038557638    
  0.08346350837719063    0.08622466708988155    0.08796545841630558    0.08856057508950742    0.08796545841630563    
  0.08622466708988154    0.08346350837719074    0.07986651038557652    0.07565112326440875    0.07104447940735807    
  0.06626622073191335    0.06151586834761976    0.05696269182954625    0.05273861688999549    0.04893630806729488    
  0.0456130641576285    0.04279853755182911    0.04050340159797993    0.038727157325514655    0.03746443384940924    
  0.03973466764231257    0.03872715732551461    0.03822437351829318    0.03822437351829312    0.038727157325514544    
  0.03973466764231243    0.04125184560311703    0.04328676331095259    0.04584767233077562    0.0489363080672943    
  0.05253842382932223    0.056613369061535065    0.06108497169539149    0.06583629428509832    0.07071014713260063    
  0.07551510963688782    0.08003492724148148    0.08403983671603886    0.087301135050006    0.08961151796785617    
  0.09081073163967203    0.09081073163967203    0.08961151796785617    0.08730113505000604    0.08403983671603898    
  0.0800349272414816    0.07551510963688812    0.07071014713260117    0.06583629428509892    0.06108497169539216    
  0.05661336906153585    0.05253842382932289    0.04893630806729484    0.04584767233077608    0.043286763310952894    
  0.04125184560311722    0.03973466764231257    0.04250329245488381    0.04125184560311716    0.04050340159797982    
  0.04025420395624664    0.04050340159797975    0.041251845603117065    0.042503292454883664    0.04426638779480606    
  0.04655404127251694    0.04937794252811979    0.052738616889994754    0.05661336906153509    0.060945069757555    
  0.06563465768720848    0.07053955978458999    0.0754784156190886    0.08024020638320364    0.0845953789164821    
  0.0883088183876497    0.09115710168213322    0.09295167398818395    0.09356495929188732    0.09295167398818394    
  0.09115710168213324    0.08830881838764977    0.08459537891648221    0.08024020638320385    0.07547841561908893    
  0.07053955978459052    0.06563465768720911    0.06094506975755571    0.056613369061535745    0.052738616889995406    
  0.049377942528120305    0.04655404127251734    0.04426638779480633    0.04250329245488381    0.04574603635681093    
  0.0442663877948063    0.0432867633109528    0.04279853755182892    0.04279853755182892    0.04328676331095267    
  0.04426638779480613    0.04574603635681068    0.04774100900164631    0.05026987285944507    0.05334552710420766    
  0.05696269182954561    0.06108497169539141    0.06563465768720847    0.07048805024454675    0.0754778142337514    
  0.08040137181720695    0.08503237774598547    0.08913325953106109    0.09247002253985497    0.09483215052059299    
  0.09605762634976413    0.09605762634976413    0.09483215052059299    0.09247002253985497    0.08913325953106109    
  0.0850323777459856    0.08040137181720715    0.0754778142337518    0.07048805024454731    0.06563465768720912    
  0.06108497169539213    0.05696269182954626    0.053345527104208236    0.05026987285944559    0.04774100900164664    
  0.04574603635681093    0.04942538594241958    0.0477410090016466    0.04655404127251722    0.04584767233077586    
  0.045613064157628266    0.045847672330775864    0.04655404127251709    0.047741009001646365    0.04942538594241929    
  0.05163028448175178    0.054378006551577804    0.057678476382941574    0.06151586834761908    0.06583629428509823    
  0.07053955978458991    0.07547781423375133    0.08046189172564713    0.0852728484943006    0.08967494178200278    
  0.09342897584399922    0.0963087569275145    0.09812345009590596    0.09874368147493866    0.09812345009590599    
  0.0963087569275145    0.09342897584399923    0.08967494178200278    0.08527284849430071    0.08046189172564738    
  0.07547781423375174    0.07053955978459053    0.06583629428509884    0.06151586834761967    0.05767847638294216    
  0.05437800655157834    0.05163028448175216    0.04942538594241958    0.05348577649707887    0.05163028448175208    
  0.050269872859445446    0.04937794252812013    0.048936308067294654    0.04893630806729464    0.04937794252812008    
  0.0502698728594453    0.051630284481751894    0.05348577649707858    0.05586578618992805    0.05879267654581955    
  0.06226933662198261    0.06626622073191277    0.07071014713260057    0.0754784156190885    0.08040137181720688    
  0.08527284849430057    0.08986396903589638    0.09393629999727086    0.0972552752139967    0.09960847874634209    
  0.10083074699867545    0.1008307469986755    0.0996084787463421    0.09725527521399671    0.09393629999727093    
  0.08986396903589641    0.08527284849430078    0.08040137181720713    0.07547841561908891    0.07071014713260108    
  0.06626622073191332    0.06226933662198319    0.05879267654582011    0.05586578618992849    0.05348577649707887    
  0.057844398550767104    0.05586578618992844    0.05437800655157821    0.05334552710420806    0.052738616889995184    
  0.05253842382932269    0.0527386168899952    0.05334552710420799    0.05437800655157807    0.055865786189928254    
  0.05784439855076681    0.0603465519981866    0.06339134359738623    0.06697222701021502    0.07104447940735754    
  0.07551510963688769    0.08024020638320353    0.08503237774598539    0.08967494178200269    0.09393629999727086    
  0.0975817729575186    0.10038711535806914    0.10215965355765881    0.10276642544411023    0.10215965355765881    
  0.10038711535806918    0.09758177295751859    0.09393629999727092    0.08967494178200276    0.08503237774598556    
  0.08024020638320381    0.07551510963688807    0.07104447940735802    0.0669722270102155    0.06339134359738673    
  0.060346551998187004    0.057844398550767104    0.062382262329050475    0.06034655199818697    0.058792676545820016    
  0.057678476382942066    0.05696269182954609    0.05661336906153561    0.05661336906153556    0.05696269182954605    
  0.057678476382942    0.0587926765458199    0.06034655199818675    0.06238226232905017    0.0649331793171504    
  0.06801352661773612    0.07160641119113637    0.07565112326440834    0.08003492724148138    0.0845953789164819    
  0.08913325953106097    0.09342897584399908    0.0972552752139966    0.10038711535806914    0.10261655289271465    
  0.10377792660034947    0.10377792660034947    0.10261655289271467    0.10038711535806916    0.09725527521399668    
  0.0934289758439992    0.08913325953106105    0.08459537891648217    0.08003492724148163    0.0756511232644087    
  0.07160641119113681    0.06801352661773653    0.06493317931715076    0.062382262329050475    0.06694165284888287    
  0.06493317931715074    0.06339134359738671    0.06226933662198309    0.06151586834761961    0.061084971695392024    
  0.06094506975755558    0.06108497169539207    0.061515868347619636    0.062269336621983085    0.06339134359738657    
  0.06493317931715062    0.06694165284888264    0.06944988074633518    0.07246700269736457    0.07596508221253533    
  0.07986651038557621    0.08403983671603872    0.08830881838764951    0.09247002253985472    0.09630875692751441    
  0.09960847874634199    0.10215965355765871    0.10377792660034943    0.10433314713510207    0.10377792660034942    
  0.10215965355765881    0.09960847874634202    0.09630875692751449    0.0924700225398549    0.08830881838764969    
  0.0840398367160389    0.0798665103855764    0.07596508221253559    0.0724670026973649    0.06944988074633547    
  0.06694165284888287    0.07133224388334039    0.06944988074633547    0.06801352661773656    0.0669722270102155    
  0.06626622073191328    0.06583629428509885    0.06563465768720912    0.06563465768720911    0.06583629428509893    
  0.06626622073191334    0.06697222701021557    0.06801352661773655    0.0694498807463354    0.0713322438833402    
  0.07369396985830105    0.07653901137474314    0.07982715033528054    0.0834635083771905    0.08730113505000578    
  0.09115710168213302    0.0948321505205928    0.09812345009590576    0.10083074699867531    0.10276642544411017    
  0.1037779266003494    0.1037779266003494    0.10276642544411017    0.10083074699867543    0.09812345009590595    
  0.0948321505205929    0.09115710168213323    0.08730113505000592    0.08346350837719073    0.07982715033528064    
  0.07653901137474332    0.07369396985830125    0.07133224388334039    0.07534333055578209    0.0736939698583013    
  0.072467002697365    0.07160641119113689    0.0710444794073581    0.07071014713260125    0.07053955978459062    
  0.0704880502445474    0.07053955978459064    0.0707101471326013    0.07104447940735825    0.07160641119113698    
  0.07246700269736503    0.0736939698583012    0.07534333055578198    0.07744943746568622    0.08001024877718246    
  0.08297213880028863    0.08622466708988141    0.08961151796785598    0.09295167398818376    0.09605762634976388    
  0.09874368147493845    0.10083074699867534    0.10215965355765869    0.10261655289271464    0.10215965355765874    
  0.10083074699867538    0.09874368147493863    0.096057626349764    0.09295167398818392    0.08961151796785612    
  0.08622466708988155    0.08297213880028875    0.08001024877718255    0.07744943746568635    0.07534333055578209    
  0.07875893198793103    0.07744943746568644    0.07653901137474353    0.0759650822125358    0.07565112326440887    
  0.07551510963688829    0.07547841561908918    0.07547781423375201    0.07547781423375208    0.07547841561908925    
  0.07551510963688847    0.07565112326440902    0.07596508221253592    0.07653901137474353    0.07744943746568646    
  0.07875893198793107    0.08050293698942489    0.08267221332341758    0.08520014482363542    0.08796545841630544    
  0.09081073163967185    0.09356495929188703    0.09605762634976385    0.0981234500959058    0.09960847874634195    
  0.10038711535806903    0.10038711535806913    0.09960847874634203    0.09812345009590592    0.09605762634976404    
  0.09356495929188725    0.09081073163967199    0.08796545841630556    0.08520014482363544    0.08267221332341765    
  0.08050293698942494    0.07875893198793103    0.08137534252549546    0.08050293698942504    0.08001024877718273    
  0.07982715033528091    0.0798665103855767    0.08003492724148198    0.08024020638320413    0.08040137181720745    
  0.08046189172564776    0.08040137181720756    0.08024020638320431    0.0800349272414821    0.07986651038557692    
  0.07982715033528108    0.0800102487771828    0.08050293698942504    0.08137534252549544    0.08266311674865397    
  0.08434912828203787    0.08635661419397465    0.08856057508950724    0.09081073163967178    0.09295167398818373    
  0.09483215052059277    0.09630875692751431    0.09725527521399654    0.09758177295751853    0.09725527521399663    
  0.09630875692751448    0.09483215052059296    0.09295167398818396    0.09081073163967199    0.08856057508950735    
  0.08635661419397474    0.08434912828203789    0.082663116748654    0.08137534252549546    0.08302209471022712    
  0.08266311674865413    0.08267221332341794    0.08297213880028902    0.08346350837719102    0.08403983671603932    
  0.08459537891648251    0.08503237774598596    0.08527284849430114    0.08527284849430121    0.08503237774598615    
  0.08459537891648272    0.08403983671603953    0.08346350837719123    0.0829721388002892    0.08267221332341798    
  0.08266311674865413    0.08302209471022713    0.08378330070487945    0.0849221563043658    0.0863566141939747    
  0.08796545841630546    0.08961151796785594    0.09115710168213301    0.09247002253985473    0.09342897584399906    
  0.0939362999972708    0.09393629999727084    0.09342897584399919    0.09247002253985492    0.09115710168213323    
  0.08961151796785616    0.08796545841630564    0.08635661419397474    0.08492215630436585    0.08378330070487941    
  0.08302209471022712    0.08358453817191648    0.08378330070487959    0.08434912828203821    0.0852001448236358    
  0.08622466708988193    0.08730113505000636    0.08830881838765009    0.08913325953106147    0.08967494178200318    
  0.08986396903589682    0.08967494178200328    0.08913325953106165    0.08830881838765031    0.0873011350500066    
  0.08622466708988213    0.08520014482363594    0.08434912828203822    0.08378330070487959    0.08358453817191651    
  0.08378330070487937    0.08434912828203786    0.08520014482363535    0.08622466708988137    0.08730113505000575    
  0.08830881838764947    0.08913325953106085    0.08967494178200265    0.08986396903589633    0.08967494178200273    
  0.08913325953106106    0.08830881838764972    0.087301135050006    0.08622466708988157    0.08520014482363544    
  0.08434912828203786    0.08378330070487941    0.08358453817191648    0.0830220947102271    0.08378330070487958    
  0.08492215630436618    0.08635661419397517    0.08796545841630603    0.08961151796785657    0.0911571016821336    
  0.09247002253985526    0.09342897584399959    0.09393629999727124    0.09393629999727131    0.09342897584399969    
  0.09247002253985544    0.09115710168213381    0.0896115179678568    0.08796545841630622    0.08635661419397528    
  0.08492215630436616    0.0837833007048796    0.0830220947102271    0.08266311674865398    0.08267221332341751    
  0.08297213880028853    0.08346350837719049    0.08403983671603865    0.08459537891648186    0.08503237774598534    
  0.08527284849430053    0.08527284849430058    0.08503237774598547    0.08459537891648213    0.0840398367160389    
  0.08346350837719069    0.0829721388002887    0.08267221332341762    0.08266311674865391    0.0830220947102271    
  0.08137534252549539    0.08266311674865405    0.08434912828203817    0.08635661419397513    0.08856057508950779    
  0.0908107316396724    0.09295167398818431    0.09483215052059325    0.0963087569275147    0.0972552752139969    
  0.09758177295751881    0.09725527521399696    0.09630875692751488    0.09483215052059342    0.09295167398818449    
  0.09081073163967257    0.08856057508950796    0.08635661419397521    0.0843491282820382    0.08266311674865408    
  0.08137534252549541    0.08050293698942479    0.08001024877718232    0.07982715033528046    0.07986651038557616    
  0.08003492724148127    0.08024020638320349    0.08040137181720682    0.08046189172564712    0.08040137181720693    
  0.08024020638320366    0.0800349272414815    0.07986651038557635    0.07982715033528057    0.08001024877718242    
  0.0805029369894248    0.08137534252549539    0.07875893198793088    0.08050293698942489    0.08267221332341788    
  0.08520014482363583    0.08796545841630606    0.09081073163967247    0.09356495929188761    0.09605762634976435    
  0.09812345009590613    0.09960847874634218    0.1003871153580693    0.10038711535806931    0.09960847874634224    
  0.09812345009590624    0.09605762634976452    0.09356495929188781    0.0908107316396726    0.08796545841630615    
  0.0852001448236359    0.08267221332341788    0.08050293698942497    0.07875893198793098    0.07744943746568618    
  0.07653901137474309    0.07596508221253528    0.07565112326440827    0.07551510963688768    0.0754784156190885    
  0.07547781423375136    0.0754778142337514    0.07547841561908865    0.07551510963688783    0.07565112326440844    
  0.07596508221253535    0.07653901137474312    0.07744943746568615    0.07875893198793088    0.0753433305557818    
  0.07744943746568625    0.08001024877718263    0.08297213880028902    0.08622466708988194    0.08961151796785662    
  0.09295167398818431    0.09605762634976434    0.09874368147493874    0.10083074699867552    0.10215965355765887    
  0.10261655289271478    0.1021596535576589    0.10083074699867557    0.0987436814749389    0.09605762634976449    
  0.0929516739881845    0.08961151796785673    0.08622466708988205    0.08297213880028911    0.08001024877718275    
  0.07744943746568632    0.0753433305557819    0.07369396985830098    0.07246700269736454    0.07160641119113637    
  0.07104447940735754    0.07071014713260057    0.07053955978458995    0.07048805024454673    0.07053955978459006    
  0.07071014713260068    0.07104447940735766    0.07160641119113646    0.07246700269736459    0.07369396985830094    
  0.0753433305557818    0.07133224388334003    0.073693969858301    0.0765390113747433    0.07982715033528086    
  0.083463508377191    0.08730113505000635    0.09115710168213363    0.09483215052059324    0.09812345009590612    
  0.10083074699867553    0.10276642544411023    0.10377792660034944    0.10377792660034944    0.1027664254441103    
  0.10083074699867556    0.09812345009590627    0.09483215052059338    0.09115710168213374    0.08730113505000657    
  0.08346350837719116    0.07982715033528105    0.07653901137474346    0.0736939698583012    0.07133224388334027    
  0.06944988074633512    0.06801352661773605    0.06697222701021503    0.06626622073191275    0.0658362942850983    
  0.06563465768720848    0.06563465768720855    0.06583629428509831    0.0662662207319128    0.06697222701021505    
  0.06801352661773606    0.06944988074633507    0.07133224388334003    0.06694165284888239    0.06944988074633508    
  0.07246700269736465    0.07596508221253553    0.07986651038557661    0.08403983671603929    0.08830881838765013    
  0.09247002253985527    0.09630875692751473    0.09960847874634216    0.10215965355765882    0.10377792660034944    
  0.10433314713510203    0.10377792660034944    0.10215965355765885    0.09960847874634221    0.09630875692751478    
  0.09247002253985535    0.08830881838765024    0.0840398367160394    0.07986651038557685    0.07596508221253583    
  0.07246700269736495    0.06944988074633542    0.06694165284888266    0.06493317931715036    0.06339134359738624    
  0.0622693366219826    0.061515868347619074    0.061084971695391455    0.060945069757555044    0.061084971695391455    
  0.061515868347619046    0.06226933662198258    0.06339134359738617    0.06493317931715024    0.06694165284888239    
  0.062382262329049865    0.06493317931715024    0.06801352661773614    0.07160641119113652    0.07565112326440865    
  0.0800349272414818    0.08459537891648253    0.08913325953106144    0.09342897584399958    0.09725527521399682    
  0.10038711535806923    0.10261655289271471    0.1037779266003494    0.10377792660034939    0.10261655289271471    
  0.10038711535806924    0.0972552752139969    0.09342897584399959    0.08913325953106153    0.08459537891648268    
  0.08003492724148209    0.07565112326440898    0.07160641119113698    0.06801352661773652    0.0649331793171506    
  0.06238226232905018    0.060346551998186636    0.05879267654581957    0.0576784763829416    0.056962691829545574    
  0.056613369061535065    0.05661336906153506    0.056962691829545574    0.057678476382941525    0.058792676545819454    
  0.06034655199818644    0.062382262329049865    0.05784439855076652    0.06034655199818637    0.06339134359738613    
  0.06697222701021499    0.07104447940735775    0.07551510963688807    0.08024020638320398    0.08503237774598589    
  0.08967494178200314    0.09393629999727118    0.09758177295751873    0.10038711535806918    0.1021596535576588    
  0.10276642544411017    0.10215965355765878    0.10038711535806924    0.09758177295751877    0.0939362999972712    
  0.08967494178200322    0.08503237774598604    0.08024020638320427    0.07551510963688837    0.07104447940735821    
  0.06697222701021557    0.0633913435973866    0.060346551998186816    0.05784439855076684    0.055865786189928095    
  0.05437800655157781    0.05334552710420766    0.05273861688999479    0.05253842382932221    0.05273861688999469    
  0.05334552710420757    0.05437800655157769    0.055865786189927866    0.05784439855076652    0.05348577649707827    
  0.05586578618992781    0.058792676545819385    0.06226933662198249    0.06626622073191275    0.07071014713260079    
  0.07547841561908887    0.08040137181720729    0.08527284849430104    0.08986396903589673    0.09393629999727114    
  0.09725527521399682    0.09960847874634211    0.10083074699867547    0.10083074699867543    0.09960847874634213    
  0.09725527521399688    0.09393629999727113    0.0898639690358968    0.08527284849430111    0.08040137181720751    
  0.07547841561908927    0.0707101471326013    0.06626622073191336    0.062269336621983154    0.0587926765458199    
  0.05586578618992822    0.053485776497078565    0.0516302844817518    0.05026987285944509    0.04937794252811978    
  0.04893630806729429    0.04893630806729427    0.0493779425281197    0.05026987285944497    0.05163028448175157    
  0.05348577649707827    0.049425385942419006    0.051630284481751484    0.05437800655157759    0.05767847638294138    
  0.061515868347618956    0.06583629428509828    0.07053955978459014    0.07547781423375163    0.08046189172564747    
  0.08527284849430102    0.08967494178200314    0.0934289758439995    0.09630875692751464    0.098123450095906    
  0.09874368147493873    0.09812345009590603    0.09630875692751464    0.09342897584399946    0.08967494178200315    
  0.0852728484943011    0.08046189172564777    0.07547781423375208    0.07053955978459064    0.06583629428509895    
  0.06151586834761962    0.057678476382942    0.054378006551578095    0.05163028448175191    0.049425385942419305    
  0.0477410090016463    0.04655404127251695    0.04584767233077562    0.04561306415762795    0.045847672330775524    
  0.04655404127251685    0.047741009001646115    0.049425385942419006    0.04574603635681047    0.04774100900164604    
  0.05026987285944485    0.05334552710420742    0.05696269182954539    0.06108497169539137    0.06563465768720848    
  0.07048805024454688    0.07547781423375165    0.08040137181720725    0.08503237774598585    0.08913325953106141    
  0.09247002253985526    0.09483215052059316    0.09605762634976427    0.09605762634976432    0.09483215052059317    
  0.09247002253985519    0.08913325953106144    0.08503237774598592    0.08040137181720747    0.07547781423375202    
  0.0704880502445474    0.06563465768720915    0.061084971695392086    0.05696269182954604    0.053345527104208035    
  0.05026987285944534    0.04774100900164642    0.04574603635681071    0.044266387794806066    0.04328676331095258    
  0.042798537551828775    0.04279853755182874    0.043286763310952506    0.04426638779480592    0.04574603635681047    
  0.042503292454883476    0.04426638779480587    0.0465540412725167    0.0493779425281195    0.05273861688999454    
  0.05661336906153484    0.0609450697575549    0.06563465768720851    0.07053955978459012    0.07547841561908879    
  0.08024020638320394    0.08459537891648242    0.08830881838765002    0.09115710168213358    0.09295167398818423    
  0.09356495929188755    0.09295167398818423    0.09115710168213352    0.08830881838765005    0.08459537891648249    
  0.08024020638320413    0.07547841561908916    0.0705395597845906    0.06563465768720912    0.06094506975755556    
  0.05661336906153557    0.052738616889995205    0.04937794252812005    0.046554041272517104    0.04426638779480613    
  0.04250329245488369    0.04125184560311702    0.04050340159797966    0.040254203956246556    0.04050340159797966    
  0.04125184560311693    0.042503292454883476    0.039734667642312343    0.041251845603116906    0.0432867633109524    
  0.045847672330775344    0.04893630806729403    0.05253842382932198    0.05661336906153488    0.06108497169539134    
  0.06583629428509825    0.07071014713260075    0.07551510963688801    0.08003492724148176    0.08403983671603922    
  0.0873011350500063    0.08961151796785649    0.09081073163967235    0.0908107316396724    0.08961151796785646    
  0.0873011350500063    0.08403983671603926    0.08003492724148191    0.0755151096368883    0.0707101471326012    
  0.06583629428509889    0.06108497169539202    0.05661336906153556    0.05253842382932269    0.04893630806729467    
  0.04584767233077587    0.043286763310952686    0.041251845603117114    0.039734667642312475    0.03872715732551457    
  0.03822437351829309    0.03822437351829309    0.038727157325514495    0.039734667642312343    0.03746443384940911    
  0.03872715732551444    0.04050340159797956    0.042798537551828546    0.04561306415762773    0.04893630806729405    
  0.05273861688999452    0.05696269182954534    0.06151586834761889    0.06626622073191273    0.07104447940735771    
  0.07565112326440858    0.07986651038557659    0.08346350837719096    0.08622466708988191    0.08796545841630603    
  0.08856057508950775    0.08796545841630601    0.08622466708988191    0.08346350837719096    0.07986651038557671    
  0.07565112326440887    0.07104447940735813    0.06626622073191334    0.06151586834761961    0.05696269182954609    
  0.052738616889995205    0.04893630806729465    0.04561306415762828    0.04279853755182892    0.04050340159797984    
  0.03872715732551457    0.03746443384940923    0.036709416763578605    0.036458186114758845    0.03670941676357859    
  0.03746443384940911    0.0357045864805477    0.03670941676357853    0.03822437351829301    0.040254203956246404    
  0.04279853755182859    0.04584767233077536    0.049377942528119535    0.05334552710420738    0.057678476382941386    
  0.062269336621982495    0.06697222701021499    0.07160641119113656    0.07596508221253555    0.07982715033528083    
  0.08297213880028899    0.08520014482363585    0.08635661419397513    0.08635661419397513    0.08520014482363583    
  0.08297213880028903    0.07982715033528097    0.07596508221253576    0.07160641119113685    0.06697222701021556    