#     DFTpy    
  CRYSTAL 
    
  PRIMVEC    
  1.5350049795289604    -2.6587066144153906    0.0    
  1.5350049795289604    2.6587066144153906    0.0    
  0.0    0.0    5.189979090275861    
  PRIMCOORD    
  2    1    
  Si    1.5350049795289604    0.8862355381384602    1.2974947725689703    
  Si    1.5350049795289604    -0.8862355381384602    3.8924843177069    
  BEGIN_BLOCK_DATAGRID_3D    
  3d_datagrid_density    
  BEGIN_DATAGRID_3D#0    
  31    31    51    
  0.0    0.0    0.0    
  1.5350049852545582    -2.658706624332417    0.0    
  1.5350049852545582    2.658706624332417    0.0    
  0.0    0.0    5.1899791096345815    
  0.0627151454925483    0.0633602905492679    0.06531109833117163    0.06860140202536712    0.07325198712122397    
  0.07923390139311333    0.08644261812296793    0.09469041433000329    0.1037084822350816    0.11314223053221559    
  0.12253722576688587    0.13134039967335503    0.13894842188950265    0.14480173909464164    0.1484770046072125    
  0.14972806644471295    0.14847700460721241    0.14480173909464142    0.1389484218895024    0.13134039967335465    
  0.12253722576688533    0.11314223053221481    0.1037084822350808    0.0946904143300025    0.08644261812296726    
  0.07923390139311283    0.07325198712122365    0.06860140202536692    0.06531109833117157    0.06336029054926785    
  0.0627151454925483    0.0633602905492679    0.06336029054926787    0.06465865421028844    0.06728197967269552    
  0.071260259367833    0.07659134767426193    0.08320931963558403    0.0909686010967598    0.09964238180531117    
  0.10892127689763355    0.11840171297050038    0.12757615943832773    0.13585675778642325    0.14265009426974412    
  0.14745658429652733    0.1499399761614389    0.14993997616143892    0.14745658429652714    0.14265009426974387    
  0.13585675778642306    0.12757615943832723    0.11840171297049973    0.1089212768976328    0.09964238180531033    
  0.09096860109675911    0.08320931963558342    0.07659134767426161    0.07126025936783273    0.06728197967269542    
  0.06465865421028837    0.0633602905492679    0.06531109833117163    0.06465865421028842    0.06531109833117164    
  0.0672819796726955    0.0705995035827804    0.07527613285072869    0.08127600084291046    0.08849367416123004    
  0.09674647490371974    0.1057708005023809    0.11521177098012222    0.12461017445324608    0.1334101388231442    
  0.14101141472259007    0.14685995977371535    0.15053427859820614    0.15178566965731524    0.15053427859820623    
  0.14685995977371527    0.14101141472258988    0.1334101388231438    0.1246101744532455    0.11521177098012152    
  0.10577080050238011    0.09674647490371899    0.0884936741612294    0.08127600084290997    0.07527613285072836    
  0.07059950358278026    0.06728197967269542    0.06531109833117163    0.06860140202536708    0.06728197967269549    
  0.06728197967269549    0.0686014020253671    0.07126025936783294    0.07527613285072866    0.08063357808263384    
  0.08726081394573598    0.09501777576293026    0.10368794764570646    0.11296542927536564    0.12243974668775989    
  0.13159537072545469    0.13984668389679755    0.146612156166679    0.15140196921101645    0.15387956659849528    
  0.15387956659849522    0.1514019692110164    0.14661215616667886    0.1398466838967973    0.13159537072545419    
  0.12243974668775928    0.11296542927536495    0.10368794764570574    0.09501777576292951    0.08726081394573541    
  0.08063357808263347    0.0752761328507285    0.07126025936783285    0.06860140202536708    0.07325198712122381    
  0.0712602593678329    0.07059950358278036    0.07126025936783292    0.07325198712122384    0.07659134767426183    
  0.08127600084291031    0.0872608139457359    0.09444370934427417    0.102654338844257    0.1116370908019932    
  0.12103178963068884    0.13036782446382933    0.1390884386278023    0.1466094671607304    0.15239751393554912    
  0.15603948206784438    0.15728162313613583    0.15603948206784432    0.1523975139355491    0.14660946716073023    
  0.13908843862780196    0.13036782446382886    0.1210317896306882    0.11163709080199247    0.10265433884425625    
  0.09444370934427354    0.08726081394573544    0.08127600084291009    0.07659134767426168    0.07325198712122381    
  0.07923390139311308    0.07659134767426173    0.07527613285072852    0.07527613285072852    0.07659134767426172    
  0.07923390139311312    0.08320931963558376    0.08849367416122986    0.09501777576293016    0.10265433884425691    
  0.11119836926930513    0.12034298023765284    0.1296674403451189    0.13865400204656858    0.14673553523334462    
  0.15336112743266508    0.15806138434827635    0.16049900324356783    0.1604990032435678    0.15806138434827632    
  0.15336112743266503    0.1467355352333444    0.13865400204656825    0.12966744034511843    0.12034298023765226    
  0.11119836926930453    0.1026543388442563    0.09501777576292962    0.08849367416122954    0.0832093196355836    
  0.07923390139311308    0.08644261812296748    0.08320931963558365    0.08127600084291012    0.08063357808263355    
  0.08127600084291015    0.08320931963558365    0.08644261812296754    0.09096860109675954    0.09674647490371954    
  0.10368794764570638    0.11163709080199317    0.12034298023765284    0.12944112706311758    0.138462675664698    
  0.146873762181928    0.15413014102322636    0.15973163542253416    0.16327180299589109    0.16448309600332914    
  0.16327180299589109    0.15973163542253402    0.15413014102322625    0.14687376218192774    0.1384626756646977    
  0.12944112706311708    0.12034298023765229    0.11163709080199259    0.10368794764570581    0.0967464749037192    
  0.09096860109675933    0.08644261812296748    0.0946904143300028    0.09096860109675932    0.08849367416122958    
  0.08726081394573552    0.08726081394573551    0.08849367416122952    0.09096860109675936    0.09469041433000285    
  0.0996423818053108    0.10577080050238062    0.11296542927536557    0.12103178963068881    0.1296674403451189    
  0.13846267566469805    0.14693181549997497    0.15455939218512244    0.16084279679016608    0.1653312515691808    
  0.16767346088195673    0.16767346088195675    0.16533125156918077    0.16084279679016597    0.15455939218512232    
  0.14693181549997475    0.1384626756646977    0.12966744034511854    0.12103178963068839    0.11296542927536506    
  0.10577080050238039    0.09964238180531061    0.0946904143300028    0.10370848223508114    0.09964238180531061    
  0.09674647490371917    0.0950177757629296    0.09444370934427354    0.09501777576292957    0.09674647490371902    
  0.09964238180531049    0.10370848223508111    0.10892127689763323    0.11521177098012203    0.12243974668775982    
  0.13036782446382944    0.1386540020465687    0.14687376218192813    0.1545593921851225    0.1612338529472698    
  0.16643547672753914    0.169754550887443    0.17089704231733158    0.16975455088744293    0.16643547672753897    
  0.1612338529472696    0.15455939218512238    0.1468737621819279    0.13865400204656836    0.13036782446382905    
  0.12243974668775946    0.11521177098012178    0.10892127689763313    0.10370848223508114    0.11314223053221519    
  0.10892127689763303    0.10577080050238025    0.10368794764570576    0.10265433884425613    0.10265433884425608    
  0.10368794764570559    0.10577080050238005    0.1089212768976329    0.11314223053221509    0.11840171297050006    
  0.12461017445324596    0.13159537072545477    0.13908843862780246    0.14673553523334484    0.15413014102322659    
  0.16084279679016614    0.16643547672753914    0.17047988195416972    0.17261060232494288    0.1726106023249428    
  0.1704798819541696    0.166435476727539    0.16084279679016605    0.15413014102322642    0.14673553523334462    
  0.13908843862780218    0.1315953707254545    0.12461017445324588    0.11840171297050006    0.11314223053221519    
  0.12253722576688567    0.11840171297049992    0.1152117709801215    0.1129654292753648    0.11163709080199223    
  0.11119836926930415    0.11163709080199212    0.11296542927536457    0.11521177098012128    0.11840171297049959    
  0.12253722576688546    0.12757615943832748    0.13341013882314415    0.13984668389679777    0.14660946716073073    
  0.15336112743266536    0.1597316354225344    0.16533125156918108    0.16975455088744315    0.17261060232494288    
  0.17360054339915915    0.1726106023249428    0.16975455088744298    0.16533125156918085    0.1597316354225342    
  0.15336112743266517    0.14660946716073045    0.1398466838967975    0.13341013882314412    0.1275761594383275    
  0.12253722576688567    0.13134039967335487    0.12757615943832726    0.12461017445324545    0.12243974668775895    
  0.12103178963068773    0.12034298023765165    0.12034298023765155    0.12103178963068745    0.1224397466877587    
  0.12461017445324497    0.1275761594383269    0.13134039967335473    0.13585675778642317    0.14101141472259018    
  0.1466121561666792    0.15239751393554946    0.1580613843482767    0.16327180299589142    0.167673460881957    
  0.17089704231733174    0.17261060232494288    0.17261060232494285    0.17089704231733163    0.16767346088195684    
  0.1632718029958912    0.1580613843482765    0.1523975139355493    0.14661215616667903    0.14101141472259007    
  0.13585675778642325    0.13134039967335487    0.13894842188950263    0.13585675778642295    0.1334101388231436    
  0.1315953707254537    0.13036782446382822    0.12966744034511762    0.12944112706311608    0.12966744034511737    
  0.13036782446382783    0.13159537072545327    0.13341013882314307    0.13585675778642253    0.13894842188950246    
  0.14265009426974404    0.1468599597737155    0.15140196921101676    0.1560394820678448    0.16049900324356833    
  0.16448309600332955    0.16767346088195706    0.16975455088744315    0.17047988195416974    0.16975455088744304    
  0.16767346088195687    0.16448309600332925    0.16049900324356794    0.15603948206784446    0.15140196921101656    
  0.1468599597737154    0.14265009426974415    0.13894842188950263    0.1448017390946416    0.14265009426974368    
  0.14101141472258938    0.13984668389679658    0.1390884386278012    0.13865400204656714    0.13846267566469647    
  0.13846267566469633    0.1386540020465668    0.13908843862780063    0.139846683896796    0.14101141472258888    
  0.1426500942697433    0.14480173909464142    0.14745658429652733    0.15053427859820642    0.15387956659849572    
  0.1572816231361364    0.1604990032435683    0.16327180299589156    0.16533125156918108    0.16643547672753917    
  0.16643547672753917    0.16533125156918088    0.1632718029958912    0.16049900324356803    0.15728162313613592    
  0.15387956659849528    0.15053427859820634    0.1474565842965273    0.1448017390946416    0.14847700460721255    
  0.14745658429652686    0.1468599597737146    0.14661215616667794    0.14660946716072915    0.14673553523334323    
  0.1468737621819264    0.14693181549997317    0.14687376218192622    0.14673553523334285    0.14660946716072862    
  0.14661215616667742    0.14685995977371413    0.14745658429652658    0.14847700460721247    0.14993997616143903    
  0.15178566965731558    0.15387956659849575    0.15603948206784496    0.15806138434827693    0.15973163542253455    
  0.1608427967901663    0.16123385294726988    0.16084279679016616    0.15973163542253424    0.15806138434827646    
  0.15603948206784438    0.15387956659849528    0.15178566965731527    0.14993997616143898    0.14847700460721255    
  0.14972806644471304    0.14993997616143842    0.15053427859820537    0.15140196921101537    0.15239751393554785    
  0.15336112743266367    0.15413014102322478    0.1545593921851207    0.15455939218512063    0.15413014102322453    
  0.15336112743266325    0.15239751393554732    0.15140196921101493    0.15053427859820498    0.14993997616143828    
  0.149728066444713    0.14993997616143914    0.15053427859820656    0.15140196921101695    0.15239751393554965    
  0.15336112743266556    0.15413014102322667    0.15455939218512268    0.15455939218512263    0.15413014102322647    
  0.15336112743266517    0.15239751393554915    0.15140196921101642    0.1505342785982062    0.1499399761614389    
  0.14972806644471304    0.14847700460721244    0.1499399761614384    0.15178566965731435    0.15387956659849403    
  0.15603948206784296    0.1580613843482749    0.1597316354225325    0.1608427967901643    0.16123385294726789    
  0.16084279679016417    0.15973163542253224    0.1580613843482744    0.15603948206784252    0.15387956659849364    
  0.15178566965731402    0.14993997616143828    0.1484770046072125    0.1474565842965275    0.14685995977371574    
  0.14661215616667947    0.1466094671607309    0.14673553523334495    0.14687376218192835    0.14693181549997508    
  0.1468737621819281    0.14673553523334473    0.1466094671607304    0.1466121561666789    0.1468599597737153    
  0.14745658429652717    0.14847700460721244    0.14480173909464142    0.14745658429652672    0.15053427859820526    
  0.15387956659849397    0.15728162313613436    0.16049900324356636    0.16327180299588945    0.1653312515691791    
  0.16643547672753722    0.1664354767275371    0.16533125156917888    0.16327180299588917    0.16049900324356597    
  0.15728162313613403    0.15387956659849364    0.15053427859820506    0.14745658429652667    0.14480173909464156    
  0.14265009426974426    0.14101141472259043    0.13984668389679797    0.13908843862780268    0.13865400204656886    
  0.1384626756646982    0.13846267566469805    0.13865400204656853    0.13908843862780218    0.1398466838967974    
  0.1410114147225899    0.1426500942697439    0.14480173909464142    0.1389484218895024    0.1426500942697435    
  0.1468599597737144    0.15140196921101523    0.1560394820678429    0.16049900324356636    0.16448309600332758    
  0.16767346088195506    0.16975455088744118    0.17047988195416777    0.16975455088744107    0.1676734608819548    
  0.1644830960033273    0.16049900324356606    0.1560394820678426    0.151401969211015    0.14685995977371438    
  0.14265009426974357    0.13894842188950265    0.13585675778642353    0.13341013882314448    0.13159537072545494    
  0.13036782446382963    0.12966744034511912    0.1294411270631176    0.1296674403451189    0.13036782446382925    
  0.1315953707254545    0.13341013882314404    0.13585675778642312    0.1389484218895024    0.13134039967335479    
  0.13585675778642273    0.1410114147225892    0.14661215616667778    0.1523975139355477    0.15806138434827485    
  0.16327180299588948    0.16767346088195506    0.17089704231732977    0.17261060232494096    0.17261060232494094    
  0.17089704231732966    0.16767346088195484    0.16327180299588925    0.15806138434827455    0.1523975139355475    
  0.14661215616667764    0.14101141472258913    0.1358567577864228    0.13134039967335503    0.1275761594383278    
  0.12461017445324625    0.12243974668776007    0.121031789630689    0.12034298023765291    0.12034298023765287    
  0.12103178963068871    0.12243974668775966    0.12461017445324588    0.12757615943832748    0.13134039967335479    
  0.12253722576688561    0.12757615943832717    0.13341013882314348    0.13984668389679641    0.1466094671607291    
  0.15336112743266364    0.15973163542253255    0.1653312515691791    0.16975455088744126    0.172610602324941    
  0.17360054339915726    0.17261060232494094    0.1697545508874411    0.16533125156917902    0.15973163542253238    
  0.15336112743266342    0.14660946716072887    0.13984668389679633    0.13341013882314343    0.12757615943832729    
  0.12253722576688578    0.11840171297050034    0.1152117709801223    0.11296542927536571    0.11163709080199322    
  0.11119836926930518    0.11163709080199313    0.11296542927536546    0.11521177098012202    0.1184017129705001    
  0.12253722576688561    0.11314223053221532    0.11840171297049992    0.12461017445324545    0.13159537072545374    
  0.13908843862780118    0.14673553523334326    0.1541301410232248    0.16084279679016442    0.16643547672753736    
  0.17047988195416794    0.17261060232494105    0.172610602324941    0.17047988195416794    0.16643547672753722    
  0.1608427967901643    0.15413014102322464    0.14673553523334307    0.1390884386278009    0.1315953707254535    
  0.12461017445324528    0.11840171297049987    0.11314223053221532    0.10892127689763346    0.10577080050238086    
  0.10368794764570646    0.10265433884425694    0.1026543388442569    0.1036879476457063    0.10577080050238069    
  0.10892127689763327    0.11314223053221532    0.10370848223508132    0.10892127689763323    0.11521177098012178    
  0.12243974668775919    0.13036782446382836    0.13865400204656722    0.14687376218192655    0.1545593921851209    
  0.1612338529472681    0.16643547672753736    0.16975455088744132    0.17089704231732983    0.16975455088744126    
  0.16643547672753733    0.16123385294726797    0.15455939218512074    0.14687376218192635    0.138654002046567    
  0.13036782446382808    0.12243974668775885    0.11521177098012145    0.10892127689763303    0.1037084822350813    
  0.09964238180531096    0.09674647490371958    0.09501777576293015    0.09444370934427407    0.09501777576293005    
  0.09674647490371949    0.09964238180531085    0.10370848223508132    0.09469041433000303    0.0996423818053108    
  0.10577080050238055    0.11296542927536518    0.1210317896306881    0.12966744034511796    0.13846267566469675    
  0.1469318154999735    0.15455939218512102    0.16084279679016453    0.16533125156917922    0.16767346088195514    
  0.16767346088195514    0.16533125156917922    0.1608427967901644    0.1545593921851208    0.1469318154999733    
  0.13846267566469642    0.1296674403451175    0.12103178963068768    0.11296542927536475    0.10577080050238019    
  0.09964238180531065    0.09469041433000296    0.09096860109675957    0.0884936741612299    0.08726081394573583    
  0.08726081394573579    0.0884936741612298    0.09096860109675957    0.09469041433000303    0.08644261812296763    
  0.0909686010967596    0.09674647490371943    0.10368794764570617    0.11163709080199276    0.12034298023765216    
  0.1294411270631166    0.1384626756646968    0.1468737621819267    0.15413014102322498    0.1597316354225327    
  0.1632718029958896    0.1644830960033277    0.1632718029958896    0.1597316354225326    0.15413014102322484    
  0.1468737621819265    0.1384626756646965    0.1294411270631161    0.12034298023765165    0.11163709080199219    
  0.10368794764570564    0.09674647490371911    0.09096860109675939    0.08644261812296761    0.08320931963558376    
  0.08127600084291027    0.08063357808263366    0.08127600084291028    0.08320931963558378    0.08644261812296763    
  0.07923390139311315    0.0832093196355838    0.08849367416122987    0.09501777576293009    0.10265433884425669    
  0.11119836926930475    0.12034298023765223    0.129667440345118    0.13865400204656747    0.14673553523334346    
  0.15336112743266384    0.158061384348275    0.16049900324356645    0.16049900324356645    0.158061384348275    
  0.15336112743266364    0.14673553523334323    0.1386540020465671    0.1296674403451175    0.12034298023765165    
  0.1111983692693041    0.10265433884425608    0.09501777576292958    0.08849367416122954    0.08320931963558366    
  0.07923390139311308    0.07659134767426176    0.07527613285072851    0.07527613285072857    0.07659134767426176    
  0.07923390139311315    0.07325198712122387    0.07659134767426182    0.08127600084291035    0.08726081394573589    
  0.09444370934427408    0.10265433884425677    0.1116370908019929    0.12103178963068827    0.13036782446382864    
  0.13908843862780138    0.14660946716072934    0.15239751393554793    0.15603948206784307    0.1572816231361345    
  0.15603948206784304    0.1523975139355478    0.14660946716072917    0.13908843862780115    0.13036782446382814    
  0.12103178963068768    0.11163709080199215    0.10265433884425602    0.0944437093442735    0.08726081394573547    
  0.08127600084291009    0.07659134767426168    0.07325198712122377    0.07126025936783283    0.0705995035827803    
  0.07126025936783287    0.07325198712122387    0.06860140202536708    0.07126025936783294    0.07527613285072864    
  0.08063357808263383    0.08726081394573594    0.09501777576293015    0.10368794764570635    0.11296542927536539    
  0.12243974668775946    0.13159537072545405    0.1398466838967967    0.14661215616667803    0.1514019692110155    
  0.15387956659849417    0.15387956659849408    0.1514019692110154    0.1466121561666779    0.13984668389679647    
  0.1315953707254536    0.12243974668775888    0.11296542927536465    0.10368794764570555    0.09501777576292947    
  0.08726081394573544    0.08063357808263345    0.07527613285072846    0.07126025936783283    0.06860140202536694    
  0.0672819796726954    0.0672819796726954    0.06860140202536708    0.0653110983311716    0.06728197967269545    
  0.0705995035827804    0.07527613285072866    0.08127600084291044    0.08849367416123005    0.09674647490371967    
  0.10577080050238079    0.11521177098012203    0.12461017445324572    0.13341013882314376    0.14101141472258938    
  0.14685995977371466    0.15053427859820542    0.1517856696573144    0.15053427859820534    0.14685995977371458    
  0.14101141472258927    0.13341013882314343    0.12461017445324521    0.11521177098012131    0.10577080050237996    
  0.09674647490371892    0.08849367416122937    0.08127600084291    0.0752761328507284    0.0705995035827802    
  0.06728197967269531    0.06531109833117155    0.06465865421028832    0.0653110983311716    0.06336029054926787    
  0.0646586542102884    0.06728197967269549    0.07126025936783296    0.07659134767426189    0.08320931963558396    
  0.09096860109675983    0.09964238180531108    0.10892127689763355    0.11840171297050023    0.1275761594383275    
  0.13585675778642303    0.14265009426974376    0.14745658429652697    0.14993997616143848    0.14993997616143837    
  0.14745658429652672    0.1426500942697435    0.13585675778642273    0.12757615943832706    0.11840171297049963    
  0.10892127689763272    0.09964238180531035    0.0909686010967591    0.08320931963558344    0.07659134767426158    
  0.07126025936783273    0.06728197967269535    0.06465865421028835    0.0633602905492678    0.06336029054926787    
  0.0627151454925483    0.0633602905492679    0.06531109833117163    0.06860140202536712    0.07325198712122397    
  0.07923390139311333    0.08644261812296793    0.09469041433000329    0.1037084822350816    0.11314223053221559    
  0.12253722576688587    0.13134039967335503    0.13894842188950265    0.14480173909464164    0.1484770046072125    
  0.14972806644471295    0.14847700460721241    0.14480173909464142    0.1389484218895024    0.13134039967335465    
  0.12253722576688533    0.11314223053221481    0.1037084822350808    0.0946904143300025    0.08644261812296726    
  0.07923390139311283    0.07325198712122365    0.06860140202536692    0.06531109833117157    0.06336029054926785    
  0.0627151454925483    0.06350363281824509    0.064162981061886    0.06615719022868084    0.06952129803472734    
  0.07427563156188571    0.08038854621212686    0.08775179821124254    0.09617387751005882    0.10538135244882221    
  0.11501278634022336    0.12460469300991735    0.13359408332043804    0.1413674061208368    0.14735360212271376    
  0.15111633413042283    0.1523980950375135    0.1511163341304228    0.14735360212271367    0.14136740612083648    
  0.1335940833204377    0.12460469300991676    0.1150127863402226    0.10538135244882141    0.09617387751005804    
  0.08775179821124185    0.08038854621212636    0.07427563156188542    0.06952129803472715    0.06615719022868079    
  0.06416298106188593    0.06350363281824509    0.064162981061886    0.06416298106188598    0.06543095153580222    
  0.06799128890178076    0.07187072644879768    0.0770648760576728    0.08350864926527461    0.0910609649010844    
  0.09950170498441435    0.10852844226450929    0.11774492897271681    0.12665403265959604    0.1346840380882695    
  0.14126268277046797    0.14591198350347762    0.14831240711914423    0.14831240711914423    0.1459119835034774    
  0.1412626827704677    0.13468403808826926    0.12665403265959552    0.11774492897271611    0.10852844226450847    
  0.09950170498441346    0.09106096490108372    0.083508649265274    0.07706487605767243    0.07187072644879741    
  0.06799128890178067    0.06543095153580215    0.064162981061886    0.06615719022868087    0.06554933966139478    
  0.06615719022868087    0.06799128890178076    0.07107313574140078    0.07541008646094993    0.08096758365943903    
  0.08764953994658717    0.09528893196856565    0.1036413637024707    0.11237394138574332    0.12105468634060396    
  0.12916399953746713    0.1361480599729533    0.14150489895119764    0.1448613192163834    0.14600266579986443    
  0.14486131921638337    0.1415048989511975    0.13614805997295304    0.12916399953746666    0.12105468634060337    
  0.11237394138574257    0.10364136370246986    0.09528893196856489    0.08764953994658654    0.08096758365943854    
  0.07541008646094959    0.07107313574140062    0.06799128890178066    0.06615719022868087    0.06952129803472731    
  0.06835283642973473    0.06835283642973473    0.06952129803472731    0.0718707264487976    0.07541008646094992    
  0.08012214514801765    0.08594454643718354    0.09275750591510461    0.10037314244990975    0.108521187963996    
  0.11683493276545172    0.1248532877355158    0.13205704230670698    0.13794009225199977    0.14208822455383477    
  0.14422724678420157    0.1442272467842015    0.14208822455383463    0.1379400922519996    0.13205704230670662    
  0.12485328773551516    0.11683493276545101    0.10852118796399522    0.10037314244990897    0.09275750591510386    
  0.08594454643718295    0.08012214514801726    0.07541008646094972    0.07187072644879751    0.06952129803472731    
  0.07427563156188562    0.0726074871155582    0.07205310284536479    0.07260748711555821    0.07427563156188563    
  0.07706487605767268    0.08096758365943892    0.08594454643718347    0.09191321675029254    0.09873589149125318    
  0.10620253539136336    0.11401224681089035    0.12176761254474677    0.12899752580618196    0.13521236094227643    
  0.13997537084948383    0.14296058956336544    0.14397627453565542    0.1429605895633653    0.13997537084948375    
  0.13521236094227612    0.12899752580618148    0.12176761254474623    0.11401224681088964    0.10620253539136261    
  0.09873589149125242    0.09191321675029188    0.08594454643718298    0.08096758365943862    0.07706487605767252    
  0.07427563156188562    0.0803885462121266    0.07831049948219376    0.07727452453806759    0.07727452453806759    
  0.07831049948219376    0.08038854621212667    0.08350864926527433    0.08764953994658702    0.09275750591510451    
  0.09873589149125313    0.1054283647891691    0.11259775726016724    0.11991380837053384    0.12696476124690664    
  0.1332973822245949    0.13847535678287426    0.14213633828622077    0.14402958593318912    0.14402958593318907    
  0.1421363382862207    0.1384753567828742    0.1332973822245946    0.12696476124690617    0.11991380837053332    
  0.1125977572601666    0.10542836478916838    0.09873589149125249    0.09275750591510394    0.08764953994658668    
  0.0835086492652742    0.0803885462121266    0.0877517982112421    0.08538946162538943    0.08397765404738217    
  0.08350864635614319    0.08397765404738218    0.0853894616253894    0.08775179821124217    0.09106096490108416    
  0.09528893196856547    0.10037314244990964    0.10620253539136341    0.11259775726016724    0.11929549340051689    
  0.1259512105500041    0.13216567158356554    0.13752798579857703    0.14166274112219035    0.1442714012606967    
  0.1451628425981479    0.1442714012606967    0.14166274112219013    0.13752798579857686    0.13216567158356526    
  0.1259512105500037    0.1192954934005163    0.11259775726016658    0.1062025353913627    0.10037314244990905    
  0.09528893196856511    0.09106096490108395    0.0877517982112421    0.09617387751005835    0.09368798258996938    
  0.09204504067724957    0.0912304275776818    0.09123042757768178    0.09204504067724953    0.09368798258996945    
  0.09617387751005842    0.099501704984414    0.10364136370247046    0.10852118796399593    0.11401224681089035    
  0.11991380837053389    0.12595121055000413    0.13179187128028116    0.13707369133402342    0.14143699866463988    
  0.14455817919026565    0.14618753760769332    0.14618753760769337    0.14455817919026556    0.1414369986646397    
  0.13707369133402325    0.1317918712802808    0.12595121055000372    0.11991380837053339    0.11401224681088978    
  0.10852118796399536    0.10364136370247017    0.09950170498441376    0.09617387751005835    0.10538135244882174    
  0.10296514926849898    0.1012744078338014    0.10028099334016281    0.09995423149281199    0.10028099334016279    
  0.1012744078338013    0.10296514926849887    0.10538135244882177    0.108528442264509    0.1123739413857432    
  0.11683493276545169    0.12176761254474688    0.12696476124690673    0.1321656715835657    0.1370736913340235    
  0.14137313984000488    0.14474746238071903    0.14691073682796957    0.14765709122157508    0.14691073682796943    
  0.14474746238071884    0.14137313984000466    0.13707369133402328    0.1321656715835654    0.1269647612469063    
  0.12176761254474641    0.11683493276545132    0.11237394138574287    0.10852844226450885    0.10538135244882174    
  0.11501278634022298    0.11289324536689922    0.11137455855627301    0.11041178889806684    0.10994940943471318    
  0.10994940943471315    0.1104117888980667    0.11137455855627286    0.11289324536689908    0.11501278634022288    
  0.11774492897271653    0.12105468634060396    0.12485328773551586    0.12899752580618207    0.13329738222459514    