#     DFTpy    
  CRYSTAL 
    
  PRIMVEC    
  1.1489558230007202    -1.9900498610893604    0.0    
  1.1489558230007202    1.9900498610893604    0.0    
  0.0    0.0    3.8847148879310303    
  PRIMCOORD    
  2    1    
  Si    1.1489558230007202    0.6633499536964502    0.9711787219827602    
  Si    1.1489558230007202    -0.6633499536964502    2.913536165948281    
  BEGIN_BLOCK_DATAGRID_3D    
  3d_datagrid_density    
  BEGIN_DATAGRID_3D#0    
  25    25    41    
  0.0    0.0    0.0    
  1.1489558272863474    -1.9900498685122843    0.0    
  1.1489558272863474    1.9900498685122843    0.0    
  0.0    0.0    3.884714902421091    
  0.29563175232879046    0.2986287690593195    0.30755189305371233    0.32213237346889495    0.34175948573786497    
  0.3653809856815948    0.3915307948122292    0.4184674445909607    0.4443274050073712    0.4672219178181195    
  0.4853112334305319    0.49695574479105026    0.5009810944076696    0.4969557447910503    0.4853112334305318    
  0.4672219178181194    0.4443274050073715    0.41846744459096114    0.39153079481222974    0.3653809856815955    
  0.3417594857378657    0.32213237346889567    0.30755189305371283    0.29862876905931984    0.29563175232879046    
  0.29862876905931984    0.2986287690593196    0.3045903047728747    0.31635176790621894    0.3334785485972187    
  0.3551336352605528    0.3800410802221486    0.40657951775172824    0.4329416329289638    0.45726359414385154    
  0.4777015294626175    0.4925306296965814    0.5003476511249267    0.5003476511249267    0.4925306296965815    
  0.4777015294626176    0.45726359414385154    0.43294163292896426    0.4065795177517286    0.38004108022214916    
  0.3551336352605537    0.33347854859721937    0.3163517679062196    0.30459030477287524    0.29862876905931984    
  0.3075518930537131    0.30459030477287524    0.3075518930537127    0.31635176790621916    0.33067919303550586    
  0.34987746179004897    0.3728650439960332    0.3981743891889666    0.42409305991701723    0.4488202108435698    
  0.47057128912887425    0.48765444435003963    0.49859977007343903    0.5023736454786009    0.49859977007343886    
  0.48765444435003963    0.47057128912887425    0.4488202108435702    0.42409305991701784    0.3981743891889672    
  0.372865043996034    0.34987746179004997    0.3306791930355066    0.3163517679062198    0.3075518930537131    
  0.32213237346889584    0.31635176790621955    0.3163517679062195    0.3221323734688954    0.3334785485972188    
  0.34987746179004897    0.3704279505962978    0.3938318877077629    0.4184982542755232    0.44270791375007407    
  0.4647569198497178    0.4830475409968802    0.4961707262566548    0.503035573212541    0.503035573212541    
  0.4961707262566549    0.4830475409968802    0.4647569198497179    0.44270791375007446    0.4184982542755239    
  0.3938318877077639    0.37042795059629885    0.34987746179005    0.33347854859721965    0.32213237346889584    
  0.34175948573786613    0.3334785485972195    0.33067919303550636    0.33347854859721915    0.34175948573786524    
  0.35513363526055286    0.372865043996033    0.3938318877077629    0.4165858637735916    0.4395023569605231    
  0.46095476022256465    0.4794469325646604    0.4936930911193625    0.5026820908598195    0.5057552211667351    
  0.5026820908598197    0.4936930911193625    0.4794469325646605    0.46095476022256515    0.43950235696052387    
  0.4165858637735927    0.39383188770776417    0.3728650439960344    0.35513363526055414    0.34175948573786613    
  0.3653809856815963    0.35513363526055397    0.3498774617900498    0.3498774617900496    0.3551336352605533    
  0.365380985681595    0.38004108022214855    0.39817438918896647    0.4184982542755231    0.4395023569605232    
  0.45963212690448163    0.477468931130106    0.49184802991350124    0.5019039795533803    0.5070711624987485    
  0.5070711624987485    0.5019039795533802    0.49184802991350135    0.47746893113010636    0.45963212690448224    
  0.4395023569605242    0.4184982542755247    0.3981743891889681    0.3800410802221502    0.3653809856815963    
  0.3915307948122308    0.38004108022215005    0.3728650439960342    0.3704279505962985    0.37286504399603365    
  0.3800410802221487    0.3915307948122292    0.406579517751728    0.42409305991701707    0.4427079137500739    
  0.4609547602225646    0.4774689311301061    0.49116599779689324    0.5013184005988758    0.5075237464590069    
  0.5096071689053256    0.5075237464590069    0.5013184005988759    0.49116599779689324    0.4774689311301067    
  0.4609547602225656    0.4427079137500752    0.42409305991701873    0.40657951775172985    0.3915307948122308    
  0.41846744459096225    0.4065795177517298    0.3981743891889678    0.3938318877077638    0.3938318877077634    
  0.3981743891889666    0.406579517751728    0.4184674445909605    0.43294163292896354    0.44882021084356966    
  0.4647569198497177    0.4794469325646605    0.4918480299135014    0.501318400598876    0.5076082846174088    
  0.5107200539693807    0.5107200539693806    0.5076082846174089    0.5013184005988759    0.4918480299135015    
  0.479446932564661    0.46475691984971884    0.44882021084357127    0.4329416329289654    0.41846744459096225    
  0.4443274050073727    0.4329416329289653    0.42409305991701857    0.41849825427552423    0.41658586377359225    
  0.4184982542755234    0.42409305991701707    0.4329416329289634    0.4443274050073707    0.45726359414385115    
  0.47057128912887386    0.4830475409968803    0.4936930911193628    0.5019039795533806    0.5075237464590073    
  0.5107200539693809    0.5117470646991036    0.5107200539693807    0.5075237464590071    0.5019039795533806    
  0.4936930911193631    0.48304754099688124    0.47057128912887525    0.4572635941438528    0.4443274050073727    
  0.46722191781812045    0.4572635941438528    0.44882021084357127    0.4427079137500752    0.4395023569605239    
  0.43950235696052337    0.44270791375007396    0.44882021084356954    0.4572635941438509    0.46722191781811884    
  0.4777015294626171    0.48765444435003963    0.4961707262566552    0.5026820908598203    0.5070711624987492    
  0.5096071689053261    0.5107200539693808    0.5107200539693808    0.5096071689053258    0.5070711624987488    
  0.5026820908598201    0.4961707262566555    0.4876544443500406    0.4777015294626186    0.46722191781812045    
  0.4853112334305328    0.47770152946261885    0.4705712891288755    0.464756919849719    0.4609547602225657    
  0.45963212690448235    0.46095476022256504    0.4647569198497178    0.47057128912887386    0.4777015294626171    
  0.48531123343053134    0.4925306296965815    0.49859977007343953    0.5030355732125417    0.505755221166736    
  0.5070711624987493    0.5075237464590074    0.5076082846174093    0.5075237464590071    0.5070711624987487    
  0.5057552211667354    0.5030355732125417    0.49859977007343964    0.4925306296965822    0.4853112334305328    
  0.4969557447910507    0.49253062969658257    0.48765444435004124    0.4830475409968817    0.47944693256466164    
  0.477468931130107    0.4774689311301067    0.4794469325646606    0.4830475409968803    0.48765444435003963    
  0.49253062969658135    0.49695574479104987    0.5003476511249271    0.5023736454786015    0.5030355732125419    
  0.5026820908598205    0.501903979553381    0.5013184005988763    0.5013184005988761    0.5019039795533804    
  0.5026820908598197    0.5030355732125412    0.5023736454786012    0.5003476511249271    0.4969557447910507    
  0.5009810944076694    0.5003476511249273    0.4985997700734402    0.49617072625665615    0.4936930911193638    
  0.4918480299135023    0.4911659977968939    0.4918480299135019    0.4936930911193628    0.4961707262566551    
  0.49859977007343914    0.5003476511249267    0.5009810944076696    0.5003476511249272    0.4985997700734397    
  0.49617072625665576    0.4936930911193634    0.4918480299135019    0.4911659977968935    0.49184802991350135    
  0.4936930911193625    0.4961707262566548    0.49859977007343886    0.5003476511249266    0.5009810944076694    
  0.49695574479104976    0.500347651124927    0.5023736454786017    0.5030355732125424    0.5026820908598211    
  0.5019039795533815    0.5013184005988769    0.5013184005988767    0.501903979553381    0.5026820908598203    
  0.5030355732125416    0.5023736454786013    0.5003476511249271    0.49695574479105054    0.4925306296965822    
  0.48765444435004063    0.48304754099688113    0.47944693256466125    0.47746893113010647    0.4774689311301063    
  0.4794469325646603    0.48304754099688    0.4876544443500391    0.49253062969658107    0.49695574479104976    
  0.4853112334305311    0.4925306296965814    0.4985997700734394    0.5030355732125422    0.5057552211667367    
  0.50707116249875    0.5075237464590082    0.50760828461741    0.507523746459008    0.5070711624987495    
  0.505755221166736    0.5030355732125418    0.49859977007343964    0.4925306296965818    0.48531123343053223    
  0.47770152946261835    0.4705712891288751    0.46475691984971873    0.46095476022256526    0.4596321269044819    
  0.46095476022256465    0.46475691984971734    0.47057128912887347    0.47770152946261685    0.4853112334305311    
  0.4672219178181181    0.47770152946261685    0.48765444435003974    0.49617072625665537    0.5026820908598206    
  0.5070711624987498    0.509607168905327    0.5107200539693819    0.5107200539693817    0.5096071689053268    
  0.5070711624987496    0.5026820908598205    0.49617072625665576    0.48765444435004035    0.47770152946261807    
  0.46722191781812017    0.4572635941438524    0.44882021084357065    0.4427079137500746    0.43950235696052337    
  0.439502356960523    0.4427079137500735    0.448820210843569    0.4572635941438505    0.4672219178181181    
  0.4443274050073699    0.4572635941438506    0.4705712891288736    0.48304754099688046    0.49369309111936316    
  0.5019039795533813    0.5075237464590082    0.510720053969382    0.5117470646991047    0.5107200539693818    
  0.5075237464590081    0.5019039795533813    0.49369309111936355    0.48304754099688113    0.47057128912887486    
  0.45726359414385226    0.44432740500737195    0.43294163292896465    0.424093059917018    0.4184982542755235    
  0.41658586377359164    0.41849825427552284    0.4240930599170165    0.4329416329289627    0.4443274050073699    
  0.4184674445909596    0.43294163292896276    0.4488202108435691    0.4647569198497176    0.47944693256466075    
  0.49184802991350207    0.5013184005988771    0.5076082846174104    0.510720053969382    0.510720053969382    
  0.5076082846174103    0.501318400598877    0.49184802991350235    0.4794469325646614    0.4647569198497186    
  0.44882021084357065    0.43294163292896454    0.4184674445909615    0.4065795177517287    0.3981743891889668    
  0.39383188770776306    0.3938318877077627    0.39817438918896597    0.4065795177517273    0.4184674445909596    
  0.39153079481222824    0.4065795177517271    0.42409305991701624    0.4427079137500734    0.4609547602225649    
  0.4774689311301066    0.4911659977968941    0.5013184005988772    0.5075237464590086    0.5096071689053273    
  0.5075237464590086    0.5013184005988771    0.4911659977968944    0.47746893113010713    0.4609547602225656    
  0.44270791375007484    0.424093059917018    0.4065795177517289    0.3915307948122298    0.38004108022214894    
  0.3728650439960333    0.37042795059629746    0.37286504399603254    0.38004108022214783    0.39153079481222824    
  0.36538098568159405    0.3800410802221478    0.3981743891889657    0.4184982542755226    0.4395023569605229    
  0.4596321269044818    0.47746893113010674    0.49184802991350235    0.5019039795533818    0.5070711624987503    
  0.5070711624987502    0.5019039795533818    0.49184802991350257    0.47746893113010724    0.45963212690448246    
  0.43950235696052403    0.41849825427552395    0.3981743891889672    0.3800410802221491    0.36538098568159527    
  0.3551336352605531    0.3498774617900488    0.3498774617900486    0.3551336352605522    0.36538098568159405    
  0.34175948573786424    0.35513363526055186    0.3728650439960324    0.3938318877077623    0.4165858637735912    
  0.4395023569605231    0.46095476022256526    0.4794469325646613    0.49369309111936366    0.5026820908598212    
  0.5057552211667367    0.5026820908598213    0.4936930911193638    0.47944693256466153    0.4609547602225656    
  0.43950235696052403    0.41658586377359214    0.39383188770776345    0.37286504399603354    0.35513363526055325    
  0.3417594857378653    0.3334785485972186    0.33067919303550536    0.33347854859721815    0.34175948573786424    
  0.32213237346889456    0.333478548597218    0.34987746179004825    0.3704279505962972    0.3938318877077625    
  0.418498254275523    0.44270791375007407    0.4647569198497183    0.48304754099688124    0.49617072625665615    
  0.5030355732125424    0.5030355732125426    0.49617072625665604    0.4830475409968814    0.46475691984971873    
  0.44270791375007473    0.41849825427552373    0.3938318877077634    0.37042795059629813    0.34987746179004936    
  0.3334785485972189    0.3221323734688952    0.31635176790621894    0.3163517679062187    0.32213237346889456    
  0.3075518930537122    0.31635176790621855    0.33067919303550525    0.3498774617900485    0.3728650439960328    
  0.3981743891889663    0.42409305991701723    0.44882021084357004    0.4705712891288747    0.48765444435004063    
  0.4985997700734399    0.5023736454786021    0.4985997700734401    0.48765444435004046    0.4705712891288746    
  0.4488202108435704    0.42409305991701773    0.398174389188967    0.37286504399603354    0.34987746179004936    
  0.3306791930355062    0.31635176790621916    0.30755189305371256    0.3045903047728746    0.3075518930537122    
  0.29862876905931934    0.3045903047728745    0.3163517679062188    0.33347854859721826    0.3551336352605525    
  0.3800410802221485    0.406579517751728    0.4329416329289639    0.4572635941438518    0.477701529462618    
  0.49253062969658196    0.5003476511249272    0.5003476511249273    0.4925306296965819    0.4777015294626178    
  0.45726359414385187    0.43294163292896426    0.4065795177517287    0.38004108022214916    0.3551336352605533    
  0.3334785485972191    0.31635176790621927    0.30459030477287485    0.2986287690593195    0.29862876905931934    
  0.29563175232879046    0.2986287690593195    0.30755189305371233    0.32213237346889495    0.34175948573786497    
  0.3653809856815948    0.3915307948122292    0.4184674445909607    0.4443274050073712    0.4672219178181195    
  0.4853112334305319    0.49695574479105026    0.5009810944076696    0.4969557447910503    0.4853112334305318    
  0.4672219178181194    0.4443274050073715    0.41846744459096114    0.39153079481222974    0.3653809856815955    
  0.3417594857378657    0.32213237346889567    0.30755189305371283    0.29862876905931984    0.29563175232879046    
  0.2999396653438851    0.30293364764940156    0.31184297374981074    0.3263863797744718    0.34593611205984753    
  0.369420937165859    0.39535559451978136    0.42198401238425987    0.4474443683337096    0.46988180185450346    
  0.48753044813742236    0.4988504319434765    0.502755762598916    0.4988504319434766    0.48753044813742236    
  0.4698818018545036    0.4474443683337099    0.42198401238426037    0.39535559451978197    0.36942093716585966    
  0.3459361120598483    0.3263863797744726    0.3118429737498113    0.3029336476494019    0.2999396653438851    
  0.30293364764940195    0.3029336476494017    0.3087386460057245    0.320197544867739    0.336891775232637    
  0.357999612268386    0.38225739459556574    0.40805845775595795    0.433624259765994    0.45714469288730875    
  0.4768559898349949    0.49112739023779095    0.4986403699668752    0.4986403699668752    0.4911273902377912    
  0.47685598983499516    0.45714469288730897    0.4336242597659944    0.40805845775595845    0.38225739459556635    
  0.3579996122683869    0.33689177523263775    0.32019754486773966    0.30873864600572504    0.30293364764940195    
  0.3118429737498115    0.3090343212582226    0.3118429737498112    0.3201975448677392    0.33382227647765494    
  0.3521046798295348    0.3740077988802578    0.39811155947207416    0.42276612761696164    0.44625788923080817    
  0.46690816403273316    0.48312831519355276    0.49352667916014076    0.49711374138947795    0.49352667916014054    
  0.483128315193553    0.46690816403273344    0.44625788923080867    0.4227661276169622    0.39811155947207477    
  0.37400779888025865    0.35210467982953586    0.3338222764776558    0.3201975448677398    0.3118429737498115    
  0.3263863797744728    0.32104351098833667    0.32104351098833656    0.32638637977447227    0.3368917752326372    
  0.3521046798295348    0.37119246099357633    0.39293549297659736    0.41584347723758175    0.43832991508731023    
  0.45884226089307484    0.4759152544337499    0.4882170461882992    0.49467519888716033    0.4946751988871604    
  0.4882170461882992    0.4759152544337499    0.4588422608930751    0.4383299150873107    0.4158434772375826    
  0.39293549297659847    0.3711924609935775    0.35210467982953597    0.3368917752326381    0.3263863797744728    
  0.34593611205984875    0.3384775271224403    0.33595889282328073    0.33847752712243984    0.34593611205984776    
  0.35799961226838606    0.3740077988802576    0.3929354929765973    0.41346593840007906    0.4341545091489397    
  0.45358719658526503    0.4704571528896221    0.4835798220069313    0.49193823635082057    0.4948124328255687    
  0.4919382363508207    0.4835798220069314    0.47045715288962237    0.4535871965852656    0.4341545091489405    
  0.4134659384000803    0.39293549297659874    0.37400779888025903    0.35799961226838733    0.34593611205984875    
  0.36942093716586055    0.3604458230051677    0.3558441075242136    0.3558441075242133    0.36044582300516687    
  0.36942093716585916    0.3822573945955656    0.398111559472074    0.4158434772375817    0.4341545091489397    
  0.451762065826513    0.4675144937890803    0.4804115313502408    0.489592121093171    0.49437671767511615    
  0.49437671767511626    0.4895921210931709    0.480411531350241    0.46751449378908067    0.4517620658265136    
  0.4341545091489409    0.4158434772375833    0.3981115594720756    0.3822573945955673    0.36942093716586055    
  0.395355594519783    0.3856207097706679    0.3795291622495844    0.3774590674068412    0.37952916224958383    
  0.3856207097706666    0.3953555945197813    0.40805845775595767    0.42276612761696136    0.43832991508731    
  0.4535871965852649    0.4675144937890803    0.4792852430265245    0.4882410610591802    0.49385835238122566    
  0.49577501042745226    0.4938583523812256    0.4882410610591804    0.4792852430265246    0.46751449378908094    
  0.45358719658526614    0.43832991508731145    0.42276612761696325    0.40805845775595967    0.395355594519783    
  0.4219840123842615    0.41233026678022155    0.40545813946089626    0.401894476673165    0.40189447667316464    
  0.40545813946089493    0.4123302667802197    0.4219840123842596    0.4336242597659936    0.44625788923080784    
  0.4588422608930748    0.47045715288962237    0.48041153135024106    0.48824106105918047    0.4936378625141511    
  0.49639334426020565    0.49639334426020554    0.4936378625141512    0.4882410610591804    0.48041153135024117    
  0.4704571528896229    0.45884226089307606    0.4462578892308096    0.4336242597659955    0.4219840123842615    
  0.44744436833371115    0.4387226347827201    0.4318275875908493    0.427418081048518    0.42590245346913724    
  0.4274180810485171    0.43182758759084783    0.43872263478271817    0.44744436833370904    0.4571446928873084    
  0.466908164032733    0.4759152544337499    0.48357982200693156    0.48959212109317135    0.49385835238122594    
  0.4963933442602058    0.4972332148513089    0.49639334426020554    0.4938583523812258    0.4895921210931713    
  0.48357982200693195    0.4759152544337508    0.4669081640327344    0.45714469288731024    0.44744436833371115    
  0.4698818018545047    0.4629157455777722    0.4567615251001085    0.4521704851777702    0.4497188134126545    
  0.4497188134126539    0.452170485177769    0.4567615251001067    0.46291574557777015    0.4698818018545029    
  0.4768559898349945    0.483128315193553    0.4882170461882995    0.49193823635082123    0.4943767176751168    
  0.4957750104274526    0.4963933442602057    0.4963933442602057    0.4957750104274523    0.49437671767511643    
  0.4919382363508211    0.48821704618829975    0.4831283151935539    0.4768559898349963    0.4698818018545047    
  0.4875304481374234    0.4831009962803153    0.47845971332426146    0.47436384384861596    0.47154620562251287    
  0.4705415065301154    0.4715462056225121    0.47436384384861474    0.4784597133242596    0.4831009962803134    
  0.4875304481374218    0.49112739023779095    0.4935266791601412    0.494675198887161    0.4948124328255694    
  0.49437671767511693    0.49385835238122616    0.4936378625141515    0.4938583523812258    0.4943767176751164    
  0.4948124328255691    0.494675198887161    0.4935266791601413    0.4911273902377919    0.4875304481374234    
  0.49885043194347695    0.4976498412527995    0.49531054170076666    0.4924437163742727    0.48986024839656694    
  0.4883323504374345    0.4883323504374341    0.4898602483965659    0.4924437163742712    0.4953105417007651    
  0.49764984125279815    0.49885043194347606    0.4986403699668753    0.4971137413894786    0.49467519888716127    
  0.49193823635082157    0.4895921210931717    0.48824106105918086    0.4882410610591807    0.4895921210931711    
  0.49193823635082085    0.4946751988871606    0.4971137413894782    0.4986403699668755    0.49885043194347695    
  0.5027557625989157    0.5052828685859986    0.5060049196758066    0.5051910400476952    0.5035602373265112    
  0.5020478627394083    0.5014413531938979    0.5020478627394078    0.5035602373265103    0.505191040047694    
  0.5060049196758054    0.5052828685859978    0.5027557625989157    0.49864036996687555    0.49352667916014137    
  0.48821704618830014    0.4835798220069321    0.48041153135024145    0.47928524302652475    0.4804115313502409    
  0.4835798220069314    0.4882170461882991    0.49352667916014054    0.4986403699668751    0.5027557625989157    
  0.49885043194347606    0.5052828685859981    0.5096722032728201    0.5117746428016371    0.5119857872411122    
  0.5112129787341461    0.5104876540699211    0.5104876540699208    0.5112129787341455    0.5119857872411113    
  0.5117746428016362    0.5096722032728195    0.5052828685859981    0.49885043194347667    0.49112739023779173    
  0.4831283151935539    0.4759152544337508    0.47045715288962303    0.4675144937890807    0.46751449378908055    
  0.4704571528896221    0.4759152544337496    0.4831283151935524    0.4911273902377906    0.49885043194347606    
  0.4875304481374215    0.49764984125279826    0.506004919675806    0.511774642801637    0.5148232299897636    
  0.5157610221905021    0.5156535942601167    0.5154855255896857    0.5156535942601163    0.5157610221905016    
  0.5148232299897627    0.5117746428016363    0.506004919675806    0.49764984125279865    0.48753044813742274    
  0.4768559898349957    0.4669081640327341    0.4588422608930757    0.4535871965852656    0.4517620658265132    
  0.45358719658526503    0.4588422608930745    0.4669081640327324    0.4768559898349942    0.4875304481374215    
  0.4698818018545021    0.4831009962803131    0.49531054170076527    0.5051910400476944    0.5119857872411119    
  0.515761022190502    0.5173155050194322    0.5177210632507306    0.5177210632507304    0.5173155050194318    
  0.5157610221905017    0.5119857872411117    0.5051910400476946    0.4953105417007657    0.48310099628031433    
  0.46988180185450407    0.4571446928873097    0.44625788923080884    0.4383299150873107    0.43415450914893994    
  0.43415450914893966    0.4383299150873097    0.44625788923080734    0.45714469288730775    0.4698818018545021    
  0.44744436833370826    0.46291574557776966    0.4784597133242594    0.4924437163742715    0.5035602373265107    
  0.5112129787341461    0.5156535942601168    0.5177210632507309    0.518288461757793    0.5177210632507306    
  0.5156535942601165    0.511212978734146    0.5035602373265109    0.49244371637427203    0.4784597133242605    
  0.46291574557777143    0.44744436833371026    0.4336242597659948    0.4227661276169623    0.415843477237582    
  0.4134659384000791    0.41584347723758147    0.4227661276169609    0.4336242597659929    0.44744436833370826    
  0.42198401238425864    0.4387226347827175    0.4567615251001063    0.47436384384861446    0.4898602483965662    
  0.502047862739408    0.5104876540699214    0.5154855255896861    0.5177210632507309    0.5177210632507309    
  0.515485525589686    0.5104876540699211    0.5020478627394083    0.4898602483965668    0.4743638438486155    
  0.4567615251001078    0.4387226347827193    0.42198401238426064    0.4080584577559583    0.39811155947207433    
  0.3929354929765976    0.3929354929765972    0.39811155947207355    0.40805845775595706    0.42198401238425864    
  0.3953555945197804    0.4123302667802189    0.4318275875908471    0.45217048517776853    0.4715462056225119    
  0.48833235043743406    0.5014413531938983    0.5104876540699215    0.5156535942601169    0.5173155050194324    
  0.5156535942601169    0.5104876540699214    0.5014413531938985    0.4883323504374346    0.47154620562251265    
  0.4521704851777698    0.43182758759084877    0.41233026678022056    0.3953555945197819    0.38225739459556596    
  0.37400779888025787    0.371192460993576    0.37400779888025715    0.3822573945955649    0.3953555945197804    
  0.3694209371658583    0.3856207097706656    0.40545813946089415    0.42741808104851636    0.44971881341265346    
  0.47054150653011484    0.48833235043743434    0.5020478627394085    0.5112129787341464    0.5157610221905025    
  0.5157610221905022    0.5112129787341463    0.5020478627394086    0.4883323504374348    0.4705415065301155    
  0.44971881341265457    0.42741808104851764    0.40545813946089554    0.3856207097706669    0.3694209371658594    
  0.3579996122683862    0.35210467982953464    0.3521046798295345    0.35799961226838534    0.3694209371658583    
  0.34593611205984687    0.36044582300516564    0.37952916224958255    0.40189447667316347    0.42590245346913624    
  0.44971881341265363    0.4715462056225123    0.48986024839656667    0.5035602373265112    0.5119857872411124    
  0.5148232299897637    0.5119857872411124    0.5035602373265113    0.48986024839656694    0.47154620562251276    
  0.44971881341265457    0.4259024534691372    0.4018944766731647    0.3795291622495837    0.3604458230051668    
  0.34593611205984787    0.33689177523263697    0.3338222764776545    0.3368917752326365    0.34593611205984687    
  0.3263863797744715    0.3384775271224388    0.35584410752421197    0.37745906740684    0.40189447667316375    
  0.42741808104851664    0.4521704851777691    0.47436384384861513    0.49244371637427214    0.5051910400476953    
  0.5117746428016372    0.5117746428016372    0.5051910400476951    0.4924437163742725    0.4743638438486156    
  0.45217048517776975    0.4274180810485175    0.4018944766731647    0.3774590674068408    0.3558441075242131    
  0.33847752712243967    0.3263863797744721    0.32019754486773894    0.3201975448677387    0.3263863797744715    
  0.31184297374981057    0.32104351098833567    0.3359588928232796    0.3558441075242123    0.37952916224958305    
  0.4054581394608947    0.431827587590848    0.45676152510010737    0.4784597133242604    0.4953105417007661    
  0.5060049196758065    0.5096722032728205    0.5060049196758066    0.4953105417007661    0.4784597133242605    
  0.45676152510010765    0.4318275875908485    0.40545813946089543    0.3795291622495838    0.3558441075242131    
  0.33595889282328056    0.3210435109883362    0.31184297374981096    0.30873864600572437    0.31184297374981057    
  0.30293364764940145    0.30903432125822194    0.3210435109883359    0.33847752712243906    0.36044582300516625    
  0.38562070977066637    0.41233026678021983    0.4387226347827186    0.4629157455777709    0.4831009962803142    
  0.49764984125279893    0.5052828685859985    0.5052828685859985    0.4976498412527988    0.4831009962803142    
  0.46291574557777126    0.4387226347827191    0.4123302667802205    0.38562070977066704    0.360445823005167    
  0.33847752712243984    0.32104351098833633    0.3090343212582223    0.30293364764940156    0.30293364764940145    
  0.2999396653438851    0.30293364764940156    0.31184297374981074    0.3263863797744718    0.34593611205984753    
  0.369420937165859    0.39535559451978136    0.42198401238425987    0.4474443683337096    0.46988180185450346    
  0.48753044813742236    0.4988504319434765    0.502755762598916    0.4988504319434766    0.48753044813742236    
  0.4698818018545036    0.4474443683337099    0.42198401238426037    0.39535559451978197    0.36942093716585966    
  0.3459361120598483    0.3263863797744726    0.3118429737498113    0.3029336476494019    0.2999396653438851    
  0.31268270053965685    0.315663006072444    0.32451589088620053    0.33891981128909004    0.3581939251790181    
  0.38120930842081274    0.4064227391042149    0.43203449043496106    0.4561915178221507    0.4771508177997343    
  0.49338396186761835    0.5036665900816482    0.5071892779393183    0.5036665900816483    0.49338396186761846    
  0.47715081779973456    0.4561915178221511    0.4320344904349616    0.4064227391042156    0.3812093084208136    
  0.358193925179019    0.3389198112890908    0.3245158908862011    0.31566300607244435    0.31268270053965685    
  0.3156630060724444    0.31566300607244413    0.3212895776950932    0.33238494186436396    0.3485180737320298    