#     DFTpy    
  CRYSTAL 
    
  PRIMVEC    
  1.7004546180410702    -2.9452737944122602    0.0    
  1.7004546180410702    2.9452737944122602    0.0    
  0.0    0.0    5.749378034137931    
  PRIMCOORD    
  2    1    
  Si    1.7004546180410702    0.9817579314707501    1.4373445085344805    
  Si    1.7004546180410702    -0.9817579314707501    4.312033525603451    
  BEGIN_BLOCK_DATAGRID_3D    
  3d_datagrid_density    
  BEGIN_DATAGRID_3D#0    
  33    33    55    
  0.0    0.0    0.0    
  1.7004546243837986    -2.9452738053981875    0.0    
  1.7004546243837986    2.9452738053981875    0.0    
  0.0    0.0    5.749378055583221    
  0.036430169131078965    0.03677592216752421    0.03781611400616225    0.039555405374357436    0.041991902286642256    
  0.04511227528557594    0.04889133933865126    0.05328729000062091    0.058224454102574354    0.0635698651061078    
  0.06912156894192682    0.07461853915519981    0.07976291412388051    0.08423994040597069    0.08773617067214    
  0.08996992331712367    0.09073922554992711    0.0899699233171236    0.08773617067213985    0.08423994040597048    
  0.07976291412388015    0.07461853915519927    0.0691215689419262    0.06356986510610711    0.05822445410257358    
  0.05328729000062019    0.048891339338650634    0.04511227528557547    0.04199190228664198    0.039555405374357255    
  0.03781611400616215    0.03677592216752415    0.036430169131078965    0.036775922167524205    0.03677592216752421    
  0.03746902492599244    0.03885972329106895    0.04095046295810994    0.04373481158916975    0.04719507139061514    
  0.05130014083850029    0.05599407059896281    0.06117406987222044    0.06667155944452122    0.07225184406326193    
  0.0776320352561522    0.08250274409362442    0.08654554859529495    0.08945576492389239    0.09098294916549292    
  0.09098294916549286    0.08945576492389233    0.08654554859529483    0.08250274409362414    0.07763203525615178    
  0.07225184406326139    0.06667155944452051    0.061174069872219676    0.05599407059896205    0.05130014083849967    
  0.04719507139061462    0.043734811589169365    0.040950462958109723    0.03885972329106878    0.03746902492599233    
  0.036775922167524205    0.03781611400616221    0.03746902492599236    0.03781611400616223    0.03885972329106893    
  0.04060407934279433    0.04304945398023323    0.04618773414369897    0.049999207615058126    0.05444406306742118    
  0.05944405113511453    0.0648614282810395    0.07049023948953119    0.07606678905128855    0.08129012589630805    
  0.0858403541741006    0.08939694085670853    0.09167075715028067    0.09245412897953449    0.09167075715028061    
  0.08939694085670852    0.0858403541741004    0.0812901258963077    0.0760667890512881    0.07049023948953054    
  0.06486142828103877    0.05944405113511376    0.054444063067420445    0.049999207615057516    0.046187734143698485    
  0.04304945398023289    0.040604079342794135    0.0388597232910688    0.03781611400616221    0.039555405374357325    
  0.03885972329106884    0.0388597232910689    0.039555405374357394    0.0409504629581099    0.04304945398023318    
  0.04585369206451582    0.04935630576958381    0.053533535454925486    0.05832874303915208    0.06363203708799854    
  0.06926658116061339    0.07499124044047262    0.08051699406007175    0.08552584857887603    0.0896879135530203    
  0.09268630682334685    0.0942604549316607    0.09426045493166073    0.09268630682334685    0.08968791355302023    
  0.08552584857887582    0.08051699406007144    0.07499124044047216    0.06926658116061271    0.06363203708799778    
  0.05832874303915128    0.0535335354549248    0.04935630576958321    0.04585369206451541    0.04304945398023291    
  0.040950462958109744    0.039555405374357325    0.04199190228664208    0.04095046295810977    0.04060407934279427    
  0.040950462958109876    0.04199190228664215    0.04373481158916965    0.046187734143698866    0.0493563057695838    
  0.053233445438426834    0.057783680762292046    0.06292364643183125    0.06850593531760742    0.07431505907810804    
  0.08007779889364658    0.08548112804158009    0.09019045890930415    0.09387109170507185    0.09622333631253388    
  0.09703348743098222    0.09622333631253395    0.09387109170507181    0.0901904589093041    0.0854811280415799    
  0.08007779889364612    0.07431505907810747    0.06850593531760674    0.06292364643183046    0.057783680762291297    
  0.053233445438426154    0.04935630576958326    0.046187734143698526    0.043734811589169406    0.04199190228664208    
  0.04511227528557555    0.04373481158916949    0.04304945398023305    0.0430494539802331    0.04373481158916958    
  0.04511227528557572    0.047195071390614955    0.049999207615058015    0.05353353545492545    0.05778368076229203    
  0.06269277904163567    0.06814409277005003    0.07395176535881548    0.07986397348348172    0.0855770915200647    
  0.09075521216260508    0.09505234409437135    0.09814225554241064    0.09976189724838176    0.09976189724838182    
  0.09814225554241068    0.09505234409437133    0.09075521216260504    0.08557709152006443    0.07986397348348127    
  0.0739517653588149    0.06814409277004924    0.06269277904163487    0.057783680762291297    0.05353353545492485    
  0.049999207615057564    0.04719507139061466    0.04511227528557555    0.04889133933865072    0.04719507139061473    
  0.046187734143698714    0.045853692064515644    0.04618773414369874    0.04719507139061489    0.04889133933865095    
  0.0513001408385001    0.05444406306742102    0.05832874303915201    0.06292364643183129    0.06814409277005001    
  0.07383837913993922    0.07978374383259937    0.08569383910360186    0.09123675124571871    0.09605958157958243    
  0.09981781902716241    0.10221252169629644    0.10303579264993316    0.10221252169629642    0.09981781902716247    
  0.09605958157958239    0.09123675124571862    0.08569383910360155    0.07978374383259886    0.0738383791399386    
  0.06814409277004928    0.06292364643183047    0.05832874303915133    0.0544440630674205    0.0513001408384997    
  0.04889133933865072    0.05328729000062026    0.051300140838499826    0.04999920761505778    0.04935630576958358    
  0.04935630576958355    0.04999920761505788    0.05130014083850001    0.05328729000062054    0.0559940705989625    
  0.059444051135114404    0.06363203708799854    0.06850593531760749    0.07395176535881558    0.07978374383259941    
  0.0857436145740274    0.09151323979621385    0.09673938371839709    0.10106522039626481    0.10416544237803749    
  0.10578613712220593    0.10578613712220586    0.10416544237803747    0.10106522039626487    0.09673938371839705    
  0.09151323979621374    0.08574361457402706    0.0797837438325989    0.07395176535881494    0.06850593531760674    
  0.06363203708799786    0.059444051135113814    0.055994070598962095    0.05328729000062026    0.05822445410257366    
  0.055994070598962234    0.054444063067420764    0.05353353545492521    0.05323344543842654    0.05353353545492522    
  0.054444063067420854    0.05599407059896245    0.05822445410257398    0.0611740698722202    0.06486142828103944    
  0.06926658116061343    0.07431505907810815    0.07986397348348186    0.08569383910360194    0.09151323979621392    
  0.09697988118341934    0.1017330420918541    0.10542932814693672    0.10777930044908242    0.1085860744500799    
  0.10777930044908239    0.10542932814693669    0.10173304209185416    0.09697988118341924    0.0915132397962138    
  0.0856938391036016    0.07986397348348134    0.07431505907810752    0.06926658116061278    0.06486142828103886    
  0.06117406987221974    0.05822445410257366    0.06356986510610717    0.0611740698722199    0.0594440511351141    
  0.058328743039151705    0.05778368076229168    0.05778368076229176    0.058328743039151754    0.05944405113511419    
  0.061174069872220065    0.06356986510610747    0.066671559444521    0.0704902394895312    0.07499124044047278    
  0.0800777988936467    0.08557709152006486    0.09123675124571883    0.09673938371839717    0.10173304209185419    
  0.1058674619053935    0.10882909784652349    0.11037655262271125    0.11037655262271125    0.10882909784652336    
  0.10586746190539344    0.10173304209185417    0.0967393837183971    0.09123675124571866    0.08557709152006449    
  0.08007779889364622    0.07499124044047224    0.07049023948953066    0.06667155944452059    0.06356986510610717    
  0.06912156894192624    0.06667155944452073    0.06486142828103912    0.06363203708799822    0.0629236464318309    
  0.06269277904163534    0.06292364643183093    0.06363203708799821    0.06486142828103919    0.06667155944452088    
  0.06912156894192652    0.0722518440632618    0.0760667890512886    0.0805169940600719    0.0854811280415803    
  0.09075521216260529    0.09605958157958262    0.10106522039626496    0.1054293281469368    0.10882909784652346    
  0.11099330028123476    0.11173683234671086    0.11099330028123479    0.10882909784652343    0.1054293281469367    
  0.1010652203962649    0.09605958157958244    0.09075521216260507    0.08548112804157994    0.0805169940600715    
  0.07606678905128818    0.07225184406326149    0.06912156894192624    0.0746185391551993    0.07225184406326157    
  0.07049023948953088    0.06926658116061317    0.06850593531760721    0.06814409277004972    0.06814409277004972    
  0.0685059353176072    0.0692665811606131    0.07049023948953091    0.07225184406326168    0.07461853915519952    
  0.07763203525615213    0.08129012589630809    0.08552584857887618    0.09019045890930431    0.09505234409437159    
  0.09981781902716266    0.10416544237803763    0.10777930044908249    0.11037655262271127    0.1117368323467109    
  0.11173683234671089    0.11037655262271127    0.10777930044908245    0.10416544237803754    0.09981781902716254    
  0.0950523440943714    0.09019045890930412    0.08552584857887592    0.08129012589630774    0.07763203525615185    
  0.0746185391551993    0.0797629141238802    0.07763203525615196    0.07606678905128843    0.07499124044047258    
  0.07431505907810793    0.07395176535881534    0.07383837913993899    0.07395176535881524    0.07431505907810783    
  0.07499124044047246    0.07606678905128836    0.07763203525615202    0.07976291412388031    0.08250274409362435    
  0.08584035417410063    0.08968791355302047    0.09387109170507212    0.09814225554241095    0.10221252169629669    
  0.10578613712220615    0.10858607445008003    0.11037655262271134    0.11099330028123483    0.11037655262271132    
  0.10858607445007996    0.10578613712220597    0.10221252169629651    0.09814225554241078    0.09387109170507191    
  0.08968791355302033    0.0858403541741004    0.08250274409362415    0.0797629141238802    0.08423994040597049    
  0.08250274409362424    0.081290125896308    0.08051699406007179    0.08007779889364659    0.07986397348348169    
  0.07978374383259927    0.07978374383259922    0.07986397348348159    0.08007779889364641    0.08051699406007162    
  0.0812901258963079    0.08250274409362422    0.08423994040597056    0.08654554859529494    0.08939694085670861    
  0.09268630682334697    0.09622333631253416    0.09976189724838205    0.10303579264993343    0.10578613712220611    
  0.10777930044908252    0.10882909784652346    0.10882909784652349    0.10777930044908245    0.10578613712220594    
  0.10303579264993316    0.09976189724838186    0.09622333631253396    0.09268630682334683    0.08939694085670853    
  0.08654554859529479    0.08423994040597049    0.08773617067213982    0.08654554859529488    0.08584035417410066    
  0.08552584857887621    0.08548112804158034    0.08557709152006492    0.085693839103602    0.0857436145740274    
  0.08569383910360186    0.0855770915200647    0.0854811280415801    0.085525848578876    0.0858403541741005    
  0.08654554859529488    0.08773617067213989    0.08945576492389236    0.09167075715028074    0.09426045493166092    
  0.09703348743098246    0.0997618972483821    0.1022125216962967    0.1041654423780377    0.10542932814693685    
  0.10586746190539358    0.10542932814693674    0.1041654423780375    0.10221252169629651    0.09976189724838182    
  0.09703348743098225    0.09426045493166081    0.09167075715028067    0.08945576492389236    0.08773617067213982    
  0.08996992331712367    0.08945576492389246    0.08939694085670875    0.08968791355302062    0.09019045890930452    
  0.09075521216260556    0.09123675124571913    0.09151323979621422    0.09151323979621416    0.09123675124571896    
  0.0907552121626053    0.09019045890930424    0.0896879135530204    0.08939694085670864    0.0894557649238924    
  0.08996992331712365    0.09098294916549295    0.09245412897953457    0.09426045493166098    0.09622333631253426    
  0.09814225554241097    0.09981781902716272    0.10106522039626506    0.10173304209185431    0.10173304209185421    
  0.10106522039626493    0.09981781902716258    0.09814225554241068    0.09622333631253394    0.09426045493166078    
  0.09245412897953452    0.09098294916549286    0.08996992331712367    0.09073922554992711    0.09098294916549297    
  0.09167075715028085    0.09268630682334718    0.09387109170507235    0.09505234409437197    0.09605958157958314    
  0.09673938371839777    0.09697988118341987    0.0967393837183976    0.09605958157958285    0.09505234409437166    
  0.09387109170507209    0.09268630682334701    0.09167075715028075    0.09098294916549288    0.09073922554992711    
  0.09098294916549292    0.09167075715028078    0.09268630682334705    0.09387109170507216    0.09505234409437166    
  0.0960595815795827    0.09673938371839728    0.09697988118341941    0.09673938371839719    0.09605958157958247    
  0.09505234409437138    0.09387109170507188    0.09268630682334685    0.09167075715028067    0.09098294916549285    
  0.09073922554992711    0.08996992331712372    0.09098294916549297    0.09245412897953476    0.09426045493166112    
  0.09622333631253445    0.09814225554241143    0.09981781902716332    0.10106522039626574    0.10173304209185506    
  0.10173304209185499    0.10106522039626561    0.09981781902716305    0.0981422555424111    0.09622333631253423    
  0.09426045493166094    0.09245412897953466    0.09098294916549296    0.08996992331712367    0.08945576492389246    
  0.08939694085670873    0.08968791355302053    0.09019045890930444    0.09075521216260543    0.09123675124571894    
  0.09151323979621402    0.09151323979621395    0.0912367512457188    0.09075521216260515    0.09019045890930416    
  0.08968791355302033    0.08939694085670857    0.08945576492389239    0.08996992331712372    0.08773617067213993    
  0.0894557649238925    0.0916707571502809    0.09426045493166109    0.09703348743098274    0.09976189724838255    
  0.10221252169629741    0.10416544237803851    0.10542932814693783    0.10586746190539456    0.10542932814693774    
  0.10416544237803838    0.10221252169629713    0.0997618972483823    0.09703348743098253    0.09426045493166092    
  0.09167075715028078    0.08945576492389244    0.08773617067213993    0.08654554859529498    0.0858403541741007    
  0.08552584857887625    0.08548112804158034    0.08557709152006493    0.08569383910360194    0.08574361457402742    
  0.0856938391036019    0.08557709152006471    0.08548112804158009    0.08552584857887602    0.08584035417410057    
  0.08654554859529491    0.08773617067213993    0.08423994040597066    0.08654554859529502    0.08939694085670878    
  0.09268630682334715    0.09622333631253442    0.09976189724838254    0.10303579264993415    0.1057861371222071    
  0.10777930044908365    0.1088290978465247    0.1088290978465247    0.10777930044908357    0.10578613712220689    
  0.10303579264993393    0.09976189724838234    0.09622333631253421    0.09268630682334703    0.08939694085670863    
  0.08654554859529494    0.08423994040597058    0.08250274409362437    0.08129012589630809    0.08051699406007197    
  0.08007779889364676    0.07986397348348187    0.07978374383259942    0.07978374383259937    0.07986397348348173    
  0.08007779889364654    0.08051699406007172    0.081290125896308    0.08250274409362437    0.08423994040597066    
  0.07976291412388051    0.08250274409362446    0.0858403541741008    0.08968791355302062    0.09387109170507237    
  0.09814225554241139    0.1022125216962974    0.1057861371222071    0.1085860744500812    0.1103765526227127    
  0.11099330028123629    0.11037655262271265    0.10858607445008113    0.10578613712220697    0.1022125216962972    
  0.09814225554241111    0.09387109170507216    0.08968791355302042    0.08584035417410057    0.0825027440936244    
  0.07976291412388035    0.07763203525615218    0.07606678905128865    0.07499124044047277    0.07431505907810818    
  0.0739517653588156    0.07383837913993924    0.07395176535881555    0.07431505907810808    0.07499124044047271    
  0.07606678905128854    0.0776320352561522    0.07976291412388051    0.07461853915519977    0.0776320352561523    
  0.08129012589630824    0.08552584857887634    0.09019045890930459    0.09505234409437194    0.0998178190271633    
  0.1041654423780386    0.10777930044908368    0.1103765526227127    0.11173683234671239    0.11173683234671236    
  0.11037655262271265    0.10777930044908365    0.10416544237803846    0.09981781902716307    0.09505234409437172    
  0.09019045890930431    0.08552584857887606    0.08129012589630798    0.07763203525615203    0.07461853915519956    
  0.07225184406326182    0.07049023948953118    0.0692665811606134    0.06850593531760749    0.06814409277005001    
  0.06814409277005003    0.06850593531760744    0.06926658116061339    0.0704902394895312    0.07225184406326192    
  0.07461853915519977    0.0691215689419268    0.07225184406326207    0.0760667890512888    0.08051699406007208    
  0.08548112804158045    0.0907552121626056    0.09605958157958314    0.10106522039626578    0.10542932814693785    
  0.1088290978465248    0.11099330028123629    0.11173683234671236    0.11099330028123629    0.10882909784652477    
  0.10542932814693781    0.10106522039626568    0.09605958157958294    0.09075521216260532    0.08548112804158019    
  0.0805169940600717    0.07606678905128837    0.0722518440632617    0.06912156894192649    0.06667155944452106    
  0.06486142828103943    0.0636320370879985    0.06292364643183126    0.06269277904163567    0.06292364643183128    
  0.0636320370879986    0.06486142828103951    0.06667155944452119    0.0691215689419268    0.06356986510610776    
  0.06667155944452131    0.07049023948953143    0.07499124044047302    0.08007779889364693    0.08557709152006515    
  0.09123675124571924    0.09673938371839781    0.10173304209185514    0.10586746190539466    0.10882909784652477    
  0.11037655262271275    0.11037655262271275    0.10882909784652485    0.10586746190539463    0.10173304209185505    
  0.09673938371839767    0.09123675124571899    0.08557709152006476    0.0800777988936465    0.07499124044047248    
  0.07049023948953094    0.06667155944452088    0.06356986510610745    0.06117406987222023    0.05944405113511439    
  0.058328743039152024    0.05778368076229205    0.05778368076229209    0.058328743039152094    0.059444051135114494    
  0.061174069872220405    0.06356986510610776    0.058224454102574284    0.06117406987222052    0.06486142828103976    
  0.06926658116061377    0.07431505907810848    0.07986397348348216    0.08569383910360229    0.09151323979621444    
  0.09697988118342003    0.10173304209185516    0.10542932814693794    0.10777930044908372    0.10858607445008127    
  0.10777930044908378    0.10542932814693795    0.10173304209185512    0.09697988118341995    0.09151323979621423    
  0.08569383910360194    0.07986397348348166    0.07431505907810783    0.06926658116061313    0.0648614282810392    
  0.061174069872220065    0.05822445410257396    0.055994070598962505    0.05444406306742103    0.05353353545492545    
  0.05323344543842681    0.0535335354549255    0.054444063067421146    0.055994070598962706    0.058224454102574284    
  0.053287290000620824    0.055994070598962845    0.05944405113511475    0.06363203708799894    0.06850593531760782    
  0.07395176535881592    0.07978374383259974    0.08574361457402778    0.09151323979621444    0.09673938371839785    
  0.1010652203962658    0.1041654423780386    0.10578613712220712    0.1057861371222072    0.10416544237803867    
  0.10106522039626578    0.09673938371839778    0.0915132397962143    0.0857436145740275    0.07978374383259924    
  0.07395176535881524    0.06850593531760717    0.06363203708799822    0.05944405113511418    0.055994070598962435    
  0.053287290000620505    0.05130014083850007    0.049999207615058    0.049356305769583754    0.049356305769583796    
  0.04999920761505804    0.05130014083850024    0.053287290000620824    0.04889133933865116    0.05130014083850036    
  0.05444406306742137    0.058328743039152406    0.06292364643183168    0.06814409277005043    0.07383837913993962    
  0.07978374383259976    0.08569383910360227    0.0912367512457193    0.09605958157958316    0.09981781902716337    
  0.10221252169629742    0.10303579264993425    0.10221252169629746    0.09981781902716333    0.09605958157958314    
  0.0912367512457191    0.085693839103602    0.07978374383259929    0.073838379139939    0.06814409277004971    
  0.06292364643183096    0.058328743039151754    0.054444063067420854    0.051300140838499986    0.04889133933865092    
  0.047195071390614914    0.04618773414369881    0.045853692064515776    0.04618773414369888    0.04719507139061503    
  0.04889133933865116    0.045112275285575855    0.04719507139061514    0.04999920761505829    0.05353353545492582    
  0.057783680762292476    0.06269277904163613    0.06814409277005047    0.073951765358816    0.07986397348348216    
  0.08557709152006517    0.09075521216260571    0.09505234409437201    0.09814225554241139    0.09976189724838262    
  0.09976189724838261    0.09814225554241136    0.09505234409437195    0.09075521216260551    0.0855770915200649    
  0.07986397348348175    0.07395176535881531    0.06814409277004976    0.06269277904163534    0.057783680762291754    
  0.05353353545492518    0.04999920761505787    0.04719507139061484    0.04511227528557566    0.04373481158916956    
  0.04304945398023309    0.04304945398023314    0.043734811589169656    0.045112275285575855    0.04199190228664223    
  0.04373481158916972    0.04618773414369908    0.049356305769584066    0.05323344543842719    0.057783680762292525    
  0.06292364643183175    0.06850593531760794    0.07431505907810855    0.08007779889364694    0.08548112804158056    
  0.09019045890930465    0.09387109170507241    0.09622333631253452    0.09703348743098279    0.09622333631253446    
  0.0938710917050724    0.09019045890930451    0.08548112804158034    0.08007779889364662    0.07431505907810795    
  0.06850593531760724    0.06292364643183092    0.057783680762291706    0.05323344543842655    0.04935630576958355    
  0.04618773414369871    0.04373481158916953    0.04199190228664207    0.040950462958109814    0.04060407934279425    
  0.04095046295810986    0.04199190228664223    0.039555405374357394    0.04095046295810992    0.043049453980233285    
  0.045853692064515984    0.04935630576958407    0.053533535454925854    0.058328743039152454    0.06363203708799899    
  0.06926658116061384    0.07499124044047314    0.08051699406007218    0.08552584857887639    0.08968791355302065    
  0.09268630682334722    0.09426045493166116    0.09426045493166108    0.09268630682334716    0.08968791355302055    
  0.0855258485788762    0.08051699406007182    0.07499124044047262    0.06926658116061316    0.06363203708799824    
  0.058328743039151684    0.05353353545492511    0.049356305769583504    0.04585369206451556    0.04304945398023299    
  0.04095046295810976    0.0395554053743573    0.03885972329106882    0.038859723291068834    0.039555405374357394    
  0.037816114006162214    0.03885972329106888    0.04060407934279436    0.04304945398023333    0.046187734143699095    
  0.04999920761505837    0.054444063067421465    0.05944405113511485    0.06486142828103983    0.07049023948953152    
  0.07606678905128886    0.0812901258963083    0.08584035417410078    0.08939694085670882    0.09167075715028092    
  0.09245412897953469    0.09167075715028086    0.08939694085670868    0.08584035417410064    0.08129012589630805    
  0.07606678905128841    0.07049023948953087    0.06486142828103912    0.05944405113511408    0.05444406306742069    
  0.04999920761505774    0.04618773414369863    0.04304945398023297    0.040604079342794176    0.038859723291068814    
  0.037816114006162166    0.03746902492599235    0.037816114006162214    0.03677592216752422    0.03746902492599239    
  0.038859723291068925    0.04095046295811    0.04373481158916978    0.04719507139061522    0.05130014083850044    
  0.05599407059896295    0.06117406987222063    0.06667155944452138    0.07225184406326214    0.07763203525615239    
  0.08250274409362451    0.08654554859529509    0.08945576492389254    0.09098294916549299    0.09098294916549296    
  0.08945576492389239    0.08654554859529491    0.08250274409362429    0.07763203525615198    0.07225184406326157    
  0.06667155944452073    0.06117406987221984    0.05599407059896218    0.051300140838499764    0.047195071390614685    
  0.04373481158916943    0.04095046295810973    0.0388597232910688    0.03746902492599233    0.03677592216752416    
  0.03677592216752422    0.036430169131078965    0.03677592216752421    0.03781611400616225    0.039555405374357436    
  0.041991902286642256    0.04511227528557594    0.04889133933865126    0.05328729000062091    0.058224454102574354    
  0.0635698651061078    0.06912156894192682    0.07461853915519981    0.07976291412388051    0.08423994040597069    
  0.08773617067214    0.08996992331712367    0.09073922554992711    0.0899699233171236    0.08773617067213985    
  0.08423994040597048    0.07976291412388015    0.07461853915519927    0.0691215689419262    0.06356986510610711    
  0.05822445410257358    0.05328729000062019    0.048891339338650634    0.04511227528557547    0.04199190228664198    
  0.039555405374357255    0.03781611400616215    0.03677592216752415    0.036430169131078965    0.03681908024612747    
  0.03717215471947955    0.03823401171596829    0.04000938651898751    0.04249846095633846    0.045691898448117926    
  0.049568015422147664    0.05408532390082917    0.059164698132813415    0.0646674135961768    0.07038474892474592    
  0.07604767176291154    0.08134843260148866    0.08596119131608922    0.08956217226965814    0.09186187014387469    
  0.09265366052048418    0.09186187014387467    0.089562172269658    0.08596119131608895    0.08134843260148832    
  0.07604767176291104    0.07038474892474529    0.0646674135961761    0.05916469813281263    0.05408532390082847    
  0.04956801542214704    0.045691898448117454    0.04249846095633816    0.04000938651898731    0.03823401171596818    
  0.037172154719479496    0.03681908024612747    0.03717215471947955    0.03717215471947955    0.03784792505402925    
  0.039204358933690064    0.04124427611514841    0.043961349392602385    0.04733789575500134    0.051342893018082404    
  0.05592047519270612    0.06096835455059619    0.06632040996713696    0.07174825656911447    0.07697954556744621    
  0.08171744371388982    0.0856544345157471    0.08849246036795715    0.08998344911768492    0.08998344911768484    
  0.08849246036795708    0.08565443451574692    0.0817174437138895    0.07697954556744575    0.07174825656911389    
  0.06632040996713627    0.06096835455059544    0.05592047519270536    0.05134289301808176    0.04733789575500081    
  0.043961349392601996    0.04124427611514819    0.03920435893368989    0.03784792505402913    0.03717215471947955    
  0.03823401171596823    0.0379115865547487    0.03823401171596825    0.03920435893369004    0.040827658334893935    
  0.0431027819976877    0.04601801704734088    0.049550526894542535    0.05366057740986027    0.05827412460631107    
  0.06326220300099324    0.06843415729002363    0.07355039024948086    0.07834173267001404    0.08252175258821502    
  0.08579750510991696    0.0878973955438059    0.08862205022199618    0.08789739554380584    0.08579750510991693    
  0.08252175258821479    0.0783417326700136    0.07355039024948037    0.06843415729002296    0.06326220300099249    
  0.058274124606310304    0.05366057740985952    0.04955052689454189    0.04601801704734038    0.04310278199768737    
  0.04082765833489374    0.0392043589336899    0.03823401171596823    0.04000938651898738    0.03939441353912899    
  0.03939441353912903    0.04000938651898746    0.04124427611514838    0.04310278199768767    0.045581190169291484    
  0.04866611119443659    0.05233119507875858    0.05652467131821098    0.06114938340540737    0.06604951327034017    
  0.07101569289494795    0.07580285247415985    0.08014488821417423    0.08376214109758788    0.08637710800550319    
  0.08775392415345054    0.08775392415345057    0.08637710800550318    0.08376214109758778    0.08014488821417397    
  0.07580285247415951    0.07101569289494748    0.06604951327033944    0.061149383405406564    0.056524671318210144    
  0.052331195078757865    0.048666111194436    0.04558119016929103    0.043102781997687384    0.04124427611514821    
  0.04000938651898738    0.042498460956338274    0.04162515237643105    0.041335053553367126    0.04162515237643116    
  0.04249846095633835    0.04396134939260229    0.04601801704734079    0.048666111194436604    0.05189283119525974    
  0.05566570847845064    0.059915506963508454    0.06451948451004734    0.06929812216403236    0.07402811572018743    
  0.07845977958103946    0.082327641765998    0.08535998785223237    0.0873045235062338    0.08797570881590408    
  0.08730452350623383    0.08535998785223228    0.08232764176599788    0.07845977958103917    0.07402811572018692    