#     DFTpy    
  CRYSTAL 
    
  PRIMVEC    
  1.8659042565531705    -3.2318409744091303    0.0    
  1.8659042565531705    3.2318409744091303    0.0    
  0.0    0.0    6.308776978000001    
  PRIMCOORD    
  2    1    
  Si    1.8659042565531705    1.0772803248030403    1.5771942445000002    
  Si    1.8659042565531705    -1.0772803248030403    4.731582733500001    
  BEGIN_BLOCK_DATAGRID_3D    
  3d_datagrid_density    
  BEGIN_DATAGRID_3D#0    
  37    37    61    
  0.0    0.0    0.0    
  1.865904263513029    -3.231840986463959    0.0    
  1.865904263513029    3.231840986463959    0.0    
  0.0    0.0    6.308777001531859    
  0.022176199887677255    0.022338812481914345    0.0228263880303798    0.023639988565790963    0.02478496464250872    
  0.02627019732434896    0.02810195479796876    0.03027559568191654    0.032769457458337696    0.03554195990703876    
  0.03852988911984708    0.04164658901686245    0.044781453928064326    0.04780278525279021    0.05056453398358243    
  0.05291641656793611    0.0547170795327647    0.05584949896340256    0.05623604464941733    0.05584949896340249    
  0.054717079532764626    0.05291641656793589    0.05056453398358223    0.047802785252789935    0.04478145392806399    
  0.04164658901686198    0.038529889119846554    0.03554195990703826    0.032769457458337196    0.030275595681916116    
  0.028101954797968398    0.02627019732434869    0.024784964642508574    0.02363998856579092    0.022826388030379747    
  0.02233881248191438    0.022176199887677255    0.02233881248191438    0.022338812481914355    0.022663935471904918    
  0.023314768444645566    0.02429492998058576    0.02561215330369295    0.027274717046557474    0.029284130629532657    
  0.03162800006085172    0.03427566502788395    0.03717579348769797    0.04025411315490018    0.04341158864982381    
  0.04652523812188188    0.04945314474621053    0.05204357298462703    0.05414745793771325    0.05563332625229783    
  0.05640267157590499    0.05640267157590497    0.05563332625229781    0.05414745793771316    0.05204357298462681    
  0.049453144746210376    0.046525238121881515    0.043411588649823384    0.040254113154899636    0.037175793487697444    
  0.03427566502788341    0.031628000060851244    0.029284130629532265    0.027274717046557168    0.02561215330369273    
  0.02429492998058568    0.023314768444645483    0.02266393547190492    0.02233881248191438    0.0228263880303798    
  0.022663935471904886    0.0228263880303798    0.02331476844464557    0.024132798978480353    0.025287522735584895    
  0.02678745122397335    0.028637579350707657    0.030833159577018116    0.033354502443482786    0.036163162486580816    
  0.039198426171223745    0.042373930864557846    0.04557619710389219    0.04866742176316823    0.05149362196886921    
  0.05389749836502407    0.05573411418678261    0.05688667719981496    0.05727957669571282    0.056886677199814925    
  0.05573411418678257    0.053897498365023916    0.05149362196886896    0.04866742176316794    0.04557619710389182    
  0.04237393086455739    0.039198426171223245    0.036163162486580275    0.03335450244348225    0.030833159577017648    
  0.028637579350707324    0.02678745122397308    0.025287522735584763    0.02413279897848025    0.02331476844464555    
  0.0228263880303798    0.023639988565790908    0.023314768444645518    0.023314768444645535    0.023639988565790932    
  0.02429492998058573    0.02528752273558487    0.026626834861349483    0.028319654152633295    0.030366395881795374    
  0.03275673491081782    0.0354649214503538    0.038444614087825235    0.04162370140359494    0.04490062467283924    
  0.048144452136240176    0.051200796589198704    0.05390421943672297    0.05609526574914273    0.05763814694814487    
  0.05843503804861232    0.05843503804861228    0.0576381469481448    0.05609526574914269    0.05390421943672288    
  0.051200796589198426    0.04814445213623992    0.044900624672838785    0.041623701403594456    0.038444614087824645    
  0.03546492145035327    0.032756734910817265    0.03036639588179494    0.028319654152632975    0.026626834861349282    
  0.025287522735584697    0.02429492998058567    0.023639988565790908    0.024784964642508615    0.02429492998058567    
  0.024132798978480297    0.024294929980585696    0.02478496464250865    0.025612153303692868    0.0267874512239733    
  0.02831965415263327    0.030212758803228715    0.03246354597574297    0.035057466781264326    0.03796228081681333    
  0.04112096451430185    0.04444611101138175    0.047817626607039976    0.051085548819011055    0.05407986878074731    
  0.05662728645408971    0.058571149801011635    0.05978892553723248    0.060203570815734304    0.059788925537232494    
  0.0585711498010116    0.05662728645408966    0.05407986878074723    0.05108554881901075    0.04781762660703962    
  0.044446111011381295    0.04112096451430128    0.037962280816812764    0.03505746678126378    0.032463545975742455    
  0.03021275880322827    0.028319654152633024    0.026787451223973052    0.025612153303692757    0.024784964642508615    
  0.026270197324348706    0.02561215330369275    0.025287522735584777    0.02528752273558481    0.025612153303692854    
  0.026270197324348852    0.027274717046557345    0.02863757935070757    0.030366395881795332    0.03246354597574295    
  0.03492376112578035    0.03772779901081547    0.040833727347089704    0.04416947721143703    0.047628890575036165    
  0.05107192277431351    0.05433053802851445    0.05722233481987285    0.05957070724172549    0.06122591953733757    
  0.06208109712938437    0.062081097129384415    0.0612259195373375    0.05957070724172545    0.057222334819872815    
  0.05433053802851428    0.051071922774313154    0.047628890575035825    0.044169477211436534    0.04083372734708919    
  0.03772779901081482    0.03492376112577975    0.03246354597574246    0.030366395881794975    0.028637579350707296    
  0.027274717046557168    0.026270197324348706    0.02810195479796841    0.02727471704655718    0.026787451223973156    
  0.026626834861349348    0.02678745122397321    0.02727471704655733    0.028101954797968554    0.029284130629532508    
  0.030833159577017998    0.03275673491081772    0.03505746678126431    0.0377277990108154    0.04074054131783261    
  0.04403951879896371    0.04753420478254044    0.05109846292912238    0.054573010640342465    0.05777406314180905    
  0.06051048089537376    0.06260651641560878    0.06392303489725436    0.06437188919933262    0.06392303489725434    
  0.06260651641560885    0.060510480895373746    0.05777406314180897    0.05457301064034226    0.051098462929122006    
  0.04753420478254009    0.044039518798963194    0.04074054131783205    0.037727799010814835    0.035057466781263764    
  0.03275673491081729    0.03083315957701761    0.029284130629532282    0.02810195479796841    0.030275595681916113    
  0.0292841306295323    0.028637579350707393    0.02831965415263311    0.028319654152633152    0.02863757935070751    
  0.02928413062953247    0.03027559568191628    0.03162800006085153    0.03335450244348267    0.03546492145035378    
  0.037962280816813326    0.04083372734708973    0.044039518798963756    0.04750582946731345    0.05112264251105854    
  0.05474438418994253    0.05819383563760411    0.0612738433505419    0.0637884959881628    0.06556813358078294    
  0.06648990220544873    0.06648990220544872    0.06556813358078303    0.06378849598816283    0.061273843350541875    
  0.05819383563760404    0.05474438418994234    0.051122642511058164    0.04750582946731302    0.04403951879896321    
  0.04083372734708922    0.03796228081681274    0.0354649214503533    0.03335450244348223    0.03162800006085125    
  0.030275595681916113    0.03276945745833719    0.031628000060851286    0.030833159577017752    0.030366395881795093    
  0.030212758803228497    0.030366395881795162    0.03083315957701787    0.03162800006085144    0.03276945745833742    
  0.03427566502788374    0.03616316248658074    0.03844461408782522    0.04112096451430187    0.0441694772114371    
  0.047534204782540536    0.051122642511058546    0.05480587940950518    0.058419597729743755    0.06176982738093911    
  0.0646494789960279    0.06686431598660851    0.06825904980224758    0.06873514062284992    0.06825904980224766    
  0.06686431598660848    0.06464947899602785    0.06176982738093908    0.0584195977297437    0.05480587940950498    
  0.051122642511058164    0.04753420478254009    0.044169477211436575    0.04112096451430129    0.03844461408782473    
  0.036163162486580226    0.034275665027883415    0.03276945745833719    0.03554195990703821    0.034275665027883435    
  0.033354502443482356    0.03275673491081745    0.03246354597574267    0.03246354597574271    0.03275673491081753    
  0.0333545024434825    0.03427566502788365    0.035541959907038484    0.03717579348769781    0.039198426171223745    
  0.04162370140359498    0.04444611101138179    0.04762889057503622    0.05109846292912243    0.05474438418994258    
  0.058419597729743776    0.0619415769710618    0.06510232646008511    0.06769177427425095    0.0695275762094668    
  0.07047900832296326    0.07047900832296328    0.06952757620946685    0.06769177427425098    0.06510232646008515    
  0.0619415769710618    0.058419597729743686    0.05474438418994235    0.05109846292912202    0.04762889057503581    
  0.04444611101138125    0.04162370140359451    0.03919842617122321    0.037175793487697416    0.03554195990703821    
  0.03852988911984654    0.03717579348769745    0.0361631624865804    0.03546492145035343    0.03505746678126402    
  0.03492376112578002    0.03505746678126405    0.03546492145035351    0.036163162486580545    0.03717579348769769    
  0.038529889119846825    0.04025411315490007    0.042373930864557846    0.044900624672839264    0.0478176266070401    
  0.05107192277431356    0.05457301064034255    0.05819383563760421    0.06176982738093915    0.0651023264600852    
  0.06797594591035665    0.07018872227723173    0.07158186960292759    0.07205717783188008    0.07158186960292759    
  0.07018872227723173    0.0679759459103566    0.06510232646008518    0.0617698273809391    0.05819383563760408    
  0.0545730106403423    0.05107192277431322    0.04781762660703966    0.04490062467283887    0.04237393086455738    
  0.04025411315489966    0.03852988911984654    0.04164658901686195    0.04025411315489968    0.039198426171223336    
  0.03844461408782485    0.037962280816813    0.03772779901081509    0.03772779901081508    0.03796228081681301    
  0.038444614087824895    0.039198426171223454    0.04025411315489991    0.04164658901686223    0.0434115886498237    
  0.04557619710389217    0.04814445213624025    0.051085548819011124    0.05433053802851451    0.05777406314180911    
  0.06127384335054204    0.06464947899602798    0.06769177427425097    0.07018872227723175    0.07195881886947166    
  0.07287543424146734    0.07287543424146731    0.07195881886947163    0.07018872227723179    0.067691774274251    
  0.06464947899602794    0.06127384335054195    0.057774063141809016    0.054330538028514334    0.05108554881901082    
  0.048144452136239906    0.04557619710389176    0.04341158864982334    0.04164658901686195    0.04478145392806395    
  0.043411588649823356    0.04237393086455747    0.04162370140359458    0.0411209645143015    0.04083372734708944    
  0.04074054131783229    0.040833727347089406    0.0411209645143015    0.041623701403594664    0.04237393086455759    
  0.04341158864982358    0.0447814539280642    0.046525238121881765    0.0486674217631682    0.05120079658919867    
  0.05407986878074738    0.057222334819872975    0.060510480895373885    0.06378849598816291    0.06686431598660861    
  0.06952757620946687    0.07158186960292762    0.07287543424146735    0.07331663275178603    0.07287543424146728    
  0.07158186960292763    0.06952757620946687    0.06686431598660854    0.06378849598816289    0.0605104808953738    
  0.0572223348198729    0.05407986878074723    0.05120079658919846    0.048667421763167906    0.04652523812188151    
  0.04478145392806395    0.04780278525278987    0.04652523812188148    0.04557619710389185    0.04490062467283889    
  0.0444461110113814    0.04416947721143674    0.04403951879896337    0.04403951879896333    0.04416947721143669    
  0.044446111011381385    0.04490062467283894    0.04557619710389195    0.04652523812188163    0.047802785252790046    
  0.04945314474621046    0.051493621968869106    0.05390421943672302    0.056627286454089765    0.0595707072417256    
  0.06260651641560888    0.06556813358078309    0.06825904980224774    0.07047900832296339    0.07205717783188018    
  0.07287543424146732    0.07287543424146728    0.07205717783188006    0.07047900832296332    0.06825904980224769    
  0.06556813358078305    0.06260651641560885    0.059570707241725515    0.05662728645408971    0.05390421943672292    
  0.051493621968868905    0.04945314474621026    0.04780278525278987    0.05056453398358221    0.04945314474621025    
  0.04866742176316793    0.048144452136239954    0.047817626607039754    0.047628890575035894    0.04753420478254017    
  0.04750582946731302    0.04753420478254009    0.04762889057503581    0.04781762660703965    0.048144452136239954    
  0.04866742176316804    0.049453144746210376    0.05056453398358238    0.052043572984626925    0.053897498365023985    
  0.056095265749142725    0.058571149801011635    0.06122591953733758    0.06392303489725448    0.0664899022054489    
  0.06873514062285006    0.07047900832296336    0.07158186960292766    0.07195881886947163    0.07158186960292763    
  0.07047900832296332    0.06873514062285    0.06648990220544884    0.0639230348972544    0.06122591953733758    
  0.0585711498010116    0.056095265749142746    0.053897498365023895    0.05204357298462681    0.05056453398358221    
  0.05291641656793586    0.05204357298462673    0.051493621968868905    0.05120079658919838    0.05108554881901081    
  0.05107192277431324    0.05109846292912202    0.051122642511058095    0.05112264251105807    0.0510984629291219    
  0.05107192277431311    0.05108554881901075    0.05120079658919836    0.051493621968868926    0.052043572984626835    
  0.052916416567936005    0.05414745793771313    0.05573411418678251    0.057638146948144786    0.05978892553723246    
  0.06208109712938446    0.06437188919933269    0.06648990220544888    0.06825904980224774    0.06952757620946691    
  0.07018872227723182    0.07018872227723176    0.06952757620946685    0.06825904980224766    0.06648990220544876    
  0.06437188919933258    0.062081097129384394    0.059788925537232494    0.05763814694814482    0.055734114186782556    
  0.05414745793771311    0.05291641656793586    0.05471707953276461    0.05414745793771308    0.05389749836502381    
  0.053904219436722765    0.05407986878074714    0.05433053802851424    0.05457301064034221    0.05474438418994219    
  0.05480587940950482    0.05474438418994214    0.05457301064034207    0.05433053802851405    0.054079868780746984    
  0.05390421943672272    0.053897498365023847    0.054147457937713195    0.054717079532764626    0.05563332625229775    
  0.056886677199814856    0.05843503804861219    0.060203570815734304    0.06208109712938445    0.06392303489725452    
  0.06556813358078312    0.06686431598660862    0.06769177427425101    0.06797594591035663    0.06769177427425097    
  0.06686431598660854    0.06556813358078296    0.06392303489725437    0.062081097129384345    0.060203570815734304    
  0.058435038048612296    0.05688667719981484    0.05563332625229774    0.05471707953276461    0.055849498963402494    
  0.05563332625229766    0.05573411418678238    0.05609526574914251    0.05662728645408952    0.057222334819872746    
  0.057774063141808836    0.05819383563760384    0.058419597729743436    0.058419597729743394    0.05819383563760377    
  0.05777406314180866    0.05722233481987253    0.056627286454089404    0.0560952657491425    0.0557341141867825    
  0.055633326252297714    0.05584949896340249    0.05640267157590492    0.0572795766957127    0.05843503804861221    
  0.05978892553723246    0.0612259195373376    0.06260651641560895    0.06378849598816294    0.06464947899602794    
  0.06510232646008517    0.06510232646008512    0.0646494789960279    0.0637884959881628    0.06260651641560874    
  0.061225919537337484    0.05978892553723243    0.05843503804861228    0.05727957669571273    0.05640267157590492    
  0.055849498963402494    0.05623604464941734    0.05640267157590483    0.05688667719981469    0.05763814694814454    
  0.0585711498010114    0.059570707241725314    0.06051048089537356    0.06127384335054167    0.06176982738093886    
  0.061941576971061514    0.06176982738093879    0.06127384335054154    0.06051048089537336    0.059570707241725106    
  0.05857114980101132    0.0576381469481446    0.05688667719981475    0.05640267157590489    0.05623604464941733    
  0.056402671575904874    0.05688667719981481    0.05763814694814473    0.058571149801011656    0.05957070724172562    
  0.060510480895373864    0.06127384335054196    0.06176982738093911    0.06194157697106181    0.061769827380939044    
  0.061273843350541854    0.06051048089537371    0.05957070724172542    0.05857114980101158    0.05763814694814482    
  0.05688667719981489    0.05640267157590497    0.05623604464941734    0.055849498963402605    0.05640267157590489    
  0.05727957669571256    0.058435038048612005    0.0597889255372322    0.061225919537337345    0.06260651641560859    
  0.06378849598816265    0.06464947899602776    0.06510232646008496    0.06510232646008496    0.0646494789960276    
  0.06378849598816247    0.06260651641560848    0.061225919537337206    0.05978892553723221    0.058435038048612026    
  0.05727957669571266    0.0564026715759049    0.05584949896340251    0.05563332625229776    0.055734114186782556    
  0.05609526574914273    0.0566272864540898    0.05722233481987301    0.05777406314180914    0.05819383563760418    
  0.05841959772974374    0.058419597729743734    0.058193835637604094    0.05777406314180897    0.0572223348198728    
  0.05662728645408965    0.056095265749142795    0.05573411418678259    0.055633326252297846    0.055849498963402605    
  0.054717079532764765    0.05563332625229778    0.05688667719981472    0.058435038048611956    0.06020357081573399    
  0.06208109712938416    0.06392303489725418    0.06556813358078284    0.06686431598660848    0.06769177427425091    
  0.06797594591035658    0.06769177427425083    0.06686431598660827    0.0655681335807827    0.06392303489725404    
  0.06208109712938409    0.06020357081573396    0.058435038048612026    0.05688667719981475    0.05563332625229775    
  0.05471707953276467    0.05414745793771317    0.053897498365024006    0.053904219436723    0.05407986878074736    
  0.054330538028514536    0.05457301064034251    0.05474438418994256    0.05480587940950518    0.054744384189942465    
  0.054573010640342395    0.05433053802851437    0.054079868780747276    0.053904219436723015    0.05389749836502404    
  0.05414745793771328    0.054717079532764765    0.052916416567936116    0.0541474579377132    0.055734114186782466    
  0.05763814694814451    0.05978892553723217    0.062081097129384116    0.06437188919933233    0.06648990220544863    
  0.06825904980224763    0.06952757620946683    0.07018872227723177    0.07018872227723175    0.06952757620946678    
  0.06825904980224749    0.06648990220544854    0.06437188919933232    0.06208109712938402    0.05978892553723213    
  0.05763814694814461    0.05573411418678245    0.05414745793771316    0.05291641656793596    0.05204357298462694    
  0.051493621968869106    0.051200796589198634    0.0510855488190111    0.05107192277431353    0.05109846292912236    
  0.051122642511058476    0.05112264251105847    0.05109846292912227    0.051071922774313425    0.051085548819010985    
  0.05120079658919867    0.05149362196886916    0.05204357298462706    0.052916416567936116    0.05056453398358255    
  0.05204357298462702    0.053897498365023964    0.05609526574914254    0.058571149801011343    0.06122591953733725    
  0.0639230348972541    0.06648990220544859    0.06873514062285    0.07047900832296328    0.07158186960292767    
  0.07195881886947167    0.07158186960292763    0.07047900832296325    0.06873514062284984    0.06648990220544854    
  0.06392303489725402    0.06122591953733718    0.05857114980101136    0.05609526574914251    0.053897498365023895    
  0.052043572984626835    0.0505645339835824    0.049453144746210494    0.04866742176316818    0.04814445213624022    
  0.047817626607040066    0.04762889057503627    0.04753420478254054    0.047505829467313465    0.04753420478254049    
  0.04762889057503614    0.04781762660704001    0.04814445213624028    0.04866742176316827    0.04945314474621067    
  0.05056453398358255    0.047802785252790296    0.049453144746210626    0.05149362196886915    0.05390421943672285    
  0.056627286454089494    0.05957070724172521    0.0626065164156085    0.06556813358078273    0.06825904980224756    
  0.07047900832296332    0.07205717783188016    0.0728754342414674    0.07287543424146735    0.07205717783188013    
  0.07047900832296325    0.06825904980224759    0.06556813358078271    0.06260651641560845    0.05957070724172515    
  0.05662728645408944    0.053904219436722745    0.051493621968868926    0.04945314474621037    0.04780278525279006    
  0.046525238121881765    0.04557619710389218    0.04490062467283924    0.044446111011381795    0.044169477211437096    
  0.04403951879896377    0.044039518798963756    0.04416947721143708    0.044446111011381774    0.04490062467283935    
  0.04557619710389226    0.046525238121881925    0.047802785252790296    0.04478145392806449    0.04652523812188195    
  0.04866742176316828    0.05120079658919861    0.054079868780747185    0.057222334819872676    0.06051048089537346    
  0.06378849598816254    0.06686431598660839    0.0695275762094668    0.07158186960292767    0.07287543424146739    
  0.07331663275178608    0.07287543424146738    0.07158186960292766    0.06952757620946683    0.0668643159866083    
  0.06378849598816251    0.06051048089537339    0.05722233481987256    0.05407986878074702    0.051200796589198364    
  0.04866742176316799    0.0465252381218817    0.04478145392806417    0.04341158864982371    0.04237393086455783    
  0.041623701403595004    0.041120964514301896    0.040833727347089836    0.040740541317832696    0.04083372734708982    
  0.04112096451430193    0.04162370140359508    0.04237393086455798    0.04341158864982393    0.04478145392806449    
  0.04164658901686258    0.04341158864982396    0.04557619710389236    0.04814445213624028    0.051085548819011006    
  0.054330538028514265    0.05777406314180878    0.0612738433505416    0.06464947899602767    0.06769177427425085    
  0.07018872227723175    0.07195881886947171    0.07287543424146742    0.07287543424146739    0.07195881886947172    
  0.0701887222772318    0.06769177427425088    0.06464947899602763    0.06127384335054155    0.05777406314180866    
  0.054330538028514064    0.05108554881901071    0.04814445213623988    0.045576197103891984    0.04341158864982358    
  0.041646589016862245    0.040254113154900045    0.039198426171223745    0.03844461408782526    0.0379622808168134    
  0.03772779901081549    0.03772779901081549    0.0379622808168134    0.038444614087825374    0.039198426171223856    
  0.040254113154900295    0.04164658901686258    0.03852988911984719    0.04025411315490035    0.04237393086455809    
  0.044900624672839395    0.04781762660704008    0.05107192277431341    0.05457301064034226    0.05819383563760384    
  0.06176982738093879    0.06510232646008497    0.06797594591035658    0.07018872227723177    0.07158186960292767    
  0.07205717783188019    0.07158186960292767    0.07018872227723182    0.0679759459103565    0.06510232646008492    
  0.06176982738093877    0.05819383563760373    0.05457301064034207    0.051071922774313064    0.047817626607039684    
  0.04490062467283897    0.04237393086455761    0.04025411315489993    0.03852988911984682    0.03717579348769783    
  0.036163162486580754    0.03546492145035385    0.035057466781264424    0.03492376112578041    0.035057466781264444    
  0.03546492145035397    0.03616316248658091    0.037175793487698075    0.03852988911984719    0.03554195990703887    
  0.037175793487698124    0.039198426171224016    0.041623701403595205    0.04444611101138193    0.04762889057503628    
  0.05109846292912224    0.054744384189942305    0.05841959772974347    0.06194157697106148    0.06510232646008496    
  0.06769177427425091    0.0695275762094668    0.07047900832296333    0.07047900832296333    0.0695275762094669    
  0.06769177427425092    0.06510232646008494    0.06194157697106151    0.05841959772974336    0.05474438418994209    
  0.05109846292912187    0.047628890575035825    0.0444461110113814    0.04162370140359466    0.039198426171223495    
  0.037175793487697714    0.03554195990703855    0.03427566502788379    0.03335450244348275    0.03275673491081783    
  0.03246354597574304    0.03246354597574308    0.032756734910817945    0.033354502443482884    0.03427566502788403    
  0.03554195990703887    0.0327694574583378    0.03427566502788408    0.036163162486581066    0.03844461408782552    
  0.04112096451430212    0.04416947721143727    0.04753420478254057    0.05112264251105837    0.05480587940950497    
  0.05841959772974351    0.06176982738093884    0.0646494789960277    0.06686431598660841    0.0682590498022476    
  0.06873514062285    0.06825904980224766    0.06686431598660844    0.06464947899602776    0.06176982738093884    
  0.0584195977297434    0.054805879409504786    0.051122642511058046    0.04753420478254008    0.04416947721143674    
  0.04112096451430155    0.038444614087824965    0.03616316248658057    0.03427566502788371    0.03276945745833749    
  0.031628000060851626    0.030833159577018085    0.03036639588179539    0.030212758803228795    0.030366395881795502    
  0.03083315957701816    0.03162800006085182    0.0327694574583378    0.03027559568191662    0.031628000060851855    
  0.033354502443483    0.035464921450354105    0.037962280816813666    0.04083372734709008    0.04403951879896392    
  0.0475058294673135    0.05112264251105839    0.05474438418994234    0.058193835637603906    0.061273843350541694    
  0.0637884959881626    0.06556813358078281    0.06648990220544865    0.06648990220544873    0.06556813358078288    
  0.06378849598816262    0.061273843350541715    0.05819383563760382    0.054744384189942125    0.051122642511058095    
  0.04750582946731304    0.044039518798963395    0.04083372734708946    0.03796228081681308    0.03546492145035358    
  0.033354502443482585    0.031628000060851515    0.030275595681916373    0.029284130629532563    0.028637579350707657    
  0.02831965415263335    0.028319654152633423    0.028637579350707723    0.02928413062953273    0.03027559568191662    
  0.028101954797968794    0.029284130629532758    0.030833159577018314    0.03275673491081809    0.03505746678126468    
  0.037727799010815764    0.040740541317832925    0.04403951879896392    0.04753420478254059    0.05109846292912227    
  0.05457301064034231    0.0577740631418088    0.060510480895373475    0.06260651641560856    0.06392303489725412    
  0.06437188919933239    0.06392303489725416    0.06260651641560858    0.060510480895373524    0.057774063141808746    
  0.054573010640342146    0.051098462929121964    0.04753420478254011    0.044039518798963444    0.040740541317832335    
  0.03772779901081516    0.03505746678126411    0.032756734910817605    0.03083315957701794    0.029284130629532525    
  0.028101954797968596    0.027274717046557366    0.026787451223973302    0.02662683486134954    0.026787451223973358    
  0.02727471704655752    0.028101954797968794    0.02627019732434897    0.02727471704655751    0.028637579350707845    
  0.03036639588179564    0.03246354597574329    0.03492376112578071    0.03772779901081575    0.040833727347090024    
  0.044169477211437234    0.04762889057503625    0.05107192277431345    0.05433053802851428    0.05722233481987266    
  0.059570707241725196    0.061225919537337276    0.06208109712938414    0.06208109712938409    0.06122591953733728    
  0.05957070724172521    0.05722233481987265    0.054330538028514126    0.0510719227743132    0.047628890575035845    
  0.0441694772114368    0.040833727347089496    0.03772779901081517    0.03492376112578011    0.03246354597574278    
  0.03036639588179522    0.02863757935070756    0.02727471704655733    0.026270197324348828    0.025612153303692847    
  0.025287522735584916    0.02528752273558487    0.025612153303692944    0.02627019732434897    0.02478496464250873    
  0.02561215330369295    0.026787451223973444    0.028319654152633527    0.030212758803228996    0.03246354597574332    
  0.03505746678126467    0.037962280816813625    0.04112096451430212    0.04444611101138193    0.047817626607040094    
  0.051085548819011034    0.054079868780747185    0.05662728645408952    0.05857114980101133    0.0597889255372322    
  0.06020357081573396    0.05978892553723217    0.05857114980101136    0.05662728645408947    0.05407986878074709    
  0.0510855488190108    0.04781762660703974    0.044446111011381455    0.04112096451430159    0.03796228081681306    
  0.03505746678126409    0.03246354597574278    0.03021275880322857    0.028319654152633204    0.026787451223973222    
  0.025612153303692823    0.024784964642508633    0.02429492998058575    0.024132798978480308    0.024294929980585748    
  0.02478496464250873    0.02363998856579095    0.024294929980585748    0.02528752273558494    0.026626834861349633    
  0.028319654152633537    0.03036639588179564    0.032756734910818056    0.035464921450354105    0.038444614087825506    