#     DFTpy    
  CRYSTAL 
    
  PRIMVEC    
  1.3695553410168604    -2.3721394344185205    0.0    
  1.3695553410168604    2.3721394344185205    0.0    
  0.0    0.0    4.630580146413791    
  PRIMCOORD    
  2    1    
  Si    1.3695553410168604    0.7907131448061703    1.1576450366034503    
  Si    1.3695553410168604    -0.7907131448061703    3.472935109810341    
  BEGIN_BLOCK_DATAGRID_3D    
  3d_datagrid_density    
  BEGIN_DATAGRID_3D#0    
  26    26    49    
  0.0    0.0    0.0    
  1.369555346125328    -2.372139443266646    0.0    
  1.369555346125328    2.372139443266646    0.0    
  0.0    0.0    4.630580163685943    
  0.11403200291947202    0.11571144537480739    0.12073457747246329    0.12902074266170735    0.14035085068011358    
  0.15431549253731783    0.170303196734501    0.18749549904175067    0.20484437166493652    0.2210762862927526    
  0.23480268758328238    0.2447434283620733    0.24995547338139373    0.2499554733813938    0.24474342836207344    
  0.23480268758328243    0.22107628629275267    0.20484437166493635    0.1874954990417504    0.1703031967345007    
  0.15431549253731763    0.14035085068011346    0.12902074266170738    0.12073457747246331    0.1157114453748074    
  0.11403200291947202    0.11571144537480746    0.11571144537480749    0.11906351797135951    0.1257233634324261    
  0.1355445141724989    0.14821349652246626    0.1632207960013607    0.17985714081764032    0.19719832836022963    
  0.21408594543556672    0.22917544712471472    0.24110731600505003    0.24874836255018892    0.25137636196307284    
  0.24874836255018912    0.24110731600505014    0.22917544712471477    0.21408594543556664    0.19719832836022932    
  0.17985714081763995    0.16322079600136047    0.14821349652246613    0.1355445141724988    0.12572336343242613    
  0.11906351797135968    0.11571144537480746    0.1207345774724635    0.11906351797135963    0.1207345774724634    
  0.12572336343242616    0.13392900142676673    0.14511604573405124    0.1588718468150887    0.1745942166358801    
  0.19148310555428344    0.20851790609556803    0.22446044518330927    0.2379563001350873    0.24774484973947047    
  0.2528840230519819    0.252884023051982    0.24774484973947047    0.23795630013508737    0.22446044518330927    
  0.20851790609556786    0.19148310555428313    0.17459421663587976    0.15887184681508854    0.14511604573405099    
  0.13392900142676661    0.1257233634324262    0.1207345774724635    0.12902074266170754    0.12572336343242624    
  0.12572336343242618    0.12902074266170746    0.13554451417249896    0.14511604573405115    0.15740582151079482    
  0.17191015460353332    0.18794314173815138    0.2046218587605249    0.22085135831544675    0.2353643498461921    
  0.24686584902023984    0.25425124945866856    0.2567960244530723    0.25425124945866867    0.24686584902023995    
  0.2353643498461921    0.22085135831544664    0.2046218587605246    0.187943141738151    0.17191015460353312    
  0.15740582151079457    0.1451160457340511    0.13554451417249888    0.12902074266170754    0.14035085068011363    
  0.13554451417249902    0.13392900142676673    0.13554451417249883    0.14035085068011363    0.14821349652246632    
  0.15887184681508867    0.1719101546035334    0.18674294158146834    0.20260771727362345    0.21855541715573965    
  0.23345851352695454    0.24608636036131432    0.2552702787666309    0.2601057034060908    0.26010570340609074    
  0.2552702787666309    0.24608636036131437    0.2334585135269544    0.21855541715573948    0.2026077172736232    
  0.18674294158146812    0.17191015460353312    0.15887184681508856    0.14821349652246624    0.14035085068011363    
  0.15431549253731788    0.1482134965224663    0.1451160457340511    0.1451160457340511    0.1482134965224663    
  0.15431549253731786    0.16322079600136072    0.1745942166358801    0.1879431417381514    0.20260771727362353    
  0.21776320749311534    0.2324294425900683    0.245505804164754    0.2558686665213675    0.26253487653725294    
  0.26483561271324535    0.2625348765372528    0.25586866652136764    0.24550580416475412    0.23242944259006812    
  0.21776320749311515    0.20260771727362326    0.1879431417381511    0.17459421663587996    0.1632207960013606    
  0.15431549253731788    0.17030319673450095    0.16322079600136064    0.15887184681508865    0.15740582151079466    
  0.15887184681508856    0.16322079600136047    0.17030319673450076    0.1798571408176402    0.19148310555428338    
  0.20462185876052502    0.2185554171557398    0.23242944259006834    0.24528585393249128    0.2561181632501042    
  0.26397608178352033    0.2681110868482482    0.26811108684824825    0.2639760817835202    0.2561181632501041    
  0.24528585393249133    0.2324294425900683    0.21855541715573967    0.20462185876052477    0.19148310555428327    
  0.1798571408176403    0.17030319673450095    0.18749549904175072    0.17985714081764018    0.17459421663587987    
  0.17191015460353307    0.171910154603533    0.17459421663587973    0.17985714081764    0.18749549904175042    
  0.19719832836022957    0.20851790609556817    0.22085135831544697    0.23345851352695482    0.24550580416475434    
  0.25611816325010434    0.26444751359052254    0.269771607815672    0.27160350684606144    0.26977160781567183    
  0.2644475135905224    0.2561181632501042    0.24550580416475412    0.23345851352695465    0.22085135831544678    
  0.20851790609556808    0.19719832836022957    0.18749549904175072    0.20484437166493666    0.19719832836022946    
  0.1914831055542831    0.18794314173815088    0.18674294158146784    0.1879431417381507    0.19148310555428286    
  0.19719832836022919    0.20484437166493638    0.21408594543556683    0.2244604451833096    0.23536434984619248    
  0.24608636036131484    0.2558686665213679    0.2639760817835206    0.26977160781567217    0.2727904533994756    
  0.27279045339947555    0.26977160781567194    0.2639760817835204    0.2558686665213678    0.2460863603613146    
  0.23536434984619223    0.22446044518330951    0.21408594543556686    0.20484437166493666    0.2210762862927529    
  0.21408594543556672    0.20851790609556772    0.20462185876052424    0.2026077172736227    0.20260771727362256    
  0.20462185876052397    0.20851790609556728    0.21408594543556617    0.22107628629275247    0.22917544712471483    
  0.23795630013508776    0.24686584902024036    0.25527027876663144    0.26253487653725344    0.2681110868482486    
  0.2716035068460617    0.2727904533994756    0.27160350684606155    0.2681110868482483    0.262534876537253    
  0.25527027876663116    0.24686584902024017    0.23795630013508756    0.2291754471247151    0.2210762862927529    
  0.23480268758328265    0.22917544712471477    0.22446044518330896    0.2208513583154462    0.21855541715573892    
  0.21776320749311437    0.21855541715573856    0.22085135831544572    0.2244604451833085    0.22917544712471427    
  0.2348026875832823    0.24110731600505042    0.24774484973947103    0.2542512494586693    0.2601057034060915    
  0.264835612713246    0.26811108684824864    0.2697716078156723    0.26977160781567217    0.26811108684824836    
  0.2648356127132456    0.26010570340609107    0.25425124945866895    0.2477448497394707    0.24110731600505042    
  0.23480268758328265    0.24474342836207358    0.24110731600505    0.237956300135087    0.23536434984619134    
  0.23345851352695365    0.2324294425900673    0.23242944259006712    0.23345851352695324    0.23536434984619078    
  0.23795630013508642    0.24110731600504948    0.24474342836207333    0.24874836255018926    0.25288402305198254    
  0.25679602445307315    0.26010570340609157    0.26253487653725355    0.2639760817835208    0.26444751359052265    
  0.2639760817835206    0.2625348765372531    0.260105703406091    0.2567960244530725    0.25288402305198215    
  0.24874836255018928    0.24474342836207358    0.24995547338139393    0.2487483625501888    0.24774484973947009    
  0.24686584902023928    0.24608636036131365    0.24550580416475312    0.24528585393249017    0.2455058041647528    
  0.24608636036131315    0.24686584902023873    0.24774484973946945    0.2487483625501884    0.24995547338139373    
  0.25137636196307317    0.2528840230519826    0.25425124945866945    0.2552702787666317    0.2558686665213682    
  0.25611816325010467    0.25611816325010456    0.25586866652136786    0.2552702787666312    0.25425124945866884    
  0.252884023051982    0.25137636196307295    0.24995547338139393    0.2499554733813938    0.25137636196307256    
  0.2528840230519814    0.254251249458668    0.2552702787666302    0.25586866652136664    0.2561181632501031    
  0.25611816325010295    0.2558686665213663    0.25527027876662955    0.2542512494586674    0.25288402305198093    
  0.2513763619630723    0.24995547338139373    0.24874836255018948    0.24774484973947122    0.24686584902024072    
  0.24608636036131507    0.24550580416475462    0.24528585393249175    0.2455058041647543    0.24608636036131468    
  0.24686584902024003    0.2477448497394705    0.24874836255018898    0.2499554733813938    0.24474342836207325    
  0.24874836255018853    0.2528840230519813    0.2567960244530716    0.26010570340608996    0.26253487653725205    
  0.2639760817835192    0.26444751359052127    0.26397608178351906    0.2625348765372516    0.2601057034060895    
  0.2567960244530711    0.25288402305198077    0.24874836255018845    0.24474342836207344    0.24110731600505056    
  0.23795630013508792    0.23536434984619276    0.23345851352695507    0.23242944259006873    0.2324294425900686    
  0.23345851352695474    0.2353643498461922    0.23795630013508728    0.24110731600505003    0.24474342836207325    
  0.23480268758328218    0.24110731600504962    0.24774484973946986    0.2542512494586679    0.26010570340609007    
  0.26483561271324463    0.2681110868482473    0.26977160781567083    0.2697716078156708    0.26811108684824697    
  0.2648356127132441    0.2601057034060896    0.25425124945866745    0.24774484973946959    0.24110731600504967    
  0.23480268758328252    0.2291754471247152    0.22446044518330988    0.2208513583154473    0.21855541715574006    
  0.21776320749311553    0.21855541715573973    0.22085135831544683    0.22446044518330918    0.22917544712471463    
  0.23480268758328218    0.2210762862927524    0.22917544712471444    0.23795630013508662    0.2468658490202391    
  0.25527027876663005    0.262534876537252    0.26811108684824736    0.27160350684606044    0.27279045339947433    
  0.2716035068460603    0.26811108684824697    0.2625348765372517    0.25527027876662967    0.24686584902023878    
  0.23795630013508662    0.22917544712471455    0.22107628629275283    0.21408594543556697    0.20851790609556836    
  0.2046218587605252    0.20260771727362362    0.20260771727362348    0.2046218587605247    0.20851790609556786    
  0.21408594543556658    0.2210762862927524    0.2048443716649363    0.21408594543556625    0.2244604451833087    
  0.2353643498461913    0.24608636036131365    0.25586866652136675    0.2639760817835195    0.2697716078156711    
  0.27279045339947455    0.27279045339947455    0.2697716078156709    0.2639760817835193    0.2558686665213665    
  0.2460863603613133    0.23536434984619112    0.22446044518330877    0.2140859454355665    0.20484437166493658    
  0.19719832836022969    0.19148310555428363    0.18794314173815146    0.1867429415814684    0.1879431417381512    
  0.19148310555428327    0.19719832836022938    0.2048443716649363    0.18749549904175045    0.19719832836022919    
  0.20851790609556745    0.22085135831544608    0.2334585135269537    0.24550580416475332    0.25611816325010334    
  0.2644475135905216    0.2697716078156711    0.27160350684606066    0.269771607815671    0.26444751359052143    
  0.2561181632501031    0.24550580416475298    0.2334585135269536    0.220851358315446    0.20851790609556745    
  0.1971983283602293    0.18749549904175056    0.1798571408176403    0.17459421663588004    0.17191015460353332    
  0.17191015460353315    0.1745942166358799    0.17985714081763995    0.18749549904175045    0.1703031967345007    
  0.17985714081764007    0.19148310555428305    0.20462185876052433    0.21855541715573906    0.2324294425900675    
  0.24528585393249044    0.2561181632501034    0.26397608178351956    0.2681110868482475    0.2681110868482474    
  0.26397608178351945    0.25611816325010317    0.2452858539324904    0.23242944259006731    0.2185554171557387    
  0.20462185876052424    0.19148310555428286    0.17985714081764004    0.17030319673450084    0.16322079600136064    
  0.15887184681508856    0.15740582151079466    0.15887184681508837    0.16322079600136052    0.1703031967345007    
  0.15431549253731766    0.1632207960013604    0.17459421663587982    0.18794314173815097    0.20260771727362295    
  0.21776320749311467    0.23242944259006756    0.2455058041647534    0.25586866652136697    0.2625348765372522    
  0.2648356127132448    0.26253487653725227    0.25586866652136686    0.24550580416475332    0.23242944259006743    
  0.21776320749311437    0.20260771727362267    0.18794314173815077    0.1745942166358798    0.1632207960013604    
  0.15431549253731774    0.1482134965224661    0.14511604573405096    0.1451160457340509    0.14821349652246596    
  0.15431549253731766    0.14035085068011335    0.14821349652246607    0.15887184681508845    0.17191015460353312    
  0.1867429415814681    0.202607717273623    0.21855541715573906    0.2334585135269539    0.24608636036131376    
  0.2552702787666304    0.26010570340609024    0.26010570340609024    0.2552702787666303    0.24608636036131365    
  0.23345851352695393    0.2185554171557389    0.20260771727362273    0.1867429415814677    0.17191015460353287    
  0.15887184681508842    0.14821349652246604    0.1403508506801134    0.13554451417249863    0.13392900142676642    
  0.1355445141724987    0.14035085068011335    0.12902074266170727    0.13554451417249866    0.14511604573405096    
  0.1574058215107946    0.17191015460353332    0.1879431417381511    0.20462185876052452    0.22085135831544636    
  0.2353643498461916    0.24686584902023942    0.2542512494586682    0.25679602445307187    0.2542512494586681    
  0.24686584902023936    0.23536434984619153    0.22085135831544628    0.2046218587605243    0.18794314173815077    
  0.1719101546035329    0.1574058215107945    0.14511604573405096    0.13554451417249871    0.12902074266170724    
  0.12572336343242596    0.125723363432426    0.12902074266170727    0.12073457747246322    0.125723363432426    
  0.1339290014267665    0.145116045734051    0.1588718468150887    0.17459421663588    0.1914831055542833    
  0.20851790609556778    0.2244604451833091    0.2379563001350869    0.24774484973947014    0.25288402305198165    
  0.25288402305198154    0.24774484973947014    0.237956300135087    0.224460445183309    0.20851790609556764    
  0.19148310555428294    0.17459421663587968    0.15887184681508842    0.14511604573405093    0.13392900142676661    
  0.125723363432426    0.12073457747246322    0.11906351797135942    0.12073457747246322    0.11571144537480733    
  0.11906351797135954    0.125723363432426    0.13554451417249874    0.1482134965224662    0.1632207960013606    
  0.1798571408176402    0.19719832836022952    0.21408594543556658    0.2291754471247147    0.24110731600504987    
  0.2487483625501888    0.25137636196307256    0.2487483625501888    0.24110731600505    0.2291754471247147    
  0.21408594543556658    0.19719832836022927    0.1798571408176399    0.1632207960013603    0.148213496522466    
  0.13554451417249874    0.125723363432426    0.11906351797135947    0.11571144537480739    0.11571144537480733    
  0.11403200291947202    0.11571144537480739    0.12073457747246329    0.12902074266170735    0.14035085068011358    
  0.15431549253731783    0.170303196734501    0.18749549904175067    0.20484437166493652    0.2210762862927526    
  0.23480268758328238    0.2447434283620733    0.24995547338139373    0.2499554733813938    0.24474342836207344    
  0.23480268758328243    0.22107628629275267    0.20484437166493635    0.1874954990417504    0.1703031967345007    
  0.15431549253731763    0.14035085068011346    0.12902074266170738    0.12073457747246331    0.1157114453748074    
  0.11403200291947202    0.11558614436090603    0.1172888252887436    0.12237714110595348    0.13076104077636214    
  0.14221464963204247    0.15632652098398023    0.17248349075949762    0.18986116210894566    0.20740098560119466    
  0.2238160499935986    0.23770226495667848    0.24776261106321396    0.25303895117357805    0.25303895117357816    
  0.2477626110632141    0.23770226495667862    0.22381604999359858    0.20740098560119452    0.1898611621089454    
  0.17248349075949734    0.15632652098398003    0.14221464963204236    0.1307610407763622    0.12237714110595349    
  0.11728882528874365    0.11558614436090603    0.1172888252887437    0.1172888252887437    0.12053958235272325    
  0.12699965857044124    0.13652582409317443    0.14880665223128192    0.16333622253601715    0.17941787542046683    
  0.19615787402272328    0.21244950393383416    0.22701216655367443    0.23854244529505428    0.24593830649575596    
  0.2484848203181505    0.24593830649575615    0.23854244529505436    0.22701216655367437    0.21244950393383408    
  0.19615787402272294    0.17941787542046647    0.1633362225360169    0.14880665223128176    0.13652582409317435    
  0.1269996585704413    0.12053958235272343    0.1172888252887437    0.12237714110595369    0.12083075855509841    
  0.12237714110595356    0.1269996585704413    0.13461394072709232    0.14499796066483717    0.1577477813110414    
  0.1722788031334399    0.18783773139053023    0.20349347726617822    0.21813517807750268    0.2305449340726522    
  0.2395682366599506    0.2443172618917164    0.24431726189171654    0.23956823665995072    0.2305449340726522    
  0.21813517807750257    0.20349347726617806    0.1878377313905299    0.17227880313343955    0.15774778131104125    
  0.14499796066483703    0.13461394072709224    0.12699965857044138    0.12237714110595369    0.13076104077636239    
  0.12785428161538268    0.12785428161538262    0.1307610407763623    0.1365258240931745    0.14499796066483717    
  0.15586960896392132    0.16866149186357962    0.18273997558207292    0.19732605364297948    0.211486814296682    
  0.22415342687667775    0.23421777396450075    0.24070322535460914    0.24294350376918952    0.2407032253546093    
  0.23421777396450078    0.2241534268766776    0.21148681429668187    0.19732605364297912    0.1827399755820725    
  0.16866149186357937    0.15586960896392107    0.14499796066483708    0.13652582409317443    0.13076104077636239    
  0.14221464963204253    0.1381948024963049    0.13684651504224785    0.13819480249630473    0.14221464963204253    
  0.14880665223128198    0.15774778131104142    0.16866149186357962    0.1810238630751555    0.19418314174549411    
  0.20736540396557415    0.21967410606461932    0.23012620889799326    0.2377593093060722    0.24179433032140088    
  0.24179433032140082    0.2377593093060722    0.23012620889799326    0.2196741060646191    0.2073654039655739    
  0.1941831417454938    0.18102386307515525    0.16866149186357937    0.15774778131104122    0.14880665223128192    
  0.14221464963204253    0.15632652098398028    0.15152887575915974    0.14909839874532693    0.14909839874532696    
  0.15152887575915974    0.15632652098398023    0.16333622253601715    0.17227880313343988    0.18273997558207297    
  0.19418314174549423    0.20596773572817467    0.2173577129900729    0.22753177994035034    0.2356310653463803    
  0.24086903964005563    0.24268337038868962    0.24086903964005554    0.2356310653463804    0.22753177994035023    
  0.21735771299007262    0.20596773572817445    0.19418314174549386    0.18273997558207264    0.1722788031334397    
  0.16333622253601707    0.15632652098398028    0.17248349075949757    0.16733882132378616    0.16418088337349226    
  0.16311699190485365    0.16418088337349224    0.16733882132378602    0.17248349075949737    0.17941787542046667    
  0.18783773139053023    0.19732605364297964    0.20736540396557435    0.217357712990073    0.22663903721168746    
  0.23449947728435966    0.24023934291569118    0.24327682941344284    0.2432768294134429    0.240239342915691    
  0.23449947728435955    0.2266390372116874    0.2173577129900728    0.2073654039655741    0.19732605364297928    
  0.1878377313905301    0.17941787542046675    0.17248349075949757    0.18986116210894574    0.18489229755444517    
  0.18145935109056183    0.1797047409166981    0.17970474091669805    0.1814593510905617    0.184892297554445    
  0.18986116210894546    0.19615787402272328    0.20349347726617847    0.21148681429668229    0.21967410606461965    
  0.22753177994035062    0.23449947728435983    0.24001223138071875    0.2435624803833633    0.24478966238100291    
  0.24356248038336317    0.24001223138071848    0.2344994772843597    0.22753177994035034    0.21967410606461932    
  0.21148681429668195    0.2034934772661783    0.19615787402272322    0.18986116210894574    0.20740098560119483    
  0.20321489820441088    0.20006258087062265    0.19809139524362143    0.1974186394299413    0.1980913952436212    
  0.2000625808706224    0.20321489820441058    0.20740098560119455    0.2124495039338343    0.218135178077503    
  0.22415342687667816    0.23012620889799382    0.23563106534638073    0.24023934291569146    0.2435624803833635    
  0.2453040724467188    0.24530407244671876    0.24356248038336323    0.24023934291569124    0.23563106534638048    
  0.23012620889799354    0.22415342687667775    0.2181351780775029    0.21244950393383424    0.20740098560119483    
  0.2238160499935988    0.22107087747018234    0.21885073000904146    0.21725048216218737    0.21639941400083987    
  0.21639941400083973    0.2172504821621871    0.21885073000904098    0.22107087747018173    0.22381604999359853    
  0.22701216655367457    0.23054493407265267    0.23421777396450136    0.23775930930607286    0.24086903964005618    
  0.24327682941344336    0.2447896623810032    0.2453040724467188    0.24478966238100305    0.24327682941344297    
  0.24086903964005577    0.23775930930607253    0.23421777396450097    0.23054493407265242    0.2270121665536747    
  0.2238160499935988    0.23770226495667876    0.23702345146204226    0.23642940056495299    0.23588754760734507    
  0.23547096765509004    0.23531026487776255    0.2354709676550897    0.2358875476073446    0.23642940056495257    
  0.23702345146204182    0.23770226495667857    0.23854244529505475    0.23956823665995133    0.24070322535461003    
  0.2417943303214017    0.24268337038869037    0.24327682941344345    0.2435624803833635    0.24356248038336345    
  0.2432768294134431    0.2426833703886899    0.2417943303214011    0.24070322535460956    0.23956823665995094    
  0.2385424452950546    0.23770226495667876    0.24776261106321426    0.24962717170271143    0.2512831209414876    
  0.2525101365661133    0.2532350164801754    0.2535412669307871    0.25354126693078693    0.253235016480175    
  0.25251013656611265    0.251283120941487    0.24962717170271095    0.24776261106321412    0.24593830649575643    
  0.24431726189171724    0.24294350376919044    0.2417943303214018    0.24086903964005632    0.2402393429156916    
  0.24001223138071884    0.24023934291569138    0.24086903964005585    0.2417943303214011    0.2429435037691897    
  0.24431726189171674    0.24593830649575635    0.24776261106321426    0.2530389511735783    0.2576894189263854    
  0.26202687276171377    0.265626092595793    0.2681990334384045    0.2696806072344543    0.2701548645624513    
  0.26968060723445403    0.26819903343840396    0.26562609259579245    0.2620268727617132    0.2576894189263851    
  0.2530389511735782    0.24848482031815106    0.24431726189171735    0.2407032253546102    0.23775930930607314    
  0.235631065346381    0.23449947728436016    0.23449947728435996    0.23563106534638062    0.23775930930607259    
  0.24070322535460942    0.24431726189171662    0.24848482031815058    0.2530389511735783    0.2530389511735781    
  0.2604600787141533    0.2676534021554243    0.2740087017828818    0.2790053488822778    0.28235220007037903    
  0.2839995716312992    0.283999571631299    0.2823522000703787    0.2790053488822772    0.2740087017828813    
  0.2676534021554239    0.2604600787141531    0.2530389511735783    0.2459383064957567    0.2395682366599515    
  0.23421777396450172    0.230126208897994    0.22753177994035098    0.22663903721168785    0.22753177994035062    
  0.2301262088979936    0.23421777396450089    0.23956823665995067    0.24593830649575607    0.2530389511735781    
  0.24776261106321396    0.25768941892638525    0.26765340215542427    0.27688820288461424    0.2846615591714191    
  0.2904302213199602    0.2939239089481845    0.29508591636889053    0.2939239089481843    0.29043022131995977    
  0.28466155917141867    0.2768882028846138    0.2676534021554238    0.2576894189263852    0.24776261106321426    
  0.23854244529505492    0.23054493407265295    0.2241534268766784    0.21967410606461993    0.21735771299007328    
  0.2173577129900732    0.21967410606461946    0.22415342687667775    0.23054493407265214    0.23854244529505428    
  0.24776261106321396    0.23770226495667834    0.2496271717027109    0.26202687276171344    0.2740087017828816    
  0.28466155917141917    0.29320254724571543    0.29909761697597564    0.3020846055382286    0.30208460553822847    
  0.29909761697597537    0.293202547245715    0.2846615591714188    0.2740087017828813    0.2620268727617134    
  0.24962717170271115    0.23770226495667876    0.2270121665536749    0.21813517807750324    0.21148681429668267    
  0.2073654039655746    0.2059677357281749    0.2073654039655743    0.2114868142966821    0.2181351780775025    
  0.22701216655367423    0.23770226495667834    0.22381604999359833    0.23702345146204182    0.2512831209414872    
  0.26562609259579273    0.2790053488822776    0.2904302213199601    0.29909761697597564    0.3044746540493698    
  0.3062922497973368    0.3044746540493698    0.29909761697597537    0.2904302213199599    0.2790053488822773    
  0.26562609259579245    0.2512831209414873    0.23702345146204212    0.22381604999359886    0.21244950393383444    
  0.20349347726617867    0.19732605364297975    0.1941831417454943    0.19418314174549417    0.19732605364297928    
  0.20349347726617809    0.21244950393383397    0.22381604999359833    0.2074009856011944    0.22107087747018173    
  0.23642940056495268    0.2525101365661131    0.26819903343840434    0.28235220007037903    0.29392390894818476    
  0.30208460553822875    0.30629224979733694    0.306292249797337    0.3020846055382286    0.2939239089481846    
  0.28235220007037887    0.26819903343840407    0.25251013656611304    0.23642940056495282    0.22107087747018206    
  0.20740098560119477    0.1961578740227234    0.18783773139053048    0.182739975582073    0.18102386307515556    
  0.18273997558207275    0.1878377313905301    0.19615787402272297    0.2074009856011944    0.18986116210894546    
  0.20321489820441052    0.21885073000904107    0.23588754760734487    0.25323501648017543    0.2696806072344544    
  0.2839995716312994    0.29508591636889075    0.3020846055382288    0.3044746540493701    0.3020846055382287    
  0.29508591636889075    0.2839995716312992    0.2696806072344542    0.2532350164801753    0.23588754760734487    
  0.21885073000904118    0.2032148982044107    0.18986116210894566    0.17941787542046678    0.1722788031334399    
  0.1686614918635796    0.16866149186357943    0.17227880313343974    0.17941787542046642    0.18986116210894546    
  0.17248349075949732    0.18489229755444503    0.2000625808706225    0.21725048216218731    0.2354709676550901    
  0.25354126693078727    0.27015486456245147    0.28399957163129946    0.2939239089481847    0.29909761697597587    
  0.29909761697597576    0.29392390894818465    0.2839995716312992    0.27015486456245147    0.25354126693078716    
  0.23547096765508985    0.21725048216218737    0.2000625808706224    0.18489229755444503    0.17248349075949748    
  0.1633362225360171    0.1577477813110413    0.15586960896392119    0.15774778131104106    0.16333622253601698    
  0.17248349075949732    0.15632652098398    0.16733882132378597    0.18145935109056174    0.19809139524362146    
  0.21639941400084006    0.23531026487776277    0.25354126693078727    0.2696806072344545    0.2823522000703792    
  0.29043022131996027    0.29320254724571554    0.29043022131996044    0.2823522000703792    0.2696806072344545    
  0.2535412669307872    0.2353102648777626    0.21639941400083987    0.1980913952436213    0.18145935109056172    
  0.16733882132378594    0.15632652098398012    0.14880665223128178    0.14499796066483692    0.14499796066483692    
  0.14880665223128164    0.15632652098398    0.14221464963204222    0.15152887575915955    0.16418088337349207    
  0.17970474091669808    0.19741863942994145    0.21639941400084015    0.2354709676550901    0.25323501648017555    
  0.26819903343840445    0.2790053488822779    0.2846615591714194    0.2846615591714194    0.2790053488822778    
  0.26819903343840445    0.2532350164801756    0.23547096765508999    0.21639941400083998    0.19741863942994117    
  0.17970474091669789    0.16418088337349201    0.15152887575915952    0.1422146496320423    0.1365258240931742    
  0.134613940727092    0.13652582409317426    0.14221464963204222    0.13076104077636208    0.13819480249630453    
  0.14909839874532674    0.16311699190485363    0.1797047409166982    0.19809139524362157    0.2172504821621875    
  0.23588754760734512    0.25251013656611343    0.26562609259579306    0.274008701782882    0.2768882028846146    