#     DFTpy    
  CRYSTAL 
    
  PRIMVEC    
  1.3144054615128302    -2.2766170410862303    0.0    
  1.3144054615128302    2.2766170410862303    0.0    
  0.0    0.0    4.444113831793101    
  PRIMCOORD    
  2    1    
  Si    1.3144054615128302    0.7588723470287402    1.1110284579482803    
  Si    1.3144054615128302    -0.7588723470287402    3.3330853738448307    
  BEGIN_BLOCK_DATAGRID_3D    
  3d_datagrid_density    
  BEGIN_DATAGRID_3D#0    
  26    26    49    
  0.0    0.0    0.0    
  1.3144054664155878    -2.2766170495780553    0.0    
  1.3144054664155878    2.2766170495780553    0.0    
  0.0    0.0    4.44411384836973    
  0.14167562391507094    0.14370331587636034    0.14971261093601235    0.15949036432583039    0.17269180988913366    
  0.18881932665281662    0.20717017792588155    0.22678580189241535    0.2464443435659144    0.26472228287884664    
  0.2801284972637305    0.2912913935307675    0.2971583329302584    0.2971583329302583    0.29129139353076744    
  0.28012849726373024    0.2647222828788462    0.2464443435659139    0.22678580189241462    0.207170177925881    
  0.1888193266528163    0.17269180988913355    0.15949036432583039    0.14971261093601243    0.14370331587636045    
  0.14167562391507094    0.14370331587636045    0.14370331587636043    0.1477214422190459    0.15561301671209132    
  0.16710016404971476    0.18176743604281304    0.19902315823440336    0.21804376819618917    0.23774176242556433    
  0.2567914809566601    0.27372604314915067    0.28709807215042277    0.2956762607231146    0.2986328852857577    
  0.29567626072311437    0.28709807215042255    0.27372604314915017    0.2567914809566596    0.2377417624255638    
  0.21804376819618862    0.19902315823440292    0.18176743604281279    0.16710016404971476    0.15561301671209143    
  0.14772144221904604    0.14370331587636045    0.14971261093601254    0.14772144221904607    0.1497126109360125    
  0.15561301671209135    0.16521107651589073    0.17816362182710746    0.19397507446793139    0.21194850669949275    
  0.2311408511883743    0.2503602317674381    0.26822569944010516    0.28329048132105134    0.2942153048634711    
  0.29996191119850063    0.2999619111985005    0.29421530486347097    0.28329048132105095    0.2682256994401046    
  0.2503602317674376    0.23114085118837382    0.2119485066994922    0.19397507446793114    0.1781636218271074    
  0.16521107651589087    0.1556130167120916    0.14971261093601254    0.1594903643258306    0.15561301671209157    
  0.1556130167120915    0.15949036432583044    0.16710016404971476    0.17816362182710743    0.19226452127445479    
  0.2088152664266052    0.2270105041940923    0.24580556035308884    0.2639464094660543    0.2800572319806513    
  0.2927792097526424    0.30094548511499564    0.3037617099917816    0.3009454851149956    0.29277920975264216    
  0.2800572319806509    0.2639464094660538    0.24580556035308843    0.2270105041940919    0.20881526642660506    
  0.1922645212744547    0.17816362182710757    0.1671001640497149    0.1594903643258306    0.17269180988913388    
  0.167100164049715    0.16521107651589098    0.16710016404971484    0.1726918098891336    0.18176743604281292    
  0.19397507446793125    0.20881526642660517    0.22560328116235456    0.24343742023968093    0.2612065119575139    
  0.2776504119872904    0.29146903601713453    0.30146788925904916    0.30672137644642417    0.3067213764464242    
  0.3014678892590489    0.2914690360171342    0.2776504119872902    0.26120651195751365    0.2434374202396808    
  0.2256032811623545    0.20881526642660517    0.19397507446793139    0.18176743604281312    0.17269180988913388    
  0.18881932665281687    0.18176743604281323    0.17816362182710765    0.17816362182710765    0.18176743604281287    
  0.1888193266528164    0.19902315823440306    0.21194850669949233    0.2270105041940921    0.2434374202396809    
  0.26026026207062103    0.276351035587275    0.29051280105092625    0.30160515417746114    0.30868140891975215    
  0.31111356260630263    0.3086814089197521    0.3016051541774609    0.29051280105092603    0.27635103558727486    
  0.2602602620706208    0.2434374202396809    0.22701050419409224    0.21194850669949272    0.19902315823440347    
  0.18881932665281687    0.2071701779258817    0.19902315823440347    0.19397507446793136    0.19226452127445476    
  0.1939750744679311    0.1990231582344029    0.20717017792588105    0.21804376819618865    0.23114085118837394    
  0.24580556035308862    0.26120651195751377    0.27635103558727503    0.2901581935648793    0.3015788017758454    
  0.3097233014646296    0.31395836367263125    0.3139583636726312    0.30972330146462945    0.3015788017758451    
  0.2901581935648792    0.27635103558727503    0.26120651195751393    0.24580556035308884    0.2311408511883745    
  0.21804376819618926    0.2071701779258817    0.22678580189241548    0.21804376819618926    0.21194850669949267    
  0.20881526642660514    0.20881526642660497    0.21194850669949214    0.21804376819618848    0.22678580189241468    
  0.23774176242556377    0.2503602317674378    0.2639464094660541    0.2776504119872906    0.29051280105092636    
  0.3015788017758454    0.31003846516531336    0.31532243222958933    0.3171161089206782    0.31532243222958917    
  0.31003846516531325    0.3015788017758454    0.2905128010509263    0.2776504119872906    0.2639464094660544    
  0.2503602317674385    0.23774176242556472    0.22678580189241548    0.2464443435659148    0.23774176242556452    
  0.2311408511883744    0.22701050419409205    0.22560328116235412    0.2270105041940916    0.23114085118837346    
  0.23774176242556352    0.24644434356591366    0.2567914809566596    0.26822569944010494    0.2800572319806514    
  0.29146903601713464    0.3016051541774615    0.3097233014646299    0.31532243222958944    0.3181592647127738    
  0.3181592647127738    0.31532243222958933    0.3097233014646297    0.30160515417746125    0.29146903601713464    
  0.28005723198065147    0.26822569944010544    0.25679148095666043    0.2464443435659148    0.2647222828788471    
  0.25679148095666027    0.250360231767438    0.24580556035308862    0.2434374202396805    0.2434374202396803    
  0.24580556035308782    0.250360231767437    0.25679148095665905    0.26472228287884597    0.2737260431491503    
  0.28329048132105134    0.29277920975264277    0.30146788925904966    0.3086814089197527    0.31395836367263164    
  0.31711610892067843    0.3181592647127738    0.31711610892067843    0.31395836367263136    0.3086814089197524    
  0.3014678892590493    0.29277920975264277    0.28329048132105167    0.27372604314915105    0.2647222828788471    
  0.28012849726373085    0.27372604314915083    0.268225699440105    0.2639464094660538    0.2612065119575132    
  0.2602602620706201    0.2612065119575127    0.26394640946605297    0.2682256994401039    0.2737260431491496    
  0.2801284972637299    0.28709807215042266    0.2942153048634714    0.3009454851149963    0.3067213764464249    
  0.3111135626063033    0.31395836367263175    0.3153224322295895    0.31532243222958944    0.3139583636726314    
  0.31111356260630274    0.30672137644642444    0.3009454851149959    0.2942153048634714    0.28709807215042316    
  0.28012849726373085    0.29129139353076783    0.2870980721504229    0.2832904813210511    0.280057231980651    
  0.2776504119872898    0.2763510355872742    0.27635103558727403    0.27765041198728924    0.2800572319806499    
  0.28329048132105006    0.28709807215042177    0.2912913935307672    0.2956762607231147    0.29996191119850124    
  0.30376170999178237    0.306721376446425    0.3086814089197529    0.30972330146463    0.3100384651653135    
  0.3097233014646299    0.3086814089197524    0.3067213764464243    0.3037617099917818    0.29996191119850085    
  0.29567626072311487    0.29129139353076783    0.29715833293025845    0.29567626072311454    0.2942153048634709    
  0.292779209752642    0.2914690360171339    0.2905128010509254    0.2901581935648783    0.29051280105092514    
  0.2914690360171331    0.29277920975264105    0.2942153048634699    0.2956762607231138    0.2971583329302581    
  0.29863288528575815    0.29996191119850135    0.3009454851149966    0.30146788925904994    0.30160515417746175    
  0.30157880177584573    0.3015788017758455    0.3016051541774612    0.30146788925904916    0.30094548511499575    
  0.2999619111985007    0.29863288528575777    0.29715833293025845    0.29715833293025823    0.2986328852857575    
  0.2999619111985003    0.30094548511499525    0.3014678892590486    0.30160515417746037    0.30157880177584445    
  0.30157880177584423    0.3016051541774599    0.3014678892590478    0.3009454851149944    0.29996191119849963    
  0.2986328852857573    0.2971583329302584    0.29567626072311504    0.29421530486347197    0.2927792097526432    
  0.29146903601713514    0.29051280105092675    0.29015819356487954    0.2905128010509263    0.2914690360171343    
  0.2927792097526422    0.29421530486347086    0.29567626072311437    0.29715833293025823    0.2912913935307671    
  0.29567626072311404    0.2999619111985    0.3037617099917812    0.30672137644642367    0.3086814089197516    
  0.30972330146462884    0.31003846516531236    0.3097233014646286    0.3086814089197511    0.3067213764464231    
  0.3037617099917806    0.29996191119849985    0.2956762607231142    0.2912913935307677    0.2870980721504233    
  0.28329048132105206    0.2800572319806519    0.277650411987291    0.2763510355872755    0.27635103558727525    
  0.2776504119872903    0.2800572319806509    0.28329048132105084    0.2870980721504222    0.2912913935307671    
  0.28012849726372974    0.28709807215042205    0.29421530486347036    0.300945485114995    0.30672137644642367    
  0.3111135626063021    0.3139583636726306    0.31532243222958845    0.3153224322295883    0.3139583636726303    
  0.31111356260630163    0.3067213764464233    0.30094548511499475    0.2942153048634704    0.28709807215042255    
  0.2801284972637306    0.27372604314915117    0.26822569944010566    0.26394640946605474    0.2612065119575142    
  0.26026026207062114    0.2612065119575137    0.2639464094660538    0.2682256994401045    0.2737260431491499    
  0.28012849726372974    0.2647222828788458    0.2737260431491497    0.28329048132105034    0.29277920975264154    
  0.30146788925904844    0.3086814089197516    0.3139583636726307    0.3171161089206775    0.3181592647127729    
  0.3171161089206774    0.3139583636726303    0.30868140891975127    0.3014678892590482    0.2927792097526416    
  0.2832904813210508    0.27372604314915044    0.26472228287884686    0.2567914809566605    0.25036023176743855    
  0.2458055603530892    0.24343742023968118    0.24343742023968085    0.24580556035308843    0.2503602317674374    
  0.2567914809566593    0.2647222828788458    0.2464443435659135    0.25679148095665905    0.26822569944010405    
  0.28005723198065036    0.29146903601713364    0.30160515417746037    0.3097233014646289    0.3153224322295886    
  0.31815926471277306    0.318159264712773    0.3153224322295884    0.3097233014646288    0.30160515417746026    
  0.2914690360171336    0.2800572319806506    0.26822569944010466    0.25679148095665993    0.2464443435659146    
  0.2377417624255646    0.23114085118837455    0.22701050419409238    0.22560328116235456    0.2270105041940919    
  0.23114085118837366    0.23774176242556352    0.2464443435659135    0.2267858018924144    0.23774176242556339    
  0.25036023176743705    0.2639464094660533    0.2776504119872897    0.29051280105092553    0.3015788017758447    
  0.31003846516531275    0.3153224322295886    0.31711610892067765    0.31532243222958856    0.31003846516531264    
  0.3015788017758445    0.2905128010509255    0.2776504119872897    0.2639464094660538    0.2503602317674377    
  0.23774176242556425    0.22678580189241535    0.2180437681961893    0.2119485066994926    0.20881526642660514    
  0.2088152664266049    0.2119485066994921    0.21804376819618843    0.2267858018924144    0.2071701779258808    
  0.21804376819618831    0.2311408511883734    0.245805560353088    0.26120651195751304    0.27635103558727425    
  0.29015819356487865    0.3015788017758448    0.309723301464629    0.3139583636726308    0.31395836367263075    
  0.309723301464629    0.3015788017758446    0.2901581935648786    0.27635103558727436    0.26120651195751327    
  0.24580556035308831    0.23114085118837396    0.21804376819618904    0.20717017792588158    0.19902315823440322    
  0.19397507446793116    0.19226452127445443    0.19397507446793089    0.1990231582344027    0.2071701779258808    
  0.18881932665281606    0.19902315823440273    0.21194850669949206    0.22701050419409174    0.24343742023968032    
  0.26026026207062036    0.2763510355872745    0.2905128010509258    0.3016051541774607    0.3086814089197518    
  0.31111356260630235    0.3086814089197518    0.30160515417746064    0.29051280105092564    0.27635103558727436    
  0.26026026207062025    0.24343742023968043    0.22701050419409188    0.21194850669949247    0.1990231582344032    
  0.18881932665281656    0.18176743604281284    0.1781636218271072    0.1781636218271071    0.1817674360428126    
  0.18881932665281606    0.17269180988913327    0.1817674360428126    0.19397507446793086    0.20881526642660492    
  0.22560328116235417    0.24343742023968057    0.26120651195751343    0.27765041198729    0.291469036017134    
  0.3014678892590488    0.306721376446424    0.30672137644642394    0.30146788925904877    0.2914690360171339    
  0.27765041198728974    0.26120651195751315    0.24343742023968037    0.2256032811623541    0.20881526642660495    
  0.1939750744679312    0.18176743604281292    0.17269180988913357    0.16710016404971462    0.16521107651589043    
  0.16710016404971445    0.17269180988913327    0.1594903643258301    0.16710016404971448    0.17816362182710724    
  0.19226452127445462    0.20881526642660506    0.22701050419409202    0.24580556035308862    0.26394640946605386    
  0.28005723198065097    0.29277920975264216    0.3009454851149955    0.30376170999178154    0.3009454851149953    
  0.29277920975264193    0.28005723198065063    0.2639464094660535    0.2458055603530881    0.22701050419409163    
  0.20881526642660486    0.19226452127445462    0.1781636218271074    0.1671001640497147    0.15949036432583025    
  0.15561301671209116    0.15561301671209113    0.1594903643258301    0.14971261093601226    0.15561301671209116    
  0.1652110765158906    0.17816362182710735    0.19397507446793122    0.21194850669949258    0.2311408511883742    
  0.2503602317674379    0.2682256994401048    0.2832904813210511    0.2942153048634709    0.2999619111985006    
  0.29996191119850035    0.2942153048634707    0.28329048132105084    0.2682256994401045    0.2503602317674374    
  0.2311408511883736    0.21194850669949214    0.193975074467931    0.17816362182710735    0.1652110765158907    
  0.15561301671209132    0.14971261093601232    0.14772144221904582    0.14971261093601226    0.14370331587636026    
  0.14772144221904582    0.15561301671209127    0.16710016404971473    0.18176743604281298    0.19902315823440322    
  0.21804376819618912    0.23774176242556425    0.25679148095665993    0.2737260431491505    0.28709807215042277    
  0.2956762607231145    0.2986328852857577    0.29567626072311437    0.2870980721504223    0.2737260431491501    
  0.25679148095665943    0.23774176242556372    0.2180437681961885    0.1990231582344029    0.18176743604281273    
  0.16710016404971467    0.15561301671209138    0.1477214422190459    0.14370331587636032    0.14370331587636026    
  0.14167562391507094    0.14370331587636034    0.14971261093601235    0.15949036432583039    0.17269180988913366    
  0.18881932665281662    0.20717017792588155    0.22678580189241535    0.2464443435659144    0.26472228287884664    
  0.2801284972637305    0.2912913935307675    0.2971583329302584    0.2971583329302583    0.29129139353076744    
  0.28012849726373024    0.2647222828788462    0.2464443435659139    0.22678580189241462    0.207170177925881    
  0.1888193266528163    0.17269180988913355    0.15949036432583039    0.14971261093601243    0.14370331587636045    
  0.14167562391507094    0.14364667787106214    0.14568198074404637    0.15171687848906096    0.16154512250277756    
  0.17482889585737982    0.19107196151442213    0.20956303540373597    0.22932546470419132    0.24911616936467984    
  0.26749629921470525    0.2829705529126611    0.2941722340806729    0.3000561869499802    0.30005618694998015    
  0.2941722340806727    0.2829705529126608    0.26749629921470475    0.24911616936467917    0.22932546470419068    
  0.2095630354037354    0.19107196151442188    0.17482889585737973    0.16154512250277758    0.15171687848906104    
  0.14568198074404645    0.14364667787106214    0.14568198074404645    0.1456819807440464    0.1496002672915821    
  0.15728594018112915    0.16845296233854362    0.18268417339651485    0.19940135272068077    0.21781188834217305    
  0.2368701154154468    0.25529397021322586    0.27165953775824403    0.2845664362614787    0.29283521466937995    
  0.29568270050255063    0.2928352146693798    0.2845664362614785    0.2716595377582437    0.2552939702132253    
  0.23687011541544628    0.2178118883421724    0.19940135272068038    0.18268417339651458    0.1684529623385436    
  0.15728594018112926    0.14960026729158227    0.14568198074404645    0.1517168784890612    0.14983342951299164    
  0.15171687848906115    0.15728594018112915    0.16630971743545506    0.17843030350621256    0.19316364464505    
  0.20986525453963437    0.22768036157883514    0.24551945802493402    0.26209913756682873    0.27606489606106815    
  0.2861736461099079    0.2914811838451645    0.2914811838451644    0.28617364610990786    0.27606489606106777    
  0.2620991375668282    0.24551945802493355    0.2276803615788346    0.20986525453963387    0.19316364464504976    
  0.17843030350621247    0.16630971743545525    0.1572859401811294    0.1517168784890612    0.16154512250277778    
  0.15800882728177093    0.15800882728177085    0.1615451225027776    0.16845296233854357    0.17843030350621247    
  0.19106285634278952    0.20581680793531232    0.22199803444555866    0.23870845682506325    0.2548440003404383    
  0.26916764287710576    0.28045697174359    0.2876845049494552    0.2901722431695387    0.2876845049494551    
  0.28045697174358986    0.26916764287710526    0.2548440003404378    0.23870845682506278    0.22199803444555827    
  0.20581680793531207    0.19106285634278938    0.17843030350621264    0.16845296233854382    0.16154512250277778    
  0.17482889585738004    0.16995358096402727    0.16829946703634055    0.1699535809640271    0.17482889585737976    
  0.18268417339651474    0.19316364464504984    0.2058168079353122    0.22007704697072789    0.23521547836423898    
  0.25031276506646477    0.2642913060255487    0.2760231726690486    0.28448732052101344    0.2889210236087143    
  0.28892102360871436    0.2844873205210133    0.2760231726690483    0.26429130602554834    0.25031276506646444    
  0.23521547836423867    0.2200770469707277    0.20581680793531226    0.19316364464504998    0.18268417339651497    
  0.17482889585738004    0.1910719615144224    0.18526206773962808    0.1822715890222466    0.18227158902224658    
  0.1852620677396277    0.19107196151442193    0.1994013527206805    0.20986525453963406    0.22199803444555852    
  0.23521547836423887    0.24877173474608896    0.2617609665869862    0.27319232719788056    0.2821234059534256    
  0.28779922950101705    0.28974458581130846    0.28779922950101694    0.28212340595342544    0.27319232719788034    
  0.26176096658698605    0.24877173474608882    0.2352154783642388    0.2219980344455587    0.20986525453963437    
  0.19940135272068088    0.1910719615144224    0.20956303540373616    0.20331974161043506    0.19941220435809887    
  0.1980798768730611    0.19941220435809853    0.20331974161043445    0.20956303540373541    0.2178118883421725    
  0.22768036157883476    0.238708456825063    0.2503127650664647    0.2617609665869863    0.2722161578608135    
  0.28085173549268616    0.28698472687284077    0.2901597161433124    0.29015971614331215    0.28698472687284066    
  0.28085173549268583    0.2722161578608134    0.2617609665869862    0.2503127650664647    0.23870845682506325    
  0.22768036157883528    0.21781188834217316    0.20956303540373616    0.22932546470419152    0.22324176417296085    
  0.2189437555630564    0.21671032598373066    0.21671032598373052    0.21894375556305584    0.22324176417296004    
  0.22932546470419068    0.2368701154154462    0.2455194580249338    0.2548440003404381    0.2642913060255489    
  0.2731923271978807    0.28085173549268616    0.28668269744240027    0.29030110289269795    0.2915234028234586    
  0.29030110289269784    0.28668269744240005    0.28085173549268605    0.2731923271978805    0.2642913060255488    
  0.25484400034043836    0.2455194580249344    0.23687011541544714    0.22932546470419152    0.2491161693646802    
  0.24385577939232184    0.23979027962634122    0.23719861010006377    0.23630543835999204    0.23719861010006318    
  0.23979027962634022    0.2438557793923209    0.2491161693646791    0.25529397021322536    0.26209913756682857    
  0.2691676428771059    0.2760231726690488    0.28212340595342594    0.286984726872841    0.2903011028926981    
  0.2919620620388829    0.29196206203888286    0.29030110289269795    0.2869847268728409    0.2821234059534257    
  0.27602317266904874    0.26916764287710593    0.262099137566829    0.2552939702132262    0.2491161693646802    
  0.2674962992147057    0.2637541816167848    0.26061244498684616    0.25830006350869006    0.25706195671147003    
  0.2570619567114698    0.25830006350868934    0.26061244498684516    0.26375418161678355    0.26749629921470464    
  0.2716595377582438    0.2760648960610682    0.2804569717435905    0.28448732052101405    0.2877992295010176    
  0.2901597161433127    0.2915234028234589    0.2919620620388829    0.2915234028234589    0.2901597161433124    
  0.28779922950101716    0.28448732052101366    0.28045697174359047    0.27606489606106843    0.2716595377582445    
  0.2674962992147057    0.28297055291266143    0.28140933406087115    0.27990521788287226    0.27857241469407573    
  0.2776244499090468    0.27727792249326044    0.2776244499090463    0.2785724146940749    0.2799052178828711    
  0.28140933406087    0.2829705529126606    0.2845664362614787    0.2861736461099084    0.2876845049494559    
  0.28892102360871513    0.28974458581130924    0.2901597161433127    0.2903011028926982    0.290301102892698    
  0.29015971614331243    0.2897445858113087    0.28892102360871463    0.2876845049494555    0.28617364610990836    
  0.2845664362614791    0.28297055291266143    0.2941722340806732    0.2953327877651038    0.2961323849562526    
  0.2964956404752847    0.2965291365308877    0.2964565210823632    0.296456521082363    0.29652913653088714    
  0.29649564047528365    0.29613238495625155    0.29533278776510286    0.2941722340806727    0.2928352146693803    
  0.2914811838451652    0.2901722431695396    0.2889210236087153    0.2877992295010178    0.28698472687284127    
  0.2866826974424004    0.28698472687284104    0.2877992295010172    0.28892102360871447    0.290172243169539    
  0.2914811838451647    0.2928352146693803    0.2941722340806732    0.3000561869499804    0.3042603632102639    
  0.30788558022285223    0.3106061493022185    0.3123288233112995    0.31320159138323633    0.3134563197457556    
  0.31320159138323594    0.31232882331129874    0.31060614930221764    0.3078855802228514    0.3042603632102634    
  0.30005618694998004    0.2956827005025512    0.29148118384516536    0.2876845049494562    0.28448732052101433    
  0.2821234059534262    0.2808517354926864    0.2808517354926862    0.2821234059534257    0.2844873205210135    
  0.2876845049494553    0.2914811838451645    0.2956827005025507    0.3000561869499804    0.30005618694998004    
  0.3073372260605621    0.31406632922226163    0.3196514932769428    0.3237217111789716    0.3262367882951972    
  0.3273950784753304    0.3273950784753303    0.3262367882951967    0.32372171117897086    0.3196514932769421    
  0.314066329222261    0.30733722606056196    0.3000561869499803    0.2928352146693806    0.28617364610990886    
  0.280456971743591    0.2760231726690493    0.27319232719788106    0.27221615786081366    0.27319232719788067    
  0.2760231726690484    0.28045697174358986    0.2861736461099078    0.29283521466937973    0.30005618694998004    
  0.29417223408067245    0.3042603632102634    0.31406632922226135    0.3227698245234435    0.32969818430084963    
  0.3345215172153755    0.3372729818550421    0.3381543641143935    0.3372729818550418    0.3345215172153751    
  0.32969818430084913    0.3227698245234431    0.3140663292222613    0.3042603632102637    0.29417223408067317    
  0.2845664362614793    0.2760648960610689    0.26916764287710643    0.26429130602554923    0.26176096658698667    
  0.2617609665869864    0.26429130602554857    0.2691676428771054    0.27606489606106765    0.28456643626147815    
  0.29417223408067245    0.2829705529126603    0.2953327877651029    0.3078855802228517    0.3196514932769426    
  0.3296981843008496    0.33736445082440236    0.34239135706871004    0.34483819146199396    0.34483819146199396    
  0.3423913570687098    0.33736445082440203    0.3296981843008493    0.3196514932769425    0.3078855802228519    
  0.2953327877651036    0.2829705529126614    0.2716595377582447    0.2620991375668293    0.2548440003404388    
  0.2503127650664651    0.2487717347460891    0.25031276506646466    0.2548440003404378    0.26209913756682807    
  0.27165953775824336    0.2829705529126603    0.2674962992147043    0.28140933406086993    0.29613238495625166    
  0.310606149302218    0.3237217111789713    0.3345215172153755    0.34239135706871016    0.3471013616007107    
  0.3486596351685509    0.3471013616007106    0.3423913570687099    0.3345215172153752    0.3237217111789713    
  0.3106061493022182    0.29613238495625227    0.2814093340608708    0.2674962992147056    0.2552939702132263    
  0.2455194580249346    0.23870845682506361    0.23521547836423912    0.23521547836423887    0.23870845682506286    
  0.24551945802493333    0.255293970213225    0.2674962992147043    0.24911616936467879    0.26375418161678343    
  0.27990521788287126    0.29649564047528393    0.3123288233112992    0.32623678829519714    0.3372729818550421    
  0.3448381914619942    0.3486596351685512    0.34865963516855103    0.344838191461994    0.3372729818550421    
  0.32623678829519703    0.31232882331129924    0.2964956404752843    0.2799052178828719    0.2637541816167845    
  0.24911616936468    0.23687011541544703    0.22768036157883537    0.22199803444555885    0.22007704697072777    
  0.22199803444555827    0.22768036157883448    0.23687011541544595    0.24911616936467879    0.22932546470419035    
  0.24385577939232073    0.2606124449868452    0.278572414694075    0.2965291365308874    0.3132015913832363    
  0.32739507847533056    0.3381543641143938    0.3448381914619942    0.34710136160071087    0.3448381914619941    
  0.3381543641143937    0.32739507847533056    0.31320159138323644    0.29652913653088764    0.2785724146940756    
  0.260612444986846    0.24385577939232164    0.22932546470419132    0.21781188834217316    0.2098652545396343    
  0.20581680793531226    0.20581680793531199    0.20986525453963378    0.21781188834217222    0.22932546470419035    
  0.20956303540373522    0.22324176417295988    0.23979027962634014    0.25830006350868945    0.27762444990904644    
  0.2964565210823632    0.31345631974575583    0.32739507847533067    0.33727298185504223    0.34239135706871027    
  0.34239135706871027    0.33727298185504223    0.3273950784753306    0.31345631974575594    0.29645652108236337    
  0.2776244499090468    0.25830006350868984    0.23979027962634078    0.22324176417296063    0.20956303540373591    
  0.19940135272068069    0.1931636446450498    0.19106285634278916    0.19316364464504945    0.19940135272068008    
  0.20956303540373522    0.19107196151442163    0.20331974161043428    0.21894375556305581    0.23719861010006332    
  0.25706195671146986    0.2772779224932608    0.29645652108236337    0.3132015913832366    0.3262367882951974    
  0.33452151721537576    0.33736445082440264    0.3345215172153757    0.32623678829519737    0.3132015913832365    
  0.2964565210823633    0.2772779224932607    0.25706195671147003    0.23719861010006357    0.21894375556305623    
  0.20331974161043476    0.19107196151442207    0.18268417339651466    0.1784303035062123    0.17843030350621217    
  0.18268417339651438    0.19107196151442163    0.17482889585737946    0.1852620677396274    0.19941220435809828    
  0.21671032598373044    0.23630543835999204    0.2570619567114701    0.2776244499090469    0.2965291365308878    
  0.3123288233112995    0.3237217111789717    0.32969818430084996    0.3296981843008499    0.3237217111789717    
  0.3123288233112995    0.29652913653088764    0.2776244499090468    0.2570619567114699    0.236305438359992    
  0.21671032598373052    0.19941220435809867    0.1852620677396277    0.17482889585737973    0.16845296233854343    
  0.16630971743545475    0.16845296233854326    0.17482889585737946    0.1615451225027773    0.1699535809640267    
  0.18227158902224613    0.198079876873061    0.2167103259837306    0.23719861010006363    0.25830006350869    
  0.2785724146940756    0.29649564047528454    0.3106061493022186    0.3196514932769431    0.3227698245234438    
  0.3196514932769429    0.3106061493022185    0.2964956404752843    0.2785724146940754    0.25830006350868956    
  0.2371986101000633    0.21671032598373038    0.19807987687306097    0.18227158902224633    0.16995358096402693    