#     DFTpy    
  CRYSTAL 
    
  PRIMVEC    
  1.4798551000249303    -2.5631842210831004    0.0    
  1.4798551000249303    2.5631842210831004    0.0    
  0.0    0.0    5.003512775655171    
  PRIMCOORD    
  2    1    
  Si    1.4798551000249303    0.8543947403610302    1.2508781939137903    
  Si    1.4798551000249303    -0.8543947403610302    3.7526345817413804    
  BEGIN_BLOCK_DATAGRID_3D    
  3d_datagrid_density    
  BEGIN_DATAGRID_3D#0    
  28    28    49    
  0.0    0.0    0.0    
  1.4798551055448181    -2.5631842306438264    0.0    
  1.4798551055448181    2.5631842306438264    0.0    
  0.0    0.0    5.003512794318369    
  0.0759154664141228    0.0769056269685323    0.07987773487281301    0.08482854655727803    0.09172500360337488    
  0.10046127733757879    0.110803264430831    0.12234317637707115    0.13449450380238476    0.14653357168331593    
  0.1576584948605431    0.16703847835178506    0.17387033489357126    0.17748262507124543    0.17748262507124543    
  0.17387033489357134    0.16703847835178504    0.15765849486054298    0.14653357168331563    0.1344945038023843    
  0.12234317637707061    0.11080326443083045    0.10046127733757834    0.09172500360337461    0.08482854655727791    
  0.07987773487281298    0.0769056269685323    0.0759154664141228    0.07690562696853237    0.07690562696853234    
  0.07888695847329974    0.08285003978064456    0.08877953950113787    0.09661109086006485    0.1061814657301791    
  0.1171747857994915    0.1290932656272976    0.14127505907113608    0.15294837345606152    0.16328885658279127    
  0.17147126628687384    0.17674722276793714    0.17857305374641652    0.17674722276793708    0.17147126628687395    
  0.16328885658279116    0.15294837345606144    0.14127505907113572    0.1290932656272971    0.11717478579949095    
  0.1061814657301786    0.09661109086006447    0.08877953950113773    0.08285003978064448    0.07888695847329966    
  0.07690562696853237    0.079877734872813    0.07888695847329971    0.07987773487281308    0.08285003978064463    
  0.08779602870036106    0.09467667159915735    0.10338222023810156    0.11368039448244803    0.12517066796464815    
  0.13727268512339014    0.1492605769213068    0.16032376371739154    0.16962858979006226    0.17638563602629426    
  0.1799498702645591    0.17994987026455905    0.17638563602629426    0.16962858979006223    0.16032376371739135    
  0.14926057692130648    0.1372726851233896    0.12517066796464751    0.11368039448244752    0.10338222023810115    
  0.09467667159915709    0.08779602870036086    0.08285003978064451    0.079877734872813    0.084828546557278    
  0.08285003978064456    0.0828500397806446    0.08482854655727806    0.08877953950113787    0.09467667159915735    
  0.1024449102859028    0.11191811936646835    0.1227895652957832    0.1345767052570876    0.14662513096545918    
  0.15815611480271904    0.16833682633128283    0.17635422833125503    0.18149945640898368    0.18327489841982397    
  0.1814994564089837    0.17635422833125505    0.1683368263312828    0.15815611480271882    0.14662513096545876    
  0.13457670525708706    0.12278956529578261    0.11191811936646784    0.10244491028590244    0.09467667159915708    
  0.08877953950113773    0.084828546557278    0.0917250036033747    0.0887795395011378    0.08779602870036099    
  0.08877953950113789    0.09172500360337478    0.09661109086006474    0.10338222023810152    0.11191811936646832    
  0.12199083649535149    0.13321910108926757    0.1450440799738652    0.15674928317495826    0.16752359455257723    
  0.17654377854241873    0.1830588807004013    0.18648078417691769    0.18648078417691769    0.18305888070040127    
  0.17654377854241862    0.16752359455257712    0.15674928317495795    0.14504407997386476    0.13321910108926702    
  0.12199083649535095    0.11191811936646788    0.10338222023810116    0.09661109086006447    0.0917250036033747    
  0.10046127733757848    0.0966110908600646    0.09467667159915726    0.09467667159915724    0.09661109086006471    
  0.10046127733757862    0.10618146573017898    0.11368039448244795    0.12278956529578314    0.13321910108926763    
  0.14451688530834209    0.15605904597835285    0.16709007806375947    0.17680131964458637    0.18441918341916563    
  0.18928996988129085    0.19096699100302914    0.1892899698812908    0.18441918341916555    0.17680131964458626    
  0.16709007806375925    0.15605904597835243    0.14451688530834164    0.13321910108926707    0.12278956529578273    
  0.11368039448244757    0.10618146573017867    0.10046127733757848    0.11080326443083056    0.10618146573017884    
  0.10338222023810134    0.10244491028590265    0.10338222023810141    0.10618146573017893    0.11080326443083073    
  0.1171747857994914    0.12517066796464807    0.13457670525708765    0.14504407997386537    0.15605904597835288    
  0.1669557480296383    0.17697671568129322    0.1853562740194877    0.19140198216306115    0.1945750711034931    
  0.19457507110349306    0.1914019821630611    0.18535627401948762    0.17697671568129303    0.1669557480296381    
  0.15605904597835252    0.1450440799738649    0.13457670525708718    0.12517066796464768    0.11717478579949106    
  0.11080326443083056    0.1223431763770707    0.11717478579949116    0.1136803944824478    0.11191811936646814    
  0.11191811936646814    0.11368039448244782    0.11717478579949123    0.12234317637707083    0.12909326562729748    
  0.13727268512339014    0.14662513096545934    0.15674928317495845    0.16709007806375964    0.1769767156812933    
  0.1856915817944846    0.1925424758454295    0.19693325242307647    0.19844738846293872    0.19693325242307647    
  0.1925424758454294    0.1856915817944844    0.17697671568129303    0.16709007806375933    0.15674928317495798    
  0.14662513096545898    0.1372726851233898    0.12909326562729723    0.1223431763770707    0.13449450380238445    
  0.12909326562729734    0.12517066796464793    0.12278956529578297    0.12199083649535124    0.12278956529578292    
  0.1251706679646478    0.12909326562729734    0.13449450380238448    0.14127505907113597    0.14926057692130693    
  0.15815611480271935    0.16752359455257748    0.17680131964458667    0.18535627401948793    0.1925424758454296    
  0.1977557261284234    0.20050437947641667    0.20050437947641658    0.19775572612842335    0.19254247584542938    
  0.1853562740194877    0.17680131964458634    0.1675235945525773    0.15815611480271902    0.14926057692130656    
  0.14127505907113583    0.13449450380238445    0.1465335716833157    0.14127505907113586    0.13727268512338997    
  0.13457670525708748    0.1332191010892673    0.1332191010892673    0.13457670525708734    0.13727268512338978    
  0.14127505907113577    0.14653357168331577    0.15294837345606163    0.1603237637173917    0.16833682633128327    
  0.17654377854241918    0.184419183419166    0.19140198216306145    0.19693325242307666    0.20050437947641675    
  0.20174143025718333    0.20050437947641667    0.1969332524230765    0.1914019821630612    0.1844191834191657    
  0.1765437785424188    0.168336826331283    0.1603237637173915    0.1529483734560615    0.1465335716833157    
  0.1576584948605431    0.15294837345606163    0.14926057692130681    0.1466251309654592    0.14504407997386518    
  0.14451688530834203    0.14504407997386504    0.14662513096545898    0.14926057692130648    0.1529483734560614    
  0.1576584948605429    0.16328885658279135    0.16962858979006262    0.17635422833125566    0.18305888070040185    
  0.1892899698812914    0.1945750711034936    0.19844738846293894    0.2005043794764168    0.20050437947641675    
  0.19844738846293877    0.1945750711034932    0.18928996988129104    0.18305888070040144    0.1763542283312553    
  0.1696285897900624    0.1632888565827913    0.1576584948605431    0.16703847835178515    0.1632888565827914    
  0.16032376371739185    0.15815611480271938    0.1567492831749584    0.1560590459783529    0.1560590459783528    
  0.156749283174958    0.15815611480271893    0.16032376371739138    0.1632888565827912    0.16703847835178504    
  0.17147126628687412    0.17638563602629476    0.1814994564089843    0.18648078417691843    0.1909669910030297    
  0.19457507110349356    0.1969332524230768    0.19775572612842354    0.19693325242307666    0.19457507110349326    
  0.19096699100302933    0.18648078417691796    0.18149945640898396    0.1763856360262944    0.17147126628687406    
  0.16703847835178515    0.1738703348935714    0.17147126628687429    0.16962858979006273    0.1683368263312834    
  0.16752359455257773    0.16709007806375986    0.16695574802963858    0.1670900780637597    0.16752359455257734    
  0.16833682633128297    0.1696285897900623    0.1714712662868739    0.1738703348935713    0.17674722276793733    
  0.17994987026455952    0.18327489841982458    0.1864807841769184    0.18928996988129146    0.19140198216306153    
  0.1925424758454297    0.19254247584542963    0.1914019821630613    0.18928996988129104    0.18648078417691796    
  0.1832748984198241    0.17994987026455916    0.17674722276793717    0.1738703348935714    0.17748262507124543    
  0.17674722276793745    0.17638563602629484    0.1763542283312558    0.17654377854241954    0.1768013196445871    
  0.17697671568129386    0.1769767156812938    0.1768013196445868    0.17654377854241907    0.17635422833125527    
  0.1763856360262944    0.17674722276793714    0.17748262507124543    0.17857305374641683    0.1799498702645595    
  0.18149945640898435    0.18305888070040194    0.18441918341916613    0.18535627401948807    0.18569158179448475    
  0.18535627401948787    0.18441918341916574    0.1830588807004015    0.18149945640898388    0.17994987026455914    
  0.17857305374641658    0.17748262507124543    0.17748262507124543    0.17857305374641674    0.1799498702645596    
  0.18149945640898454    0.18305888070040224    0.1844191834191667    0.18535627401948876    0.18569158179448542    
  0.18535627401948854    0.18441918341916635    0.18305888070040177    0.18149945640898407    0.1799498702645592    
  0.17857305374641666    0.17748262507124557    0.17674722276793747    0.1763856360262948    0.17635422833125572    
  0.17654377854241934    0.1768013196445869    0.17697671568129353    0.17697671568129342    0.17680131964458656    
  0.17654377854241884    0.17635422833125522    0.1763856360262943    0.17674722276793708    0.17748262507124543    
  0.17387033489357115    0.17674722276793736    0.1799498702645596    0.18327489841982472    0.18648078417691885    
  0.1892899698812922    0.1914019821630625    0.19254247584543074    0.1925424758454307    0.1914019821630622    
  0.1892899698812917    0.18648078417691838    0.18327489841982428    0.17994987026455916    0.1767472227679372    
  0.1738703348935714    0.17147126628687423    0.1696285897900628    0.1683368263312834    0.1675235945525777    
  0.16709007806375983    0.16695574802963856    0.16709007806375964    0.16752359455257737    0.16833682633128294    
  0.16962858979006226    0.17147126628687387    0.17387033489357115    0.16703847835178492    0.17147126628687404    
  0.17638563602629473    0.18149945640898452    0.18648078417691888    0.19096699100303052    0.19457507110349462    
  0.196933252423078    0.19775572612842487    0.19693325242307794    0.1945750711034944    0.19096699100303022    
  0.18648078417691835    0.18149945640898407    0.17638563602629453    0.171471266286874    0.16703847835178517    
  0.16328885658279152    0.160323763717392    0.1581561148027195    0.15674928317495854    0.15605904597835304    
  0.15605904597835296    0.1567492831749583    0.15815611480271907    0.16032376371739146    0.16328885658279113    
  0.16703847835178492    0.15765849486054298    0.1632888565827913    0.16962858979006262    0.17635422833125572    
  0.18305888070040224    0.1892899698812922    0.19457507110349465    0.1984473884629404    0.2005043794764183    
  0.20050437947641825    0.19844738846294024    0.19457507110349445    0.18928996988129176    0.18305888070040194    
  0.1763542283312554    0.16962858979006237    0.1632888565827913    0.15765849486054315    0.15294837345606174    
  0.14926057692130706    0.14662513096545954    0.14504407997386548    0.14451688530834228    0.14504407997386537    
  0.14662513096545923    0.14926057692130665    0.15294837345606155    0.15765849486054298    0.14653357168331577    
  0.15294837345606166    0.16032376371739177    0.1683368263312834    0.17654377854241948    0.18441918341916674    
  0.1914019821630626    0.19693325242307813    0.20050437947641842    0.20174143025718508    0.2005043794764183    
  0.19693325242307796    0.19140198216306228    0.18441918341916638    0.17654377854241915    0.1683368263312831    
  0.16032376371739154    0.15294837345606158    0.14653357168331585    0.1412750590711361    0.13727268512339025    
  0.1345767052570878    0.13321910108926766    0.13321910108926763    0.13457670525708765    0.13727268512339003    
  0.14127505907113594    0.14653357168331577    0.13449450380238462    0.14127505907113602    0.14926057692130695    
  0.15815611480271946    0.16752359455257793    0.17680131964458734    0.18535627401948893    0.19254247584543097    
  0.19775572612842507    0.20050437947641844    0.20050437947641833    0.197755726128425    0.19254247584543077    
  0.18535627401948873    0.17680131964458703    0.16752359455257754    0.1581561148027191    0.14926057692130662    
  0.14127505907113588    0.13449450380238465    0.12909326562729753    0.1251706679646481    0.12278956529578325    
  0.12199083649535152    0.1227895652957832    0.12517066796464807    0.12909326562729745    0.13449450380238462    
  0.12234317637707101    0.12909326562729762    0.13727268512339022    0.14662513096545957    0.15674928317495862    
  0.16709007806376014    0.1769767156812941    0.18569158179448578    0.19254247584543105    0.19693325242307824    
  0.19844738846294055    0.1969332524230782    0.19254247584543088    0.18569158179448558    0.17697671568129394    
  0.1670900780637599    0.1567492831749582    0.14662513096545904    0.13727268512338991    0.1290932656272974    
  0.12234317637707091    0.11717478579949132    0.11368039448244792    0.11191811936646828    0.11191811936646831    
  0.11368039448244789    0.1171747857994914    0.12234317637707101    0.1108032644308308    0.11717478579949146    
  0.12517066796464826    0.13457670525708781    0.14504407997386567    0.15605904597835324    0.166955748029639    
  0.17697671568129417    0.18535627401948895    0.19140198216306267    0.1945750711034948    0.19457507110349478    
  0.19140198216306265    0.18535627401948895    0.17697671568129403    0.1669557480296388    0.15605904597835288    
  0.14504407997386515    0.13457670525708737    0.1251706679646479    0.11717478579949125    0.1108032644308307    
  0.10618146573017888    0.10338222023810144    0.1024449102859027    0.10338222023810141    0.10618146573017895    
  0.1108032644308308    0.10046127733757865    0.10618146573017904    0.11368039448244813    0.12278956529578339    
  0.13321910108926788    0.1445168853083426    0.1560590459783533    0.16709007806376017    0.17680131964458734    
  0.1844191834191669    0.18928996988129224    0.19096699100303074    0.18928996988129232    0.1844191834191669    
  0.1768013196445873    0.16709007806376    0.15605904597835293    0.14451688530834206    0.13321910108926727    
  0.12278956529578292    0.11368039448244778    0.1061814657301788    0.10046127733757851    0.09661109086006461    
  0.09467667159915723    0.09467667159915713    0.09661109086006461    0.10046127733757865    0.09172500360337474    
  0.09661109086006472    0.10338222023810163    0.11191811936646855    0.12199083649535179    0.13321910108926796    
  0.14504407997386573    0.1567492831749587    0.16752359455257798    0.17654377854241968    0.1830588807004024    
  0.18648078417691905    0.18648078417691896    0.1830588807004025    0.17654377854241965    0.16752359455257787    
  0.15674928317495843    0.1450440799738652    0.13321910108926735    0.12199083649535124    0.11191811936646805    
  0.10338222023810129    0.09661109086006456    0.09172500360337472    0.08877953950113775    0.08779602870036081    
  0.08877953950113773    0.09172500360337474    0.08482854655727792    0.08877953950113782    0.09467667159915734    
  0.10244491028590288    0.11191811936646852    0.12278956529578353    0.134576705257088    0.14662513096545965    
  0.15815611480271957    0.16833682633128355    0.1763542283312559    0.18149945640898468    0.18327489841982483    
  0.18149945640898466    0.17635422833125594    0.16833682633128355    0.15815611480271932    0.14662513096545926    
  0.1345767052570874    0.12278956529578294    0.111918119366468    0.10244491028590257    0.09467667159915713    
  0.08877953950113773    0.08482854655727791    0.08285003978064448    0.08285003978064447    0.08482854655727792    
  0.07987773487281292    0.08285003978064454    0.08779602870036099    0.09467667159915738    0.10338222023810166    
  0.11368039448244827    0.12517066796464837    0.13727268512339036    0.1492605769213071    0.160323763717392    
  0.1696285897900628    0.17638563602629492    0.17994987026455972    0.17994987026455972    0.176385636026295    
  0.1696285897900628    0.16032376371739185    0.14926057692130684    0.13727268512338991    0.12517066796464785    
  0.11368039448244764    0.1033822202381012    0.09467667159915709    0.08779602870036085    0.0828500397806445    
  0.07987773487281291    0.07888695847329964    0.07987773487281292    0.07690562696853233    0.07888695847329966    
  0.08285003978064458    0.08877953950113793    0.09661109086006484    0.10618146573017924    0.1171747857994916    
  0.12909326562729778    0.14127505907113616    0.15294837345606177    0.16328885658279152    0.17147126628687426    
  0.17674722276793736    0.17857305374641685    0.1767472227679375    0.17147126628687429    0.16328885658279144    
  0.15294837345606166    0.1412750590711358    0.12909326562729725    0.11717478579949109    0.1061814657301787    
  0.09661109086006447    0.08877953950113772    0.0828500397806445    0.07888695847329964    0.07690562696853229    
  0.07690562696853233    0.0759154664141228    0.0769056269685323    0.07987773487281301    0.08482854655727803    
  0.09172500360337488    0.10046127733757879    0.110803264430831    0.12234317637707115    0.13449450380238476    
  0.14653357168331593    0.1576584948605431    0.16703847835178506    0.17387033489357126    0.17748262507124543    
  0.17748262507124543    0.17387033489357134    0.16703847835178504    0.15765849486054298    0.14653357168331563    
  0.1344945038023843    0.12234317637707061    0.11080326443083045    0.10046127733757834    0.09172500360337461    
  0.08482854655727791    0.07987773487281298    0.0769056269685323    0.0759154664141228    0.07696643253263191    
  0.07797780978180813    0.08101249183154496    0.08606391564897478    0.09309398242081846    0.10199207425555433    
  0.11252141779086985    0.12427225305266622    0.13665162295719538    0.14892071982399946    0.16025600258477446    
  0.16980615330377072    0.17675502206022856    0.18042620976743975    0.18042620976743984    0.1767550220602286    
  0.1698061533037707    0.16025600258477446    0.1489207198239992    0.13665162295719493    0.12427225305266568    
  0.11252141779086931    0.10199207425555391    0.09309398242081823    0.08606391564897464    0.08101249183154495    
  0.07797780978180814    0.07696643253263191    0.0779778097818082    0.07797780978180816    0.07989681484502    
  0.08373413526396341    0.08947478212494404    0.09705854974770767    0.10633020702507459    0.11698405772374745    
  0.12853350927947105    0.14032941225678083    0.15161640810375307    0.1615939234713296    0.16947059701689737    
  0.17453889953358986    0.17629072754087668    0.1745388995335898    0.16947059701689748    0.16159392347132945    
  0.1516164081037529    0.14032941225678042    0.1285335092794705    0.11698405772374691    0.10633020702507415    
  0.09705854974770729    0.08947478212494389    0.08373413526396334    0.07989681484501994    0.0779778097818082    
  0.08101249183154496    0.08010521287912171    0.08101249183154502    0.08373413526396349    0.08826454002750836    
  0.09457389948082633    0.10256927254341566    0.11203972207533834    0.1226097958044053    0.13373222588783581    
  0.14472746197209804    0.15484604760390314    0.16332870424339302    0.16946900068613574    0.17270009816957496    
  0.1727000981695749    0.1694690006861357    0.1633287042433929    0.15484604760390294    0.14472746197209774    
  0.13373222588783526    0.12260979580440468    0.11203972207533777    0.10256927254341523    0.09457389948082605    
  0.08826454002750819    0.08373413526396332    0.08101249183154496    0.08606391564897474    0.08435701825346788    
  0.08435701825346793    0.0860639156489748    0.08947478212494404    0.0945738994808263    0.10130689082878824    
  0.10953627282175449    0.1189913731584567    0.12923942606051955    0.13969784762625892    0.14968264112397214    
  0.15847147228868758    0.16536927633967444    0.16978203052395174    0.17130173623852765    0.16978203052395172    
  0.16536927633967444    0.15847147228868746    0.14968264112397184    0.13969784762625845    0.129239426060519    
  0.11899137315845612    0.10953627282175396    0.1013068908287879    0.09457389948082602    0.0894747821249439    
  0.08606391564897474    0.09309398242081832    0.09070944335345527    0.08991412941914015    0.09070944335345534    
  0.09309398242081843    0.09705854974770757    0.10256927254341562    0.10953627282175442    0.11777218639935343    
  0.12695583314957457    0.13662028281313662    0.1461748563416959    0.15495542261004602    0.16229045750105234    
  0.16757427166133523    0.17034289453093177    0.17034289453093174    0.16757427166133523    0.16229045750105223    
  0.15495542261004583    0.14617485634169552    0.1366202828131361    0.12695583314957393    0.11777218639935287    
  0.10953627282175397    0.10256927254341525    0.09705854974770733    0.09309398242081832    0.10199207425555404    
  0.09908516391477722    0.09762978329214385    0.09762978329214385    0.09908516391477734    0.10199207425555419    
  0.10633020702507452    0.11203972207533827    0.1189913731584567    0.1269558331495746    0.13558172548506806    
  0.14439366055212477    0.1528180159632844    0.1602353212279917    0.16604946223768338    0.1697615613369824    
  0.17103811182763193    0.16976156133698234    0.16604946223768322    0.16023532122799153    0.1528180159632841    
  0.1443936605521243    0.13558172548506753    0.12695583314957398    0.11899137315845623    0.11203972207533787    
  0.10633020702507424    0.10199207425555404    0.11252141779086945    0.1093071304804192    0.10737492787275049    
  0.10673108620764285    0.10737492787275052    0.10930713048041932    0.11252141779086962    0.11698405772374736    
  0.12260979580440526    0.12923942606051964    0.1366202828131368    0.1443936605521248    0.15209913331097502    
  0.15920444898095695    0.1651588425449024    0.16945870736305113    0.17171531686035968    0.17171531686035965    
  0.16945870736305108    0.16515884254490223    0.15920444898095668    0.1520991333109747    0.14439366055212435    
  0.13662028281313623    0.1292394260605191    0.12260979580440484    0.11698405772374705    0.11252141779086945    
  0.12427225305266579    0.12104617674073104    0.11889549667742874    0.1178239047309791    0.11782390473097909    
  0.11889549667742877    0.1210461767407311    0.12427225305266593    0.128533509279471    0.1337322258878358    
  0.13969784762625911    0.1461748563416962    0.1528180159632846    0.15920444898095704    0.16486607825780764    
  0.1693369018412671    0.17221003696490586    0.17320193997286298    0.1722100369649059    0.1693369018412669    
  0.16486607825780727    0.1592044489809567    0.15281801596328418    0.14617485634169558    0.13969784762625861    
  0.13373222588783543    0.12853350927947066    0.12427225305266579    0.13665162295719502    0.13378540749836565    
  0.13176092279340562    0.13056547522149092    0.13017147656917816    0.1305654752214909    0.13176092279340554    
  0.13378540749836565    0.13665162295719516    0.14032941225678075    0.14472746197209824    0.14968264112397248    
  0.15495542261004636    0.160235321227992    0.16515884254490268    0.16933690184126723    0.17239166796527508    
  0.17400996180691397    0.17400996180691392    0.17239166796527497    0.16933690184126693    0.16515884254490235    
  0.16023532122799158    0.15495542261004602    0.149682641123972    0.1447274619720978    0.14032941225678056    
  0.13665162295719502    0.14892071982399932    0.14682746797782384    0.1453393343433732    0.1444087129248853    
  0.14396775775952475    0.14396775775952475    0.1444087129248852    0.14533933434337296    0.14682746797782378    
  0.14892071982399943    0.1516164081037532    0.15484604760390347    0.1584714722886881    0.16229045750105286    
  0.16604946223768371    0.16945870736305152    0.17221003696490614    0.17400996180691408    0.17463771704591988    
  0.17400996180691397    0.1722100369649059    0.16945870736305121    0.16604946223768333    0.1622904575010524    
  0.15847147228868771    0.1548460476039031    0.15161640810375301    0.14892071982399932    0.1602560025847745    
  0.1593446112327847    0.15882258028327012    0.15859383800923718    0.15853145276026429    0.15852529173616348    
  0.15853145276026415    0.1585938380092369    0.15882258028326982    0.15934461123278457    0.16025600258477446    
  0.1615939234713298    0.16332870424339344    0.1653692763396752    0.1675742716613359    0.16976156133698297    
  0.17171531686036018    0.17320193997286323    0.17400996180691417    0.1740099618069141    0.1732019399728631    
  0.17171531686035982    0.16976156133698259    0.16757427166133543    0.16536927633967466    0.16332870424339313    
  0.16159392347132961    0.1602560025847745    0.16980615330377083    0.1704436035861107    0.1712920139104605    
  0.172199746787976    0.17297219792330343    0.17341871210451826    0.17341871210451812    0.17297219792330312    
  0.17219974678797564    0.17129201391046017    0.17044360358611052    0.16980615330377083    0.16947059701689782    
  0.16946900068613638    0.1697820305239524    0.1703428945309326    0.1710381118276326    0.17171531686036015    
  0.17221003696490625    0.17239166796527516    0.17221003696490605    0.17171531686035985    0.17103811182763218    
  0.17034289453093202    0.16978203052395197    0.16946900068613593    0.1694705970168976    0.16980615330377083    
  0.17675502206022867    0.179230022733002    0.18179573115894807    0.18423305116471797    0.1862774049650574    
  0.18765236545075192    0.18813886304426922    0.18765236545075178    0.18627740496505704    0.1842330511647176    
  0.18179573115894765    0.17923002273300181    0.17675502206022872    0.17453889953359022    0.1727000981695756    
  0.17130173623852843    0.17034289453093257    0.16976156133698306    0.1694587073630516    0.16933690184126732    
  0.16933690184126726    0.16945870736305133    0.1697615613369826    0.170342894530932    0.17130173623852782    
  0.17270009816957507    0.17453889953358992    0.17675502206022867    0.1804262097674398    0.18489617173586628    
  0.18943164537085508    0.19372238787109092    0.19742338466807563    0.20017248135499302    0.20164576953115537    
  0.20164576953115532    0.20017248135499274    0.19742338466807527    0.1937223878710905    0.1894316453708547    
  0.18489617173586612    0.18042620976743995    0.17629072754087718    0.1727000981695756    0.1697820305239525    
  0.167574271661336    0.16604946223768388    0.16515884254490285    0.16486607825780777    0.16515884254490262    
  0.1660494622376835    0.16757427166133546    0.1697820305239519    0.17270009816957504    0.17629072754087674    
  0.1804262097674398    0.18042620976743975    0.1868570950827222    0.19346231434373898    0.1998190693351327    
  0.20547910298047947    0.2099850892818475    0.21290710343698238    0.2139218606158864    0.21290710343698224    
  0.2099850892818472    0.20547910298047897    0.19981906933513235    0.19346231434373873    0.18685709508272222    
  0.18042620976744006    0.17453889953359036    0.16946900068613643    0.16536927633967521    0.16229045750105306    
  0.1602353212279922    0.15920444898095726    0.15920444898095715    0.16023532122799186    0.16229045750105248    
  0.1653692763396746    0.16946900068613582    0.1745388995335898    0.18042620976743975    0.17675502206022844    
  0.18489617173586617    0.19346231434373898    0.201924271303494    0.20971284325180387    0.21625618968199237    
  0.2210106193870274    0.22352167487789334    0.2235216748778932    0.22101061938702712    0.21625618968199192    
  0.20971284325180348    0.2019242713034937    0.1934623143437387    0.18489617173586617    0.17675502206022883    
  0.16947059701689793    0.1633287042433936    0.15847147228868824    0.15495542261004655    0.1528180159632848    
  0.15209913331097527    0.15281801596328456    0.15495542261004616    0.15847147228868763    0.16332870424339305    
  0.16947059701689746    0.17675502206022844    0.1698061533037706    0.1792300227330018    0.18943164537085488    
  0.19981906933513266    0.2097128432518039    0.21841506927440224    0.22525651056650903    0.2296473259597805    
  0.23116330867115922    0.22964732595978046    0.22525651056650883    0.218415069274402    0.20971284325180345    
  0.19981906933513235    0.18943164537085483    0.17923002273300193    0.16980615330377097    0.16159392347133    
  0.15484604760390372    0.14968264112397264    0.14617485634169625    0.14439366055212502    0.14439366055212488    