#     DFTpy    
  CRYSTAL 
    
  PRIMVEC    
  1.0662310037446703    -1.8467662710909305    0.0    
  1.0662310037446703    1.8467662710909305    0.0    
  0.0    0.0    3.605015416    
  PRIMCOORD    
  2    1    
  Si    1.0662310037446703    0.6155887570303102    0.9012538540000002    
  Si    1.0662310037446703    -0.6155887570303102    2.7037615620000004    
  BEGIN_BLOCK_DATAGRID_3D    
  3d_datagrid_density    
  BEGIN_DATAGRID_3D#0    
  21    21    37    
  0.0    0.0    0.0    
  1.0662310077217323    -1.8467662779794038    0.0    
  1.0662310077217323    1.8467662779794038    0.0    
  0.0    0.0    3.605015429446777    
  0.43739946404473407    0.4423693187019113    0.45693309742303795    0.48001504184482013    0.5097107156642519    
  0.5432071256505764    0.5769103623969298    0.6069843067206915    0.6302086095963984    0.6446257257373909    
  0.6494780031048105    0.6446257257373909    0.6302086095963982    0.6069843067206915    0.5769103623969298    
  0.5432071256505764    0.5097107156642517    0.48001504184482013    0.45693309742303795    0.4423693187019112    
  0.43739946404473407    0.4423693187019113    0.4423693187019113    0.4521319562379685    0.47092668925739106    
  0.4972431989334714    0.5287152244681641    0.5621328598759071    0.5937625300990698    0.620072529508451    
  0.6385390060293228    0.6479387275964461    0.6479387275964461    0.6385390060293229    0.620072529508451    
  0.5937625300990698    0.562132859875907    0.528715224468164    0.4972431989334713    0.4709266892573909    
  0.45213195623796837    0.4423693187019113    0.45693309742303795    0.4521319562379685    0.45693309742303795    
  0.47092668925739106    0.4928963765386032    0.5208341710549419    0.5519606541326495    0.5828968633639153    
  0.6101799107530756    0.6310287071899344    0.6438650887659714    0.6481654372563421    0.6438650887659713    
  0.6310287071899342    0.6101799107530756    0.5828968633639154    0.5519606541326493    0.5208341710549415    
  0.4928963765386032    0.47092668925739095    0.45693309742303795    0.48001504184482013    0.47092668925739095    
  0.47092668925739095    0.4800150418448202    0.4972431989334713    0.5208341710549417    0.5483262604154391    
  0.5767381412584895    0.6029186230793655    0.6241548298903825    0.6387431652647352    0.6460587070171978    
  0.6460587070171978    0.638743165264735    0.6241548298903825    0.6029186230793654    0.5767381412584894    
  0.5483262604154391    0.5208341710549416    0.4972431989334713    0.48001504184482013    0.5097107156642517    
  0.4972431989334713    0.4928963765386031    0.4972431989334714    0.5097107156642519    0.528715224468164    
  0.5519606541326495    0.5767381412584897    0.6002445876007919    0.6200382724692054    0.6345302676247281    
  0.6431504732080726    0.6459817940913607    0.6431504732080724    0.6345302676247279    0.6200382724692053    
  0.6002445876007918    0.5767381412584895    0.5519606541326494    0.5287152244681639    0.5097107156642517    
  0.5432071256505764    0.5287152244681641    0.5208341710549417    0.5208341710549417    0.5287152244681641    
  0.5432071256505764    0.562132859875907    0.5828968633639153    0.6029186230793655    0.6200382724692054    
  0.6329049301638471    0.6411399275741548    0.6450565505912039    0.6450565505912039    0.6411399275741548    
  0.6329049301638469    0.6200382724692053    0.6029186230793654    0.5828968633639152    0.562132859875907    
  0.5432071256505764    0.5769103623969298    0.5621328598759071    0.5519606541326494    0.548326260415439    
  0.5519606541326494    0.5621328598759072    0.5769103623969298    0.5937625300990698    0.6101799107530756    
  0.6241548298903825    0.6345302676247281    0.6411399275741549    0.6445754384366783    0.645606711393655    
  0.6445754384366784    0.6411399275741548    0.6345302676247279    0.6241548298903824    0.6101799107530756    
  0.5937625300990697    0.5769103623969298    0.6069843067206916    0.5937625300990698    0.5828968633639153    
  0.5767381412584897    0.5767381412584897    0.5828968633639154    0.59376253009907    0.6069843067206916    
  0.6200725295084509    0.6310287071899343    0.6387431652647352    0.6431504732080727    0.6450565505912039    
  0.6456067113936551    0.6456067113936552    0.6450565505912039    0.6431504732080725    0.6387431652647351    
  0.6310287071899342    0.620072529508451    0.6069843067206916    0.6302086095963982    0.6200725295084512    
  0.6101799107530756    0.6029186230793656    0.6002445876007918    0.6029186230793656    0.6101799107530756    
  0.6200725295084509    0.6302086095963982    0.638539006029323    0.6438650887659713    0.6460587070171979    
  0.6459817940913607    0.6450565505912037    0.6445754384366784    0.6450565505912041    0.6459817940913608    
  0.6460587070171979    0.6438650887659713    0.6385390060293229    0.6302086095963982    0.6446257257373907    
  0.6385390060293228    0.6310287071899344    0.6241548298903825    0.6200382724692054    0.6200382724692055    
  0.6241548298903825    0.6310287071899343    0.6385390060293229    0.6446257257373909    0.6479387275964461    
  0.6481654372563421    0.6460587070171978    0.6431504732080724    0.6411399275741548    0.6411399275741548    
  0.6431504732080725    0.646058707017198    0.648165437256342    0.647938727596446    0.6446257257373907    
  0.6494780031048105    0.6479387275964461    0.6438650887659714    0.6387431652647352    0.634530267624728    
  0.6329049301638471    0.6345302676247281    0.6387431652647351    0.6438650887659714    0.6479387275964461    
  0.6494780031048105    0.6479387275964461    0.6438650887659713    0.638743165264735    0.6345302676247279    
  0.6329049301638469    0.6345302676247279    0.638743165264735    0.6438650887659713    0.647938727596446    
  0.6494780031048105    0.6446257257373907    0.6479387275964461    0.6481654372563421    0.646058707017198    
  0.6431504732080727    0.641139927574155    0.641139927574155    0.6431504732080726    0.6460587070171981    
  0.6481654372563422    0.6479387275964461    0.6446257257373909    0.6385390060293228    0.6310287071899342    
  0.6241548298903824    0.6200382724692054    0.6200382724692053    0.6241548298903825    0.6310287071899342    
  0.6385390060293228    0.6446257257373907    0.6302086095963982    0.6385390060293229    0.6438650887659714    
  0.646058707017198    0.6459817940913609    0.6450565505912044    0.6445754384366787    0.6450565505912041    
  0.6459817940913608    0.6460587070171979    0.6438650887659714    0.6385390060293229    0.6302086095963982    
  0.6200725295084509    0.6101799107530756    0.6029186230793654    0.6002445876007918    0.6029186230793654    
  0.6101799107530756    0.620072529508451    0.6302086095963982    0.6069843067206916    0.6200725295084512    
  0.6310287071899342    0.6387431652647353    0.6431504732080727    0.6450565505912043    0.6456067113936554    
  0.6456067113936554    0.6450565505912041    0.6431504732080726    0.6387431652647351    0.6310287071899344    
  0.620072529508451    0.6069843067206916    0.5937625300990699    0.5828968633639153    0.5767381412584895    
  0.5767381412584895    0.5828968633639153    0.5937625300990697    0.6069843067206916    0.5769103623969298    
  0.5937625300990698    0.6101799107530756    0.6241548298903825    0.6345302676247279    0.641139927574155    
  0.6445754384366787    0.6456067113936552    0.6445754384366786    0.6411399275741549    0.6345302676247279    
  0.6241548298903824    0.6101799107530756    0.5937625300990698    0.5769103623969298    0.5621328598759071    
  0.5519606541326494    0.548326260415439    0.5519606541326494    0.562132859875907    0.5769103623969298    
  0.5432071256505764    0.5621328598759071    0.5828968633639153    0.6029186230793656    0.6200382724692054    
  0.6329049301638471    0.641139927574155    0.6450565505912041    0.6450565505912041    0.641139927574155    
  0.632904930163847    0.6200382724692053    0.6029186230793653    0.5828968633639152    0.5621328598759071    
  0.5432071256505764    0.528715224468164    0.5208341710549416    0.5208341710549416    0.528715224468164    
  0.5432071256505764    0.5097107156642517    0.528715224468164    0.5519606541326494    0.5767381412584897    
  0.6002445876007918    0.6200382724692054    0.6345302676247281    0.6431504732080726    0.6459817940913608    
  0.6431504732080727    0.634530267624728    0.6200382724692053    0.6002445876007917    0.5767381412584894    
  0.5519606541326495    0.528715224468164    0.5097107156642519    0.4972431989334714    0.4928963765386032    
  0.4972431989334713    0.5097107156642517    0.48001504184482013    0.4972431989334713    0.5208341710549416    
  0.5483262604154392    0.5767381412584895    0.6029186230793656    0.6241548298903826    0.6387431652647351    
  0.6460587070171979    0.6460587070171981    0.6387431652647351    0.6241548298903825    0.6029186230793653    
  0.5767381412584894    0.5483262604154392    0.5208341710549417    0.4972431989334713    0.4800150418448202    
  0.47092668925739095    0.47092668925739095    0.48001504184482013    0.45693309742303795    0.47092668925739095    
  0.4928963765386032    0.5208341710549417    0.5519606541326494    0.5828968633639156    0.6101799107530758    
  0.6310287071899344    0.6438650887659714    0.6481654372563421    0.6438650887659714    0.6310287071899343    
  0.6101799107530756    0.5828968633639152    0.5519606541326495    0.5208341710549419    0.4928963765386031    
  0.47092668925739095    0.45693309742303795    0.45213195623796837    0.45693309742303795    0.4423693187019113    
  0.4521319562379685    0.47092668925739095    0.4972431989334714    0.5287152244681641    0.5621328598759071    
  0.5937625300990699    0.6200725295084512    0.6385390060293228    0.6479387275964461    0.6479387275964461    
  0.6385390060293228    0.6200725295084509    0.5937625300990697    0.5621328598759071    0.528715224468164    
  0.4972431989334714    0.47092668925739095    0.45213195623796837    0.4423693187019113    0.4423693187019113    
  0.43739946404473407    0.4423693187019113    0.45693309742303795    0.48001504184482013    0.5097107156642519    
  0.5432071256505764    0.5769103623969298    0.6069843067206915    0.6302086095963984    0.6446257257373909    
  0.6494780031048105    0.6446257257373909    0.6302086095963982    0.6069843067206915    0.5769103623969298    
  0.5432071256505764    0.5097107156642517    0.48001504184482013    0.45693309742303795    0.4423693187019112    
  0.43739946404473407    0.4436399175435962    0.4485626220939451    0.4629450655043321    0.48561969540195277    
  0.5145993579434701    0.5470518459840535    0.5794575578740164    0.6081510036058311    0.6301458698014699    
  0.6437162382150102    0.6482671908114119    0.6437162382150101    0.6301458698014698    0.608151003605831    
  0.5794575578740163    0.5470518459840534    0.51459935794347    0.48561969540195266    0.462945065504332    
  0.4485626220939451    0.4436399175435962    0.4485626220939451    0.4485626220939451    0.4580566234751194    
  0.47631056399443256    0.5018285779216695    0.5323086860090027    0.5646723336060314    0.5953579142742839    
  0.6209742583734859    0.6390384559320542    0.648271846697816    0.648271846697816    0.639038455932054    
  0.6209742583734859    0.595357914274284    0.5646723336060314    0.5323086860090027    0.5018285779216693    
  0.4763105639944323    0.4580566234751194    0.4485626220939451    0.4629450655043321    0.4583643262660105    
  0.4629450655043321    0.47631056399443256    0.4973375732389249    0.5241659472453749    0.5542207977580499    
  0.584354772298342    0.6112657643467512    0.6321468183170312    0.6451945617138631    0.6496069951474707    
  0.645194561713863    0.6321468183170311    0.6112657643467511    0.5843547722983422    0.5542207977580498    
  0.5241659472453746    0.4973375732389248    0.4763105639944324    0.4629450655043321    0.48561969540195277    
  0.4771021109544703    0.4771021109544704    0.48561969540195277    0.5018285779216695    0.5241659472453747    
  0.5504503475059394    0.5780126716504583    0.6039428615219972    0.625538239407401    0.6407976867901983    
  0.6486254292207227    0.6486254292207225    0.6407976867901982    0.625538239407401    0.6039428615219972    
  0.5780126716504582    0.5504503475059394    0.5241659472453747    0.5018285779216693    0.48561969540195277    
  0.51459935794347    0.5030612566948434    0.49905192294602    0.5030612566948435    0.5145993579434701    
  0.5323086860090027    0.5542207977580499    0.5780126716504583    0.6012256033271075    0.6215355397510479    
  0.6370927835995568    0.6467522211078922    0.6500117422241007    0.6467522211078921    0.6370927835995568    
  0.6215355397510478    0.6012256033271074    0.5780126716504582    0.5542207977580499    0.5323086860090025    
  0.51459935794347    0.5470518459840534    0.5336856822411227    0.5264497108895972    0.5264497108895972    
  0.5336856822411227    0.5470518459840535    0.5646723336060314    0.584354772298342    0.6039428615219972    
  0.6215355397510478    0.6356582648191159    0.6453844920360374    0.6503006690856231    0.6503006690856231    
  0.6453844920360374    0.6356582648191158    0.6215355397510477    0.6039428615219972    0.584354772298342    
  0.5646723336060314    0.5470518459840534    0.5794575578740163    0.5656671397804786    0.5562092948089955    
  0.5528334736302624    0.5562092948089954    0.5656671397804787    0.5794575578740164    0.5953579142742839    
  0.6112657643467511    0.6255382394074009    0.6370927835995568    0.6453844920360374    0.6502927584620652    
  0.6519072735561056    0.6502927584620655    0.6453844920360374    0.6370927835995566    0.6255382394074009    
  0.6112657643467511    0.5953579142742839    0.5794575578740163    0.6081510036058311    0.5953447898012535    
  0.5848224830129208    0.5788458085831265    0.5788458085831265    0.584822483012921    0.5953447898012538    
  0.6081510036058312    0.6209742583734859    0.6321468183170312    0.6407976867901983    0.6467522211078922    
  0.6503006690856231    0.6519072735561056    0.6519072735561057    0.6503006690856231    0.6467522211078922    
  0.6407976867901983    0.6321468183170311    0.6209742583734859    0.6081510036058311    0.6301458698014698    
  0.6194876507018723    0.6090435213542449    0.6013280908992    0.598476443029522    0.6013280908992    
  0.6090435213542449    0.6194876507018722    0.6301458698014698    0.6390384559320542    0.6451945617138631    
  0.6486254292207227    0.6500117422241007    0.650300669085623    0.6502927584620655    0.6503006690856233    
  0.6500117422241006    0.6486254292207227    0.645194561713863    0.6390384559320541    0.6301458698014698    
  0.64371623821501    0.6360603187425627    0.6267188373684566    0.6181530066377026    0.6130122894201224    
  0.6130122894201226    0.6181530066377027    0.6267188373684566    0.6360603187425629    0.6437162382150101    
  0.648271846697816    0.6496069951474707    0.6486254292207226    0.6467522211078921    0.6453844920360374    
  0.6453844920360374    0.6467522211078921    0.6486254292207227    0.6496069951474704    0.6482718466978159    
  0.64371623821501    0.6482671908114118    0.644350864952851    0.6371394791723571    0.6287254213131112    
  0.6219925962106302    0.6194233186885694    0.6219925962106303    0.628725421313111    0.6371394791723571    
  0.6443508649528511    0.6482671908114119    0.648271846697816    0.645194561713863    0.6407976867901982    
  0.6370927835995568    0.6356582648191158    0.6370927835995567    0.6407976867901982    0.6451945617138629    
  0.6482718466978159    0.6482671908114118    0.64371623821501    0.644350864952851    0.6405356596458895    
  0.6336386014016834    0.626403201915955    0.6218234503809249    0.6218234503809249    0.6264032019159549    
  0.6336386014016834    0.6405356596458897    0.6443508649528511    0.6437162382150101    0.6390384559320539    
  0.6321468183170311    0.6255382394074009    0.6215355397510479    0.6215355397510477    0.6255382394074009    
  0.6321468183170311    0.639038455932054    0.64371623821501    0.6301458698014698    0.6360603187425629    
  0.6371394791723571    0.6336386014016834    0.6276581629398316    0.6222705024157353    0.6201289290630021    
  0.6222705024157352    0.6276581629398316    0.6336386014016834    0.6371394791723572    0.6360603187425629    
  0.6301458698014698    0.6209742583734857    0.6112657643467511    0.6039428615219972    0.6012256033271074    
  0.6039428615219972    0.6112657643467511    0.6209742583734859    0.6301458698014698    0.6081510036058311    
  0.6194876507018723    0.6267188373684563    0.6287254213131112    0.626403201915955    0.6222705024157352    
  0.6192492961621224    0.6192492961621223    0.6222705024157352    0.626403201915955    0.6287254213131112    
  0.6267188373684566    0.6194876507018723    0.6081510036058311    0.5953579142742841    0.5843547722983421    
  0.5780126716504582    0.5780126716504582    0.5843547722983421    0.5953579142742839    0.6081510036058311    
  0.5794575578740163    0.5953447898012535    0.6090435213542448    0.6181530066377026    0.6219925962106301    
  0.6218234503809249    0.6201289290630021    0.6192492961621223    0.620128929063002    0.6218234503809248    
  0.6219925962106303    0.6181530066377026    0.6090435213542448    0.5953447898012535    0.5794575578740163    
  0.5646723336060314    0.5542207977580499    0.5504503475059392    0.5542207977580499    0.5646723336060314    
  0.5794575578740163    0.5470518459840534    0.5656671397804784    0.5848224830129208    0.6013280908992    
  0.6130122894201224    0.6194233186885694    0.6218234503809248    0.6222705024157352    0.6222705024157352    
  0.6218234503809248    0.6194233186885694    0.6130122894201224    0.6013280908991998    0.5848224830129208    
  0.5656671397804786    0.5470518459840534    0.5323086860090027    0.5241659472453747    0.5241659472453747    
  0.5323086860090027    0.5470518459840534    0.51459935794347    0.5336856822411226    0.5562092948089953    
  0.5788458085831265    0.598476443029522    0.6130122894201224    0.6219925962106303    0.6264032019159549    
  0.6276581629398316    0.626403201915955    0.6219925962106303    0.6130122894201224    0.5984764430295219    
  0.5788458085831263    0.5562092948089955    0.5336856822411226    0.5145993579434701    0.5018285779216695    
  0.4973375732389248    0.5018285779216693    0.51459935794347    0.48561969540195277    0.5030612566948435    
  0.5264497108895972    0.5528334736302626    0.5788458085831264    0.6013280908992    0.6181530066377028    
  0.628725421313111    0.6336386014016833    0.6336386014016834    0.6287254213131112    0.6181530066377026    
  0.6013280908991998    0.5788458085831263    0.5528334736302625    0.5264497108895971    0.5030612566948435    
  0.48561969540195266    0.4763105639944325    0.4763105639944324    0.48561969540195277    0.4629450655043321    
  0.4771021109544703    0.49905192294602013    0.5264497108895972    0.5562092948089955    0.5848224830129211    
  0.609043521354245    0.6267188373684566    0.6371394791723571    0.6405356596458895    0.6371394791723572    
  0.6267188373684566    0.6090435213542448    0.5848224830129208    0.5562092948089954    0.5264497108895974    
  0.49905192294602    0.4771021109544703    0.462945065504332    0.4580566234751194    0.4629450655043321    
  0.4485626220939451    0.4583643262660105    0.4771021109544704    0.5030612566948436    0.5336856822411227    
  0.5656671397804787    0.5953447898012537    0.6194876507018723    0.6360603187425627    0.6443508649528511    
  0.6443508649528511    0.6360603187425629    0.6194876507018723    0.5953447898012535    0.5656671397804786    
  0.5336856822411226    0.5030612566948435    0.4771021109544703    0.45836432626601037    0.4485626220939451    
  0.4485626220939451    0.4436399175435962    0.4485626220939451    0.4629450655043321    0.48561969540195277    
  0.5145993579434701    0.5470518459840535    0.5794575578740164    0.6081510036058311    0.6301458698014699    
  0.6437162382150102    0.6482671908114119    0.6437162382150101    0.6301458698014698    0.608151003605831    
  0.5794575578740163    0.5470518459840534    0.51459935794347    0.48561969540195266    0.462945065504332    
  0.4485626220939451    0.4436399175435962    0.4617211963241294    0.4664950911319949    0.4803227628613055    
  0.501778710731224    0.5286225406166065    0.5579319927572212    0.5863767537222782    0.6107990366773568    
  0.6289486945088758    0.6398506907298014    0.6434483443129357    0.6398506907298013    0.6289486945088757    
  0.6107990366773567    0.586376753722278    0.5579319927572209    0.5286225406166064    0.501778710731224    
  0.4803227628613055    0.46649509113199483    0.4617211963241294    0.46649509113199483    0.4664950911319949    
  0.4755586253246347    0.49281022609297787    0.5165848318156505    0.544529547610003    0.5737289399814737    
  0.6010056394564743    0.623484485059876    0.6391765155902276    0.6471452056340444    0.6471452056340444    
  0.6391765155902275    0.623484485059876    0.6010056394564743    0.5737289399814735    0.5445295476100028    
  0.5165848318156504    0.4928102260929776    0.4755586253246347    0.46649509113199483    0.4803227628613055    
  0.4760203799137147    0.4803227628613055    0.492810226092978    0.5122758572718658    0.5368410302707151    
  0.564075882890905    0.5911662407476683    0.6152507908685229    0.633918727364706    0.6455971946544566    
  0.6495521482282623    0.6455971946544565    0.6339187273647059    0.6152507908685227    0.5911662407476683    
  0.5640758828909048    0.5368410302707147    0.5122758572718656    0.49281022609297775    0.4803227628613055    
  0.501778710731224    0.4939585459077678    0.4939585459077678    0.5017787107312243    0.5165848318156504    
  0.536841030270715    0.5604980026239619    0.5851721438905524    0.6083530889729758    0.6277171134896883    
  0.6414814380854199    0.6485834925475473    0.6485834925475473    0.6414814380854198    0.6277171134896884    
  0.6083530889729759    0.5851721438905523    0.5604980026239618    0.5368410302707147    0.5165848318156503    
  0.501778710731224    0.5286225406166064    0.5182023460212537    0.5145712791180518    0.5182023460212539    
  0.5286225406166065    0.544529547610003    0.564075882890905    0.5851721438905524    0.60570930366301    
  0.6237342013065575    0.6376462603217619    0.6463610436415553    0.6493193108372255    0.6463610436415552    
  0.6376462603217616    0.6237342013065574    0.60570930366301    0.5851721438905523    0.5640758828909049    
  0.5445295476100026    0.5286225406166064    0.5579319927572209    0.5458277856071279    0.5392342836510392    
  0.5392342836510392    0.545827785607128    0.5579319927572212    0.5737289399814736    0.5911662407476683    
  0.6083530889729758    0.6237342013065575    0.636126317738798    0.6447309702390167    0.6491150174445268    
  0.6491150174445267    0.6447309702390168    0.6361263177387978    0.6237342013065574    0.6083530889729758    
  0.5911662407476682    0.5737289399814735    0.5579319927572209    0.586376753722278    0.5733990945005929    
  0.5643656431062516    0.5611187263425892    0.5643656431062516    0.573399094500593    0.5863767537222782    
  0.6010056394564743    0.6152507908685227    0.6277171134896884    0.6376462603217619    0.6447309702390167    
  0.6489308167629654    0.6503161678494253    0.6489308167629655    0.6447309702390167    0.6376462603217615    
  0.6277171134896884    0.6152507908685226    0.6010056394564743    0.586376753722278    0.6107990366773568    
  0.5975800828717454    0.5864267108016977    0.5800056485149812    0.5800056485149812    0.5864267108016978    
  0.5975800828717457    0.6107990366773569    0.623484485059876    0.633918727364706    0.6414814380854199    
  0.6463610436415554    0.6491150174445267    0.6503161678494254    0.6503161678494254    0.6491150174445268    
  0.6463610436415552    0.6414814380854198    0.6339187273647059    0.6234844850598761    0.6107990366773568    
  0.6289486945088757    0.6159898538305573    0.6029190715066245    0.5931398908240559    0.5895101806965    
  0.5931398908240559    0.6029190715066245    0.6159898538305572    0.6289486945088758    0.6391765155902276    
  0.6455971946544566    0.6485834925475474    0.6493193108372255    0.6491150174445266    0.6489308167629655    
  0.6491150174445268    0.6493193108372254    0.6485834925475474    0.6455971946544566    0.6391765155902276    
  0.6289486945088757    0.6398506907298012    0.6277758949336765    0.6131718645531824    0.5999109025693186    
  0.5920175398998367    0.592017539899837    0.5999109025693187    0.6131718645531823    0.6277758949336765    
  0.6398506907298013    0.6471452056340444    0.6495521482282623    0.6485834925475473    0.6463610436415552    
  0.6447309702390168    0.6447309702390167    0.6463610436415552    0.6485834925475475    0.6495521482282622    
  0.6471452056340442    0.6398506907298012    0.6434483443129357    0.633342064192909    0.6182201141080786    
  0.6019518484544815    0.5894758314303599    0.5848080591826785    0.58947583143036    0.6019518484544815    
  0.6182201141080786    0.6333420641929091    0.6434483443129357    0.6471452056340444    0.6455971946544565    
  0.6414814380854198    0.6376462603217616    0.6361263177387978    0.6376462603217615    0.6414814380854197    
  0.6455971946544565    0.6471452056340442    0.6434483443129357    0.6398506907298012    0.6333420641929088    
  0.6196563062486157    0.6019730832672692    0.5855957900630833    0.5758046252649472    0.5758046252649472    
  0.5855957900630833    0.6019730832672691    0.6196563062486157    0.633342064192909    0.6398506907298014    
  0.6391765155902274    0.6339187273647058    0.6277171134896884    0.6237342013065575    0.6237342013065574    
  0.6277171134896884    0.6339187273647059    0.6391765155902275    0.6398506907298012    0.6289486945088757    
  0.6277758949336765    0.6182201141080786    0.6019730832672692    0.5838389428300573    0.5697811342634254    
  0.5645089847003664    0.5697811342634251    0.5838389428300573    0.6019730832672691    0.6182201141080788    
  0.6277758949336765    0.6289486945088757    0.6234844850598759    0.6152507908685226    0.6083530889729758    
  0.60570930366301    0.6083530889729758    0.6152507908685227    0.6234844850598761    0.6289486945088757    
  0.6107990366773568    0.6159898538305573    0.6131718645531822    0.6019518484544815    0.5855957900630833    
  0.5697811342634252    0.560165944502136    0.5601659445021359    0.5697811342634252    0.5855957900630834    
  0.6019518484544815    0.6131718645531824    0.6159898538305573    0.6107990366773568    0.6010056394564743    
  0.5911662407476682    0.5851721438905523    0.5851721438905523    0.5911662407476682    0.6010056394564743    
  0.6107990366773568    0.586376753722278    0.5975800828717454    0.6029190715066244    0.5999109025693186    
  0.5894758314303598    0.5758046252649472    0.5645089847003664    0.5601659445021357    0.5645089847003664    
  0.5758046252649472    0.5894758314303599    0.5999109025693186    0.6029190715066244    0.5975800828717454    
  0.586376753722278    0.5737289399814736    0.5640758828909049    0.5604980026239618    0.5640758828909049    
  0.5737289399814735    0.586376753722278    0.5579319927572209    0.5733990945005928    0.5864267108016977    
  0.5931398908240559    0.5920175398998367    0.5848080591826784    0.5758046252649472    0.5697811342634251    
  0.5697811342634252    0.5758046252649472    0.5848080591826786    0.5920175398998366    0.5931398908240558    
  0.5864267108016977    0.5733990945005928    0.557931992757221    0.5445295476100028    0.5368410302707147    
  0.5368410302707147    0.5445295476100027    0.5579319927572209    0.5286225406166064    0.5458277856071277    
  0.5643656431062516    0.5800056485149812    0.5895101806965    0.5920175398998369    0.58947583143036    
  0.5855957900630833    0.5838389428300573    0.5855957900630833    0.5894758314303599    0.5920175398998366    
  0.5895101806965    0.580005648514981    0.5643656431062516    0.5458277856071277    0.5286225406166065    
  0.5165848318156505    0.5122758572718656    0.5165848318156503    0.5286225406166064    0.501778710731224    
  0.5182023460212536    0.539234283651039    0.5611187263425894    0.580005648514981    0.5931398908240559    
  0.5999109025693188    0.6019518484544815    0.601973083267269    0.6019730832672691    0.6019518484544815    
  0.5999109025693186    0.5931398908240558    0.580005648514981    0.5611187263425893    0.5392342836510391    
  0.5182023460212537    0.5017787107312243    0.49281022609297775    0.4928102260929777    0.501778710731224    
  0.4803227628613055    0.4939585459077678    0.5145712791180519    0.5392342836510392    0.5643656431062516    
  0.586426710801698    0.6029190715066246    0.6131718645531824    0.6182201141080786    0.6196563062486157    
  0.6182201141080788    0.6131718645531823    0.6029190715066244    0.5864267108016978    0.5643656431062516    
  0.5392342836510393    0.5145712791180519    0.4939585459077678    0.4803227628613055    0.4755586253246347    
  0.4803227628613055    0.4664950911319949    0.4760203799137147    0.4939585459077678    0.5182023460212539    
  0.545827785607128    0.5733990945005929    0.5975800828717456    0.6159898538305573    0.6277758949336765    
  0.6333420641929091    0.633342064192909    0.6277758949336765    0.6159898538305573    0.5975800828717454    
  0.5733990945005928    0.5458277856071277    0.5182023460212538    0.4939585459077677    0.4760203799137145    