#     DFTpy    
  CRYSTAL 
    
  PRIMVEC    
  1.2041057025047601    -2.0855722544216504    0.0    
  1.2041057025047601    2.0855722544216504    0.0    
  0.0    0.0    4.0711812025517204    
  PRIMCOORD    
  2    1    
  Si    1.2041057025047601    0.6951907514738801    1.0177953006379301    
  Si    1.2041057025047601    -0.6951907514738801    3.0533859019137903    
  BEGIN_BLOCK_DATAGRID_3D    
  3d_datagrid_density    
  BEGIN_DATAGRID_3D#0    
  25    25    41    
  0.0    0.0    0.0    
  1.2041057069960974    -2.0855722622008748    0.0    
  1.2041057069960974    2.0855722622008748    0.0    
  0.0    0.0    4.071181217737304    
  0.22901927288620477    0.23177907631696673    0.23996090668555597    0.2532592597245277    0.27112605639943643    
  0.2927266216972768    0.3169088304979021    0.3422092387003724    0.3669033934934545    0.3890911822166532    
  0.40682619741852427    0.41833298519098183    0.422326685817606    0.41833298519098217    0.4068261974185249    
  0.3890911822166538    0.36690339349345524    0.342209238700373    0.31690883049790275    0.2927266216972774    
  0.271126056399437    0.25325925972452823    0.2399609066855563    0.23177907631696687    0.22901927288620477    
  0.23177907631696695    0.23177907631696695    0.23725147684417977    0.24800240532332246    0.263612890366933    
  0.2833905350739525    0.306328658882671    0.33109957486594005    0.35609522945752514    0.379505580945511    
  0.39942467421059674    0.4140108076269674    0.4217432645152451    0.42174326451524535    0.41401080762696785    
  0.3994246742105973    0.3795055809455116    0.3560952294575258    0.3310995748659407    0.30632865888267163    
  0.2833905350739531    0.26361289036693347    0.24800240532332288    0.23725147684418    0.23177907631696695    
  0.23996090668555653    0.23725147684418    0.23996090668555625    0.24800240532332266    0.2610885710688883    
  0.2786678135080373    0.2998650321330866    0.3234662965189227    0.34796494035986536    0.3716545380366985    
  0.3927381350952949    0.4094492118243497    0.42022422957343863    0.4239516225654184    0.4202242295734389    
  0.40944921182435007    0.39273813509529554    0.3716545380366991    0.347964940359866    0.32346629651892345    
  0.2998650321330872    0.27866781350803804    0.26108857106888866    0.24800240532332296    0.23996090668555653    
  0.2532592597245284    0.24800240532332293    0.24800240532332282    0.25325925972452806    0.26361289036693314    
  0.27866781350803743    0.29769967711422246    0.31961355947607956    0.3429900301874397    0.36620350407603536    
  0.38756212441680826    0.4054278420477321    0.4183277205364818    0.4251036871654233    0.4251036871654234    
  0.41832772053648193    0.40542784204773247    0.3875621244168087    0.36620350407603597    0.3429900301874402    
  0.3196135594760803    0.2976996771142231    0.27866781350803804    0.2636128903669336    0.2532592597245284    
  0.2711260563994372    0.2636128903669336    0.2610885710688886    0.26361289036693336    0.2711260563994368    
  0.28339053507395284    0.2998650321330867    0.3196135594760796    0.34132517594548023    0.36344552462967455    
  0.38435758546147714    0.4025353977773663    0.4166395466072434    0.4255889928939064    0.42865843627348876    
  0.42558899289390645    0.4166395466072435    0.4025353977773665    0.3843575854614775    0.363445524629675    
  0.34132517594548084    0.31961355947608033    0.29986503213308735    0.28339053507395323    0.2711260563994372    
  0.29272662169727776    0.2833905350739533    0.27866781350803793    0.27866781350803776    0.28339053507395295    
  0.29272662169727726    0.3063286588826713    0.3234662965189229    0.3429900301874398    0.36344552462967455    
  0.38328215901641777    0.40105377442398116    0.4155372704123592    0.4257704377233971    0.4310692131777689    
  0.4310692131777689    0.42577043772339723    0.4155372704123594    0.40105377442398144    0.38328215901641804    
  0.36344552462967517    0.3429900301874404    0.3234662965189236    0.3063286588826718    0.29272662169727776    
  0.31690883049790314    0.3063286588826718    0.2998650321330871    0.29769967711422285    0.2998650321330869    
  0.30632865888267125    0.3169088304979024    0.33109957486594027    0.34796494035986564    0.3662035040760356    
  0.38435758546147736    0.4010537744239813    0.41516227274920225    0.4258369425452931    0.4324849483291575    
  0.434742632359318    0.4324849483291575    0.4258369425452931    0.4151622727492023    0.4010537744239815    
  0.3843575854614777    0.3662035040760362    0.3479649403598663    0.331099574865941    0.31690883049790314    
  0.3422092387003734    0.33109957486594094    0.32346629651892334    0.31961355947608    0.31961355947607983    
  0.32346629651892295    0.3310995748659402    0.3422092387003727    0.3560952294575255    0.3716545380366989    
  0.3875621244168087    0.4025353977773667    0.41553727041235955    0.42583694254529336    0.4329558920912159    
  0.43659246807964047    0.43659246807964036    0.4329558920912157    0.4258369425452932    0.4155372704123595    
  0.4025353977773668    0.3875621244168091    0.37165453803669946    0.35609522945752614    0.3422092387003734    
  0.3669033934934556    0.3560952294575261    0.3479649403598661    0.3429900301874401    0.34132517594548045    
  0.3429900301874398    0.3479649403598655    0.3560952294575252    0.36690339349345474    0.3795055809455114    
  0.39273813509529554    0.4054278420477327    0.41663954660724395    0.4257704377233977    0.43248494832915785    
  0.4365924680796406    0.4379760731669795    0.43659246807964047    0.4324849483291577    0.4257704377233974    
  0.41663954660724384    0.40542784204773286    0.3927381350952958    0.37950558094551196    0.3669033934934556    
  0.38909118221665406    0.37950558094551207    0.3716545380366994    0.366203504076036    0.36344552462967483    
  0.36344552462967467    0.3662035040760355    0.37165453803669857    0.37950558094551107    0.3890911822166534    
  0.3994246742105972    0.40944921182435035    0.41832772053648254    0.4255889928939071    0.4310692131777696    
  0.4347426323593185    0.43659246807964064    0.43659246807964064    0.43474263235931826    0.4310692131777693    
  0.4255889928939067    0.4183277205364824    0.40944921182435035    0.3994246742105976    0.38909118221665406    
  0.4068261974185251    0.39942467421059785    0.3927381350952959    0.38756212441680904    0.3843575854614777    
  0.3832821590164178    0.3843575854614773    0.3875621244168084    0.39273813509529515    0.3994246742105969    
  0.40682619741852444    0.4140108076269679    0.4202242295734395    0.42510368716542424    0.4286584362734897    
  0.43106921317776964    0.43248494832915807    0.432955892091216    0.43248494832915785    0.4310692131777693    
  0.42865843627348915    0.42510368716542385    0.42022422957343925    0.414010807626968    0.4068261974185251    
  0.41833298519098233    0.41401080762696824    0.4094492118243507    0.4054278420477331    0.402535397777367    
  0.40105377442398166    0.40105377442398144    0.4025353977773665    0.40542784204773225    0.4094492118243498    
  0.4140108076269675    0.418332985190982    0.4217432645152457    0.4239516225654191    0.4251036871654244    
  0.4255889928939072    0.42577043772339784    0.4258369425452936    0.4258369425452935    0.4257704377233975    
  0.42558899289390667    0.4251036871654237    0.42395162256541863    0.4217432645152454    0.41833298519098233    
  0.422326685817606    0.4217432645152456    0.4202242295734395    0.41832772053648276    0.41663954660724434    
  0.41553727041236    0.4151622727492027    0.4155372704123596    0.4166395466072437    0.41832772053648204    
  0.4202242295734388    0.4217432645152451    0.422326685817606    0.42174326451524574    0.4202242295734396    
  0.41832772053648276    0.4166395466072442    0.4155372704123599    0.41516227274920264    0.41553727041235955    
  0.4166395466072437    0.41832772053648215    0.42022422957343886    0.4217432645152452    0.422326685817606    
  0.4183329851909818    0.4217432645152454    0.4239516225654189    0.4251036871654243    0.4255889928939074    
  0.4257704377233981    0.42583694254529386    0.42583694254529364    0.4257704377233977    0.42558899289390684    
  0.42510368716542357    0.4239516225654184    0.4217432645152451    0.4183329851909821    0.4140108076269682    
  0.40944921182435057    0.4054278420477331    0.4025353977773671    0.40105377442398166    0.40105377442398155    
  0.4025353977773666    0.4054278420477324    0.40944921182434973    0.41401080762696735    0.4183329851909818    
  0.40682619741852416    0.4140108076269675    0.42022422957343913    0.4251036871654241    0.4286584362734899    
  0.43106921317777    0.4324849483291586    0.43295589209121654    0.43248494832915824    0.4310692131777696    
  0.4286584362734893    0.4251036871654237    0.42022422957343897    0.4140108076269677    0.4068261974185246    
  0.3994246742105976    0.3927381350952958    0.38756212441680904    0.38435758546147775    0.383282159016418    
  0.3843575854614773    0.38756212441680843    0.39273813509529487    0.39942467421059663    0.40682619741852416    
  0.3890911822166528    0.3994246742105968    0.4094492118243501    0.41832772053648243    0.42558899289390734    
  0.43106921317777    0.4347426323593191    0.4365924680796414    0.4365924680796414    0.4347426323593188    
  0.43106921317776964    0.42558899289390695    0.4183277205364822    0.4094492118243502    0.3994246742105972    
  0.3890911822166537    0.37950558094551173    0.3716545380366992    0.36620350407603597    0.3634455246296747    
  0.3634455246296746    0.3662035040760355    0.37165453803669846    0.37950558094551073    0.3890911822166528    
  0.3669033934934542    0.3795055809455108    0.39273813509529504    0.4054278420477326    0.41663954660724417    
  0.4257704377233981    0.4324849483291586    0.4365924680796415    0.43797607316698045    0.4365924680796415    
  0.43248494832915846    0.42577043772339784    0.41663954660724395    0.40542784204773263    0.3927381350952954    
  0.37950558094551146    0.366903393493455    0.3560952294575257    0.3479649403598658    0.34299003018743984    
  0.34132517594548023    0.3429900301874396    0.34796494035986514    0.3560952294575248    0.3669033934934542    
  0.342209238700372    0.35609522945752486    0.3716545380366983    0.38756212441680843    0.4025353977773668    
  0.41553727041236    0.42583694254529414    0.4329558920912168    0.4365924680796416    0.4365924680796416    
  0.4329558920912168    0.4258369425452939    0.41553727041235994    0.40253539777736685    0.3875621244168087    
  0.37165453803669884    0.35609522945752553    0.34220923870037284    0.3310995748659404    0.32346629651892295    
  0.31961355947607956    0.3196135594760794    0.32346629651892245    0.33109957486593966    0.342209238700372    
  0.31690883049790175    0.3310995748659397    0.347964940359865    0.36620350407603525    0.3843575854614773    
  0.40105377442398166    0.4151622727492031    0.42583694254529414    0.4324849483291588    0.4347426323593193    
  0.4324849483291588    0.42583694254529414    0.4151622727492031    0.4010537744239818    0.38435758546147764    
  0.36620350407603575    0.3479649403598657    0.3310995748659403    0.31690883049790247    0.30632865888267113    
  0.2998650321330865    0.29769967711422224    0.29986503213308624    0.3063286588826706    0.31690883049790175    
  0.2927266216972765    0.3063286588826706    0.3234662965189223    0.3429900301874393    0.36344552462967433    
  0.38328215901641777    0.4010537744239817    0.41553727041236016    0.42577043772339834    0.4310692131777703    
  0.4310692131777703    0.4257704377233985    0.4155372704123603    0.401053774423982    0.38328215901641816    
  0.3634455246296749    0.3429900301874399    0.3234662965189229    0.30632865888267125    0.29272662169727703    
  0.28339053507395257    0.2786678135080372    0.27866781350803704    0.2833905350739521    0.2927266216972765    
  0.27112605639943615    0.2833905350739521    0.2998650321330861    0.3196135594760791    0.3413251759454799    
  0.36344552462967444    0.3843575854614775    0.402535397777367    0.4166395466072444    0.42558899289390767    
  0.42865843627349015    0.42558899289390767    0.41663954660724456    0.40253539777736735    0.38435758546147786    
  0.3634455246296749    0.34132517594548045    0.3196135594760797    0.2998650321330867    0.28339053507395257    
  0.27112605639943654    0.26361289036693286    0.2610885710688879    0.2636128903669326    0.27112605639943615    
  0.2532592597245274    0.2636128903669326    0.27866781350803693    0.29769967711422196    0.31961355947607917    
  0.3429900301874395    0.3662035040760355    0.3875621244168087    0.40542784204773286    0.4183277205364828    
  0.4251036871654245    0.4251036871654246    0.41832772053648304    0.4054278420477333    0.38756212441680915    
  0.366203504076036    0.34299003018743995    0.3196135594760798    0.2976996771142227    0.27866781350803743    
  0.263612890366933    0.25325925972452784    0.24800240532332218    0.24800240532332218    0.2532592597245274    
  0.23996090668555584    0.2480024053233222    0.2610885710688878    0.278667813508037    0.29986503213308613    
  0.3234662965189225    0.3479649403598653    0.3716545380366986    0.3927381350952954    0.4094492118243504    
  0.4202242295734395    0.4239516225654192    0.4202242295734398    0.40944921182435084    0.392738135095296    
  0.3716545380366992    0.347964940359866    0.3234662965189231    0.29986503213308685    0.2786678135080376    
  0.26108857106888833    0.2480024053233226    0.239960906685556    0.2372514768441795    0.23996090668555584    
  0.23177907631696662    0.23725147684417952    0.2480024053233222    0.2636128903669327    0.28339053507395234    
  0.30632865888267086    0.33109957486594    0.35609522945752514    0.3795055809455111    0.39942467421059713    
  0.4140108076269678    0.4217432645152455    0.4217432645152457    0.41401080762696835    0.39942467421059774    
  0.3795055809455118    0.35609522945752586    0.3310995748659406    0.3063286588826715    0.2833905350739529    
  0.26361289036693325    0.24800240532332274    0.23725147684417985    0.23177907631696673    0.23177907631696662    
  0.22901927288620477    0.23177907631696673    0.23996090668555597    0.2532592597245277    0.27112605639943643    
  0.2927266216972768    0.3169088304979021    0.3422092387003724    0.3669033934934545    0.3890911822166532    
  0.40682619741852427    0.41833298519098183    0.422326685817606    0.41833298519098217    0.4068261974185249    
  0.3890911822166538    0.36690339349345524    0.342209238700373    0.31690883049790275    0.2927266216972774    
  0.271126056399437    0.25325925972452823    0.2399609066855563    0.23177907631696687    0.22901927288620477    
  0.23297400121002804    0.2357319555715513    0.24391154593591835    0.25721208358610537    0.2750821011408117    
  0.29667113750402047    0.3208036944941081    0.34599469703843966    0.3705096377763796    0.3924606500323524    
  0.40994452239647183    0.42125472127264435    0.42517348531281957    0.4212547212726447    0.4099445223964725    
  0.392460650032353    0.37050963777638035    0.3459946970384403    0.32080369449410884    0.2966711375040211    
  0.27508210114081233    0.2572120835861059    0.24391154593591868    0.23573195557155144    0.23297400121002804    
  0.23573195557155155    0.23573195557155155    0.2410505042940773    0.2514980395198665    0.2666609361723431    
  0.28585084401336214    0.3080671578441607    0.3320001583128697    0.35608346902591986    0.3785786440916497    
  0.3976760873063903    0.4116383433806651    0.4190333691508576    0.4190333691508578    0.41163834338066546    
  0.397676087306391    0.3785786440916503    0.35608346902592064    0.3320001583128705    0.30806715784416133    
  0.28585084401336275    0.26666093617234365    0.2514980395198669    0.2410505042940775    0.23573195557155155    
  0.2439115459359189    0.24135373991828213    0.24391154593591863    0.2514980395198666    0.26382786702835886    
  0.28035965591572076    0.3002444751616051    0.3223203714046559    0.34516923577006303    0.3672136146932418    
  0.38681220221417434    0.4023496421774051    0.4123773524384875    0.4158489697571524    0.4123773524384878    
  0.4023496421774056    0.386812202214175    0.3672136146932425    0.34516923577006375    0.32232037140465664    
  0.30024447516160563    0.28035965591572154    0.2638278670283594    0.251498039519867    0.2439115459359189    
  0.2572120835861061    0.25240522602272697    0.25240522602272686    0.25721208358610576    0.26666093617234327    
  0.2803596559157208    0.297614146711555    0.3174042053367934    0.33844169020107395    0.35928854223954343    
  0.3784731413974524    0.39456310071494344    0.4062289396360572    0.41237950511639565    0.4123795051163958    
  0.4062289396360574    0.3945631007149437    0.37847314139745275    0.359288542239544    0.33844169020107456    
  0.31740420533679414    0.29761414671155567    0.2803596559157215    0.26666093617234377    0.2572120835861061    
  0.27508210114081255    0.26846066235321353    0.26623152905528236    0.2684606623532133    0.27508210114081216    
  0.2858508440133624    0.3002444751616051    0.3174042053367934    0.33617796114575654    0.355253415576245    
  0.3733056850331428    0.38908373090171305    0.40143340465170696    0.40934046566251636    0.41206786436635756    
  0.40934046566251636    0.4014334046517071    0.38908373090171333    0.3733056850331432    0.35525341557624546    
  0.3361779611457571    0.3174042053367942    0.3002444751616058    0.28585084401336286    0.27508210114081255    
  0.2966711375040214    0.28880256067767834    0.2848071804631854    0.2848071804631853    0.2888025606776779    
  0.2966711375040208    0.30806715784416094    0.322320371404656    0.33844169020107406    0.35525341557624507    
  0.3715653665395287    0.3862909740137372    0.39846178866563003    0.40720505422250064    0.41179343180945316    
  0.41179343180945305    0.4072050542225007    0.39846178866563015    0.38629097401373735    0.371565366539529    
  0.3552534155762456    0.33844169020107473    0.3223203714046568    0.3080671578441616    0.2966711375040214    
  0.32080369449410917    0.31237922415128944    0.30719976643046687    0.30545915844110283    0.3071997664304666    
  0.3123792241512889    0.32080369449410845    0.33200015831286994    0.3451692357700633    0.35928854223954365    
  0.37330568503314304    0.38629097401373724    0.3974653868011278    0.40613781844274405    0.4116736043232095    
  0.41358215294276646    0.4116736043232095    0.406137818442744    0.3974653868011278    0.3862909740137374    
  0.37330568503314326    0.35928854223954426    0.345169235770064    0.3320001583128708    0.32080369449410917    
  0.34599469703844066    0.3378013447076043    0.33210817464883724    0.3292157933429217    0.3292157933429215    
  0.3321081746488368    0.33780134470760353    0.3459946970384399    0.3560834690259202    0.3672136146932422    
  0.3784731413974528    0.3890837309017135    0.3984617886656303    0.4061378184427443    0.41165075261582684    
  0.41455416796494887    0.4145541679649487    0.4116507526158267    0.4061378184427441    0.3984617886656303    
  0.38908373090171366    0.3784731413974532    0.3672136146932429    0.356083469025921    0.34599469703844066    
  0.37050963777638063    0.3633877255977969    0.35790605643178075    0.3545012054457824    0.3533536190407611    
  0.354501205445782    0.35790605643178003    0.363387725597796    0.3705096377763798    0.37857864409165    
  0.38681220221417495    0.39456310071494405    0.4014334046517075    0.40720505422250125    0.4116736043232099    
  0.4145541679649489    0.4155563662399793    0.41455416796494887    0.4116736043232096    0.4072050542225009    
  0.40143340465170746    0.3945631007149442    0.3868122022141753    0.3785786440916506    0.37050963777638063    
  0.3924606500323533    0.38725763600781826    0.3827456639785707    0.3794869551107259    0.3778004387612003    
  0.3778004387612002    0.37948695511072533    0.38274566397856985    0.38725763600781726    0.39246065003235253    
  0.39767608730639087    0.4023496421774059    0.406228939636058    0.40934046566251703    0.41179343180945377    
  0.4135821529427669    0.414554167964949    0.4145541679649489    0.4135821529427667    0.41179343180945344    
  0.4093404656625167    0.40622893963605783    0.4023496421774059    0.39767608730639126    0.3924606500323533    
  0.40994452239647267    0.4074651152184529    0.40470647170765495    0.40227769979741934    0.4006545719989211    
  0.40008983120160696    0.40065457199892074    0.4022776997974186    0.4047064717076541    0.4074651152184518    
  0.40994452239647206    0.4116383433806657    0.4123773524384884    0.41237950511639665    0.4120678643663585    
  0.4117934318094538    0.41167360432321    0.41165075261582695    0.41167360432320976    0.4117934318094535    
  0.4120678643663579    0.4123795051163962    0.4123773524384881    0.4116383433806657    0.40994452239647267    
  0.4212547212726448    0.42218415003735144    0.42197076181731996    0.4211125785183724    0.42018465108939496    
  0.41961655919081803    0.41961655919081786    0.4201846510893944    0.4211125785183715    0.42197076181731896    
  0.4221841500373506    0.4212547212726444    0.4190333691508582    0.4158489697571532    0.41237950511639676    
  0.40934046566251714    0.4072050542225014    0.4061378184427445    0.4061378184427444    0.407205054222501    
  0.4093404656625166    0.41237950511639604    0.4158489697571527    0.4190333691508579    0.4212547212726448    
  0.4251734853128196    0.429955208701052    0.43301714110997086    0.4345355208708164    0.4350279064454507    
  0.4350593108459815    0.43502430902279077    0.4350593108459812    0.4350279064454501    0.4345355208708157    
  0.43301714110997    0.4299552087010516    0.42517348531281957    0.41903336915085826    0.4123773524384885    
  0.4062289396360582    0.4014334046517078    0.39846178866563065    0.39746538680112814    0.3984617886656303    
  0.40143340465170735    0.4062289396360576    0.4123773524384877    0.41903336915085765    0.4251734853128196    
  0.42125472127264424    0.42995520870105186    0.4368205031867915    0.44151428960885863    0.4442670330340198    
  0.4456262645454934    0.44614278731173956    0.4461427873117394    0.44562626454549303    0.44426703303401915    
  0.44151428960885786    0.43682050318679083    0.4299552087010516    0.4212547212726445    0.41163834338066585    
  0.4023496421774061    0.3945631007149443    0.3890837309017139    0.38629097401373763    0.3862909740137375    
  0.38908373090171333    0.3945631007149437    0.4023496421774052    0.4116383433806651    0.42125472127264424    
  0.4099445223964717    0.4221841500373507    0.4330171411099704    0.4415142896088584    0.4473990290139334    
  0.45096270300243746    0.45276642920113164    0.4533039086931412    0.45276642920113125    0.4509627030024369    
  0.44739902901393275    0.44151428960885797    0.43301714110997025    0.42218415003735077    0.4099445223964723    
  0.3976760873063912    0.3868122022141752    0.37847314139745314    0.37330568503314343    0.371565366539529    
  0.37330568503314293    0.3784731413974526    0.38681220221417434    0.39767608730639026    0.4099445223964717    
  0.392460650032352    0.40746511521845175    0.42197076181731935    0.43453552087081615    0.44426703303401976    
  0.45096270300243746    0.45495531757902374    0.45676878572762647    0.45676878572762636    0.4549553175790235    
  0.450962703002437    0.4442670330340194    0.4345355208708159    0.42197076181731935    0.4074651152184522    
  0.39246065003235286    0.3785786440916503    0.3672136146932425    0.359288542239544    0.3552534155762453    
  0.35525341557624507    0.3592885422395436    0.36721361469324176    0.37857864409164943    0.392460650032352    
  0.3705096377763792    0.38725763600781693    0.40470647170765395    0.4211125785183719    0.4350279064454505    
  0.44562626454549353    0.4527664292011317    0.45676878572762664    0.45804352510549173    0.45676878572762647    
  0.4527664292011314    0.44562626454549326    0.4350279064454503    0.42111257851837197    0.4047064717076544    
  0.38725763600781765    0.3705096377763801    0.3560834690259205    0.3451692357700635    0.3384416902010742    
  0.3361779611457566    0.33844169020107395    0.34516923577006287    0.3560834690259196    0.3705096377763792    
  0.3459946970384392    0.36338772559779564    0.3827456639785695    0.4022776997974186    0.4201846510893946    
  0.43505931084598154    0.44614278731173984    0.4533039086931415    0.45676878572762664    0.45676878572762664    
  0.45330390869314147    0.4461427873117397    0.4350593108459815    0.4201846510893947    0.402277699797419    
  0.38274566397857007    0.3633877255977963    0.34599469703844005    0.3320001583128701    0.3223203714046561    
  0.3174042053367934    0.3174042053367933    0.3223203714046556    0.33200015831286944    0.3459946970384392    
  0.3208036944941078    0.33780134470760304    0.3579060564317796    0.37948695511072505    0.40065457199892074    
  0.41961655919081803    0.43502430902279104    0.44614278731173984    0.4527664292011318    0.454955317579024    
  0.4527664292011318    0.44614278731173973    0.43502430902279104    0.41961655919081825    0.40065457199892107    
  0.3794869551107256    0.35790605643178025    0.33780134470760365    0.32080369449410845    0.3080671578441608    
  0.3002444751616049    0.29761414671155473    0.3002444751616047    0.3080671578441603    0.3208036944941078    
  0.2966711375040201    0.3123792241512882    0.33210817464883613    0.35450120544578156    0.37780043876119973    
  0.4000898312016069    0.4196165591908181    0.43505931084598176    0.4456262645454937    0.45096270300243774    
  0.4509627030024376    0.4456262645454938    0.4350593108459819    0.41961655919081847    0.4000898312016073    
  0.3778004387612003    0.3545012054457821    0.33210817464883674    0.31237922415128877    0.29667113750402063    
  0.28585084401336214    0.28035965591572065    0.2803596559157205    0.28585084401336175    0.2966711375040201    
  0.27508210114081144    0.2888025606776771    0.30719976643046576    0.3292157933429208    0.35335361904076057    
  0.37780043876119984    0.4006545719989209    0.42018465108939484    0.43502790644545075    0.4442670330340201    
  0.4473990290139337    0.4442670330340201    0.435027906445451    0.42018465108939523    0.4006545719989213    
  0.37780043876120034    0.3533536190407611    0.32921579334292145    0.30719976643046637    0.28880256067767757    
  0.27508210114081183    0.266660936172343    0.26382786702835853    0.2666609361723427    0.27508210114081144    
  0.25721208358610514    0.26846066235321253    0.2848071804631845    0.305459158441102    0.32921579334292084    
  0.35450120544578173    0.37948695511072533    0.40227769979741895    0.4211125785183722    0.43453552087081654    
  0.4415142896088588    0.4415142896088589    0.4345355208708167    0.42111257851837264    0.40227769979741945    
  0.3794869551107259    0.35450120544578223    0.3292157933429215    0.3054591584411026    0.284807180463185    
  0.2684606623532129    0.2572120835861055    0.2514980395198662    0.25149803951986616    0.25721208358610514    
  0.24391154593591816    0.25240522602272625    0.2662315290552816    0.28480718046318454    0.30719976643046587    
  0.33210817464883635    0.3579060564317799    0.38274566397856985    0.40470647170765434    0.4219707618173195    
  0.43301714110997086    0.4368205031867918    0.4330171411099711    0.4219707618173201    0.40470647170765506    
  0.38274566397857057    0.35790605643178064    0.332108174648837    0.3071997664304666    0.28480718046318515    
  0.26623152905528213    0.2524052260227266    0.24391154593591835    0.24105050429407698    0.24391154593591816    
  0.23573195557155122    0.24135373991828166    0.25240522602272625    0.26846066235321264    0.2888025606776773    
  0.3123792241512885    0.3378013447076033    0.3633877255977959    0.38725763600781726    0.407465115218452    
  0.422184150037351    0.42995520870105197    0.42995520870105214    0.42218415003735155    0.40746511521845274    
  0.387257636007818    0.36338772559779664    0.3378013447076039    0.3123792241512891    0.28880256067767796    
  0.2684606623532132    0.2524052260227268    0.24135373991828193    0.2357319555715513    0.23573195557155122    
  0.23297400121002804    0.2357319555715513    0.24391154593591835    0.25721208358610537    0.2750821011408117    
  0.29667113750402047    0.3208036944941081    0.34599469703843966    0.3705096377763796    0.3924606500323524    
  0.40994452239647183    0.42125472127264435    0.42517348531281957    0.4212547212726447    0.4099445223964725    
  0.392460650032353    0.37050963777638035    0.3459946970384403    0.32080369449410884    0.2966711375040211    
  0.27508210114081233    0.2572120835861059    0.24391154593591868    0.23573195557155144    0.23297400121002804    
  0.24460459537154974    0.24735932727978324    0.2555347552404521    0.2688356196574288    0.28669428014811105    
  0.30821219639052194    0.33214399568249975    0.3569375226246715    0.3808271674507199    0.40196916037152397    
  0.41860709079967134    0.4292617294978152    0.432931937629031    0.42926172949781555    0.418607090799672    
  0.40196916037152464    0.3808271674507207    0.35693752262467227    0.33214399568250064    0.3082121963905227    
  0.2866942801481117    0.2688356196574294    0.25553475524045244    0.24735932727978333    0.24460459537154974    