#     DFTpy    
  CRYSTAL 
    
  PRIMVEC    
  1.8107543770491406    -3.1363185810768406    0.0    
  1.8107543770491406    3.1363185810768406    0.0    
  0.0    0.0    6.122310663379311    
  PRIMCOORD    
  2    1    
  Si    1.8107543770491406    1.0454395270256105    1.5305776658448302    
  Si    1.8107543770491406    -1.0454395270256105    4.591732997534482    
  BEGIN_BLOCK_DATAGRID_3D    
  3d_datagrid_density    
  BEGIN_DATAGRID_3D#0    
  37    37    61    
  0.0    0.0    0.0    
  1.810754383803289    -3.136318592775369    0.0    
  1.810754383803289    3.136318592775369    0.0    
  0.0    0.0    6.122310686215648    
  0.026096186695026294    0.0262859973345564    0.026857445484372664    0.027816012909534046    0.029169151658692345    
  0.030923702201895237    0.03308106126698731    0.03562971715577985    0.03853806463710669    0.04175219299517351    
  0.04519919012991571    0.04878949697213101    0.05241158406932253    0.05592222683431078    0.05914556776779479    
  0.06189078769564782    0.06398289588711739    0.06528983615449263    0.06573383200939754    0.06528983615449252    
  0.06398289588711727    0.06189078769564763    0.05914556776779446    0.05592222683431039    0.052411584069322004    
  0.04878949697213031    0.045199190129915044    0.041752192995172854    0.038538064637106045    0.035629717155779304    
  0.03308106126698685    0.030923702201894925    0.02916915165869213    0.027816012909533883    0.0268574454843726    
  0.026285997334556402    0.026096186695026294    0.02628599733455638    0.026285997334556374    0.026666685534861047    
  0.027432105713689973    0.02858912570508163    0.030145342844155206    0.03210560699876955    0.034466059301694524    
  0.037206530360156996    0.0402852478027368    0.04363910985735194    0.04718678125116127    0.050827359719710585    
  0.05443227246010813    0.05783915314449234    0.06086040593300131    0.06330892802817362    0.06502865564841136    
  0.06591408266350728    0.06591408266350718    0.06502865564841129    0.06330892802817342    0.0608604059330011    
  0.05783915314449195    0.05443227246010774    0.05082735971970999    0.04718678125116059    0.043639109857351255    
  0.04028524780273614    0.03720653036015637    0.034466059301694    0.03210560699876914    0.03014534284415496    
  0.028589125705081445    0.02743210571368988    0.026666685534861023    0.02628599733455638    0.0268574454843726    
  0.026666685534861012    0.026857445484372647    0.02743210571368996    0.028396900006796493    0.029759737747428263    
  0.03152737307161509    0.03370131349845573    0.03627168656085732    0.03921056859610424    0.04246821626738108    
  0.045973241938910184    0.04963268818961023    0.053327518175850686    0.056906419576700944    0.0601882263614931    
  0.06298021683345202    0.06510701770466833    0.06643575171762994    0.06688725040876917    0.0664357517176299    
  0.06510701770466822    0.06298021683345181    0.060188226361492875    0.05690641957670058    0.05332751817585018    
  0.049632688189609614    0.04597324193890951    0.04246821626738039    0.0392105685961036    0.03627168656085673    
  0.03370131349845526    0.03152737307161475    0.02975973774742803    0.02839690000679637    0.0274321057136899    
  0.0268574454843726    0.027816012909533935    0.02743210571368989    0.027432105713689925    0.027816012909533994    
  0.028589125705081597    0.029759737747428246    0.031336005112047156    0.0333228438947433    0.03571798040403895    
  0.038506255900083226    0.041653467213109203    0.045102144903524204    0.048769351758287324    0.05254391714687553    
  0.05628263326219802    0.05981080309410411    0.06293434367900719    0.06546378320099938    0.06724087835728076    
  0.06815653285995744    0.06815653285995751    0.06724087835728071    0.06546378320099928    0.062934343679007    
  0.059810803094103894    0.056282633262197575    0.05254391714687502    0.04876935175828668    0.04510214490352346    
  0.04165346721310851    0.0385062559000826    0.03571798040403839    0.033322843894742875    0.031336005112046816    
  0.029759737747428103    0.028589125705081538    0.027816012909533935    0.029169151658692133    0.028589125705081528    
  0.028396900006796424    0.028589125705081552    0.029169151658692223    0.0301453428441551    0.03152737307161502    
  0.033322843894743256    0.035534714057229896    0.03815774663671932    0.041172536505500075    0.04453819511543546    
  0.04818604049688699    0.05201529956494308    0.0558907176567505    0.05964375528991618    0.06308141216093152    
  0.06600487355800481    0.06823399916213335    0.06962912246807375    0.07010382060786961    0.06962912246807376    
  0.06823399916213328    0.06600487355800468    0.0630814121609313    0.05964375528991582    0.05589071765675009    
  0.05201529956494247    0.04818604049688633    0.044538195115434775    0.041172536505499395    0.038157746636718705    
  0.03553471405722936    0.03332284389474283    0.03152737307161476    0.030145342844155005    0.029169151658692133    
  0.030923702201894956    0.03014534284415498    0.029759737747428128    0.02975973774742816    0.030145342844155053    
  0.030923702201895067    0.03210560699876939    0.0337013134984556    0.035717980404038854    0.03815774663671925    
  0.0410134517517426    0.04426065151514035    0.04784797663343467    0.05168938156031822    0.05566064597518247    
  0.059601036245847616    0.06332101928482871    0.06661695383517648    0.06929169104207335    0.07117679787645793    
  0.07215088452593625    0.07215088452593625    0.07117679787645796    0.06929169104207321    0.06661695383517634    
  0.06332101928482849    0.05960103624584736    0.05566064597518201    0.05168938156031764    0.047847976633434    
  0.04426065151513963    0.041013451751741925    0.03815774663671871    0.03571798040403839    0.033701313498455315    
  0.03210560699876921    0.030923702201894956    0.033081061266986886    0.0321056069987692    0.0315273730716148    
  0.03133600511204695    0.03152737307161486    0.03210560699876927    0.03308106126698705    0.03446605930169435    
  0.03627168656085716    0.03850625590008311    0.04117253650550004    0.04426065151514038    0.04773706716336903    
  0.051533702937185115    0.055541664698261516    0.059611762562023496    0.06356148117182299    0.06718724437020768    
  0.0702811159604264    0.07265081094680398    0.0741405087562811    0.0746487961343782    0.07414050875628111    
  0.07265081094680399    0.07028111596042637    0.06718724437020755    0.06356148117182281    0.05961176256202318    
  0.05554166469826105    0.05153370293718457    0.04773706716336835    0.044260651515139644    0.04117253650549941    
  0.03850625590008256    0.036271686560856775    0.034466059301694094    0.033081061266986886    0.035629717155779325    
  0.03446605930169406    0.033701313498455336    0.03332284389474298    0.033322843894743    0.03370131349845538    
  0.03446605930169422    0.035629717155779575    0.03720653036015676    0.039210568596104084    0.0416534672131091    
  0.044538195115435414    0.0478479766334347    0.05153370293718518    0.055505023638570364    0.05962858377496034    
  0.06373345946477102    0.06762158212901234    0.07108130107532239    0.0739040442946343    0.07590449580588675    
  0.07694255669001837    0.07694255669001834    0.07590449580588672    0.0739040442946344    0.0710813010753223    
  0.06762158212901219    0.06373345946477076    0.05962858377496004    0.05550502363856985    0.05153370293718455    
  0.04784797663343401    0.044538195115434755    0.04165346721310848    0.039210568596103626    0.03720653036015644    
  0.035629717155779325    0.038538064637106045    0.03720653036015637    0.03627168656085681    0.035717980404038466    
  0.03553471405722945    0.035717980404038494    0.03627168656085693    0.03720653036015658    0.03853806463710633    
  0.04028524780273654    0.04246821626738091    0.045102144903524134    0.04818604049688701    0.05168938156031826    
  0.055541664698261536    0.05962858377496036    0.06379534579804702    0.06785499297361988    0.0715993459805785    
  0.0748123510086318    0.07728770439403099    0.07885151835792924    0.07938661056830307    0.07885151835792922    
  0.077287704394031    0.07481235100863184    0.07159934598057846    0.06785499297361977    0.06379534579804681    
  0.05962858377496005    0.055541664698261    0.051689381560317625    0.048186040496886344    0.045102144903523454    
  0.0424682162673804    0.04028524780273617    0.038538064637106045    0.041752192995172854    0.04028524780273616    
  0.039210568596103654    0.03850625590008267    0.03815774663671878    0.038157746636718795    0.03850625590008271    
  0.03921056859610378    0.040285247802736415    0.041752192995173174    0.0436391098573517    0.04597324193891008    
  0.04876935175828731    0.0520152995649431    0.05566064597518255    0.059611762562023565    0.06373345946477103    
  0.0678549929736199    0.07177835137456645    0.07528860054915755    0.0781684316249747    0.08021916793859572    
  0.08128681970424519    0.0812868197042451    0.08021916793859572    0.07816843162497462    0.07528860054915763    
  0.07177835137456644    0.06785499297361976    0.0637334594647708    0.05961176256202319    0.055660645975182034    
  0.05201529956494252    0.048769351758286686    0.04597324193890954    0.043639109857351296    0.041752192995172854    
  0.04519919012991505    0.04363910985735125    0.0424682162673804    0.04165346721310854    0.04117253650549946    
  0.041013451751741994    0.04117253650549951    0.04165346721310865    0.04246821626738056    0.04363910985735149    
  0.045199190129915384    0.047186781251161054    0.04963268818961019    0.05254391714687555    0.055890717656750605    
  0.05960103624584771    0.06356148117182306    0.06762158212901241    0.07159934598057854    0.07528860054915763    
  0.0784705729875757    0.08093235734801477    0.08249219555229946    0.0830267336500652    0.08249219555229949    
  0.08093235734801475    0.07847057298757569    0.07528860054915763    0.07159934598057846    0.06762158212901222    
  0.0635614811718228    0.05960103624584737    0.055890717656750105    0.052543917146875015    0.04963268818960968    
  0.04718678125116062    0.04519919012991505    0.04878949697213034    0.04718678125116056    0.045973241938909504    
  0.045102144903523475    0.04453819511543475    0.04426065151513964    0.04426065151513967    0.04453819511543479    
  0.04510214490352355    0.04597324193890966    0.047186781251160825    0.048789496972130655    0.05082735971971045    
  0.05332751817585067    0.05628263326219807    0.05964375528991616    0.0633210192848288    0.06718724437020783    
  0.07108130107532251    0.07481235100863194    0.07816843162497474    0.08093235734801484    0.08290518593219295    
  0.08393348425675805    0.08393348425675808    0.08290518593219294    0.08093235734801477    0.07816843162497472    
  0.0748123510086319    0.07108130107532237    0.06718724437020762    0.06332101928482854    0.05964375528991587    
  0.0562826332621976    0.05332751817585023    0.05082735971971005    0.04878949697213034    0.05241158406932204    
  0.05082735971970993    0.049632688189609565    0.0487693517582866    0.048186040496886226    0.04784797663343388    
  0.04773706716336824    0.04784797663343393    0.048186040496886254    0.048769351758286686    0.04963268818960967    
  0.0508273597197102    0.05241158406932229    0.054432272460107976    0.05690641957670091    0.05981080309410411    
  0.06308141216093152    0.06661695383517653    0.07028111596042652    0.07390404429463449    0.0772877043940311    
  0.08021916793859579    0.08249219555229952    0.08393348425675809    0.0844274400178319    0.08393348425675803    
  0.08249219555229949    0.08021916793859574    0.07728770439403106    0.07390404429463442    0.07028111596042638    
  0.0666169538351764    0.0630814121609313    0.05981080309410387    0.056906419576700604    0.05443227246010772    
  0.05241158406932204    0.055922226834310404    0.05443227246010757    0.053327518175850054    0.05254391714687483    
  0.05201529956494227    0.05168938156031735    0.051533702937184296    0.05153370293718425    0.05168938156031742    
  0.05201529956494226    0.05254391714687488    0.05332751817585016    0.05443227246010777    0.055922226834310626    
  0.05783915314449224    0.06018822636149303    0.0629343436790072    0.06600487355800487    0.06929169104207346    
  0.07265081094680412    0.07590449580588689    0.07885151835792939    0.0812868197042452    0.08302673365006527    
  0.08393348425675813    0.08393348425675812    0.08302673365006524    0.0812868197042452    0.07885151835792935    
  0.07590449580588675    0.07265081094680405    0.0692916910420733    0.06600487355800473    0.06293434367900698    
  0.060188226361492875    0.05783915314449201    0.055922226834310404    0.05914556776779447    0.057839153144491756    
  0.05690641957670031    0.05628263326219728    0.0558907176567497    0.05566064597518159    0.05554166469826056    
  0.05550502363856939    0.05554166469826058    0.05566064597518157    0.05589071765674968    0.05628263326219727    
  0.05690641957670038    0.057839153144491944    0.0591455677677946    0.06086040593300118    0.06298021683345197    
  0.06546378320099941    0.06823399916213338    0.07117679787645809    0.0741405087562813    0.07694255669001852    
  0.07938661056830319    0.08128681970424527    0.08249219555229956    0.08290518593219304    0.08249219555229952    
  0.08128681970424523    0.07938661056830311    0.07694255669001841    0.07414050875628113    0.071176797876458    
  0.06823399916213328    0.06546378320099927    0.0629802168334518    0.0608604059330011    0.05914556776779447    
  0.061890787695647625    0.060860405933000856    0.06018822636149253    0.05981080309410341    0.05964375528991535    
  0.05960103624584675    0.0596117625620226    0.05962858377495934    0.059628583774959325    0.05961176256202246    
  0.05960103624584668    0.05964375528991527    0.05981080309410337    0.06018822636149255    0.06086040593300095    
  0.06189078769564766    0.06330892802817352    0.06510701770466827    0.06724087835728072    0.06962912246807382    
  0.0721508845259363    0.07464879613437839    0.07694255669001854    0.07885151835792938    0.08021916793859579    
  0.08093235734801482    0.0809323573480148    0.08021916793859575    0.0788515183579293    0.07694255669001838    
  0.07464879613437819    0.07215088452593618    0.06962912246807376    0.06724087835728064    0.06510701770466817    
  0.06330892802817345    0.061890787695647625    0.0639828958871172    0.0633089280281731    0.06298021683345142    
  0.06293434367900642    0.06308141216093062    0.06332101928482779    0.06356148117182202    0.06373345946476995    
  0.06379534579804592    0.06373345946476988    0.06356148117182185    0.06332101928482764    0.06308141216093052    
  0.06293434367900635    0.06298021683345142    0.06330892802817316    0.06398289588711727    0.06502865564841129    
  0.06643575171762987    0.06815653285995742    0.07010382060786964    0.07215088452593629    0.0741405087562813    
  0.07590449580588689    0.07728770439403114    0.07816843162497475    0.07847057298757573    0.0781684316249747    
  0.07728770439403101    0.07590449580588673    0.07414050875628109    0.07215088452593617    0.0701038206078696    
  0.0681565328599574    0.06643575171762987    0.06502865564841126    0.0639828958871172    0.06528983615449255    
  0.06502865564841094    0.0651070177046677    0.06546378320099862    0.06600487355800388    0.06661695383517548    
  0.06718724437020664    0.0676215821290112    0.06785499297361873    0.06785499297361863    0.06762158212901113    
  0.06718724437020651    0.06661695383517534    0.06600487355800377    0.06546378320099856    0.06510701770466762    
  0.06502865564841104    0.06528983615449262    0.06591408266350718    0.06688725040876914    0.0681565328599575    
  0.06962912246807387    0.07117679787645811    0.07265081094680415    0.07390404429463454    0.07481235100863196    
  0.07528860054915767    0.07528860054915762    0.07481235100863186    0.07390404429463436    0.07265081094680398    
  0.07117679787645795    0.06962912246807378    0.06815653285995739    0.06688725040876917    0.06591408266350725    
  0.06528983615449255    0.06573383200939757    0.0659140826635069    0.06643575171762929    0.06724087835727986    
  0.06823399916213234    0.06929169104207228    0.07028111596042531    0.07108130107532126    0.07159934598057736    
  0.07177835137456522    0.07159934598057723    0.07108130107532114    0.07028111596042518    0.06929169104207215    
  0.06823399916213223    0.06724087835727979    0.06643575171762929    0.06591408266350693    0.06573383200939754    
  0.06591408266350716    0.06643575171762989    0.06724087835728072    0.06823399916213338    0.0692916910420734    
  0.07028111596042654    0.07108130107532247    0.07159934598057857    0.07177835137456644    0.07159934598057846    
  0.07108130107532235    0.07028111596042634    0.06929169104207325    0.06823399916213328    0.06724087835728065    
  0.06643575171762992    0.06591408266350725    0.06573383200939757    0.06528983615449266    0.0659140826635069    
  0.06688725040876857    0.06815653285995663    0.06962912246807282    0.07117679787645692    0.07265081094680291    
  0.07390404429463329    0.07481235100863078    0.07528860054915641    0.0752886005491564    0.07481235100863061    
  0.07390404429463314    0.07265081094680274    0.07117679787645677    0.06962912246807262    0.06815653285995656    
  0.06688725040876863    0.06591408266350693    0.06528983615449255    0.06502865564841129    0.06510701770466829    
  0.06546378320099942    0.06600487355800486    0.0666169538351766    0.06718724437020779    0.06762158212901241    
  0.06785499297361991    0.06785499297361984    0.0676215821290123    0.06718724437020762    0.06661695383517639    
  0.06600487355800477    0.06546378320099933    0.06510701770466829    0.06502865564841137    0.06528983615449266    
  0.0639828958871174    0.06502865564841104    0.06643575171762935    0.0681565328599566    0.07010382060786859    
  0.07215088452593506    0.07414050875628002    0.07590449580588562    0.07728770439402989    0.07816843162497347    
  0.07847057298757454    0.07816843162497347    0.0772877043940298    0.07590449580588543    0.07414050875627978    
  0.07215088452593489    0.0701038206078685    0.06815653285995661    0.0664357517176293    0.06502865564841097    
  0.06398289588711732    0.06330892802817353    0.06298021683345198    0.06293434367900719    0.06308141216093159    
  0.0633210192848288    0.06356148117182304    0.06373345946477105    0.06379534579804706    0.06373345946477095    
  0.06356148117182293    0.06332101928482865    0.06308141216093142    0.06293434367900713    0.06298021683345202    
  0.06330892802817363    0.0639828958871174    0.0618907876956479    0.06330892802817331    0.0651070177046678    
  0.06724087835727993    0.06962912246807276    0.07215088452593504    0.07464879613437703    0.07694255669001722    
  0.07885151835792818    0.08021916793859457    0.08093235734801364    0.08093235734801363    0.08021916793859452    
  0.07885151835792802    0.07694255669001707    0.07464879613437678    0.07215088452593495    0.06962912246807271    
  0.06724087835727986    0.0651070177046677    0.06330892802817324    0.061890787695647764    0.06086040593300125    
  0.06018822636149309    0.05981080309410421    0.05964375528991621    0.05960103624584776    0.0596117625620236    
  0.05962858377496039    0.059628583774960345    0.059611762562023496    0.05960103624584763    0.05964375528991616    
  0.05981080309410413    0.060188226361493166    0.06086040593300141    0.0618907876956479    0.05914556776779481    
  0.06086040593300112    0.06298021683345158    0.06546378320099867    0.06823399916213235    0.07117679787645688    
  0.07414050875628    0.07694255669001719    0.079386610568302    0.08128681970424405    0.08249219555229835    
  0.08290518593219184    0.08249219555229836    0.08128681970424398    0.07938661056830182    0.07694255669001701    
  0.07414050875627984    0.07117679787645681    0.0682339991621323    0.06546378320099856    0.06298021683345148    
  0.060860405933000995    0.05914556776779465    0.05783915314449221    0.05690641957670091    0.05628263326219802    
  0.055890717656750535    0.05566064597518251    0.055541664698261516    0.05550502363857035    0.05554166469826147    
  0.05566064597518247    0.0558907176567505    0.05628263326219801    0.05690641957670098    0.05783915314449241    
  0.05914556776779481    0.05592222683431085    0.05783915314449217    0.060188226361492785    0.0629343436790066    
  0.06600487355800393    0.06929169104207226    0.07265081094680284    0.07590449580588553    0.07885151835792813    
  0.08128681970424402    0.08302673365006413    0.08393348425675694    0.08393348425675695    0.08302673365006408    
  0.08128681970424394    0.07885151835792793    0.07590449580588543    0.07265081094680279    0.0692916910420722    
  0.06600487355800375    0.06293434367900642    0.06018822636149257    0.057839153144491916    0.05592222683431059    
  0.054432272460107976    0.053327518175850616    0.05254391714687554    0.05201529956494305    0.05168938156031822    
  0.051533702937185163    0.051533702937185115    0.05168938156031821    0.05201529956494305    0.052543917146875514    
  0.053327518175850706    0.05443227246010821    0.05592222683431085    0.052411584069322566    0.05443227246010806    
  0.0569064195767007    0.05981080309410367    0.06308141216093077    0.06661695383517548    0.07028111596042527    
  0.07390404429463322    0.07728770439402988    0.08021916793859456    0.08249219555229836    0.08393348425675698    
  0.08442744001783081    0.08393348425675692    0.08249219555229832    0.08021916793859449    0.07728770439402978    
  0.07390404429463314    0.0702811159604252    0.06661695383517528    0.06308141216093054    0.05981080309410343    
  0.05690641957670036    0.054432272460107685    0.05241158406932226    0.05082735971971036    0.04963268818961012    
  0.04876935175828729    0.04818604049688696    0.04784797663343465    0.047737067163369    0.04784797663343467    
  0.048186040496886955    0.0487693517582873    0.049632688189610245    0.05082735971971065    0.052411584069322566    
  0.04878949697213099    0.050827359719710516    0.05332751817585057    0.05628263326219769    0.05964375528991561    
  0.06332101928482789    0.06718724437020668    0.07108130107532126    0.07481235100863078    0.0781684316249735    
  0.08093235734801367    0.08290518593219186    0.08393348425675694    0.08393348425675692    0.08290518593219184    
  0.08093235734801357    0.07816843162497349    0.07481235100863065    0.07108130107532114    0.06718724437020644    
  0.06332101928482765    0.05964375528991526    0.05628263326219725    0.0533275181758501    0.05082735971971017    
  0.04878949697213061    0.047186781251161    0.045973241938910045    0.045102144903524134    0.04453819511543541    
  0.04426065151514034    0.044260651515140345    0.044538195115435456    0.045102144903524106    0.04597324193891019    
  0.0471867812511613    0.04878949697213099    0.045199190129915724    0.047186781251161214    0.04963268818961017    
  0.052543917146875355    0.05589071765675011    0.05960103624584708    0.06356148117182216    0.0676215821290113    
  0.07159934598057734    0.07528860054915644    0.07847057298757452    0.08093235734801364    0.08249219555229839    
  0.08302673365006413    0.08249219555229838    0.08093235734801357    0.07847057298757455    0.07528860054915638    
  0.07159934598057725    0.0676215821290111    0.06356148117182187    0.05960103624584668    0.05589071765674967    
  0.05254391714687479    0.04963268818960964    0.04718678125116078    0.045199190129915356    0.04363910985735173    
  0.04246821626738093    0.04165346721310914    0.04117253650550006    0.041013451751742605    0.04117253650550012    
  0.041653467213109176    0.042468216267381065    0.043639109857351956    0.045199190129915724    0.04175219299517349    
  0.04363910985735191    0.04597324193891014    0.048769351758287255    0.052015299564942795    0.05566064597518202    
  0.0596117625620229    0.0637334594647701    0.06785499297361884    0.07177835137456529    0.07528860054915645    
  0.07816843162497351    0.08021916793859458    0.08128681970424409    0.0812868197042441    0.08021916793859456    
  0.07816843162497353    0.07528860054915645    0.07177835137456522    0.06785499297361862    0.06373345946476985    
  0.05961176256202246    0.05566064597518152    0.05201529956494222    0.04876935175828666    0.0459732419389096    
  0.04363910985735147    0.04175219299517319    0.040285247802736575    0.03921056859610412    0.038506255900083164    
  0.038157746636719295    0.03815774663671932    0.038506255900083206    0.03921056859610425    0.04028524780273682    
  0.04175219299517349    0.038538064637106635    0.04028524780273678    0.042468216267381065    0.045102144903524134    
  0.048186040496886864    0.051689381560317944    0.05554166469826105    0.05962858377495973    0.06379534579804615    
  0.06785499297361881    0.07159934598057739    0.07481235100863073    0.07728770439402988    0.07885151835792811    
  0.07938661056830196    0.07885151835792813    0.07728770439402985    0.07481235100863073    0.07159934598057731    
  0.06785499297361865    0.06379534579804587    0.05962858377495929    0.05554166469826046    0.05168938156031735    
  0.048186040496886254    0.045102144903523524    0.042468216267380524    0.040285247802736436    0.03853806463710637    
  0.03720653036015678    0.036271686560857205    0.03571798040403888    0.035534714057229896    0.035717980404038896    
  0.0362716865608573    0.03720653036015698    0.038538064637106635    0.03562971715577985    0.03720653036015695    
  0.0392105685961043    0.041653467213109224    0.044538195115435435    0.047847976633434555    0.05153370293718489    
  0.055505023638569836    0.05962858377495974    0.06373345946477015    0.06762158212901134    0.07108130107532126    
  0.07390404429463326    0.07590449580588562    0.07694255669001722    0.07694255669001722    0.07590449580588558    
  0.07390404429463328    0.07108130107532126    0.06762158212901118    0.06373345946476994    0.05962858377495934    
  0.05550502363856932    0.05153370293718423    0.04784797663343393    0.04453819511543476    0.041653467213108634    
  0.03921056859610387    0.03720653036015666    0.03562971715577964    0.034466059301694385    0.03370131349845565    
  0.03332284389474327    0.03332284389474324    0.03370131349845573    0.034466059301694565    0.03562971715577985    
  0.033081061266987274    0.034466059301694565    0.03627168656085736    0.038506255900083296    0.04117253650550015    
  0.04426065151514033    0.047737067163368924    0.05153370293718491    0.055541664698261085    0.059611762562022906    
  0.06356148117182218    0.06718724437020673    0.07028111596042531    0.07265081094680284    0.07414050875628002    
  0.07464879613437696    0.07414050875628    0.07265081094680291    0.0702811159604253    0.06718724437020655    
  0.06356148117182198    0.05961176256202253    0.05554166469826051    0.051533702937184275    0.047737067163368216    
  0.044260651515139665    0.041172536505499534    0.03850625590008278    0.03627168656085698    0.03446605930169428    
  0.03308106126698707    0.03210560699876941    0.03152737307161501    0.03133600511204711    0.03152737307161509    
  0.032105606998769534    0.033081061266987274    0.030923702201895224    0.03210560699876953    0.03370131349845579    
  0.035717980404039035    0.03815774663671941    0.04101345175174267    0.044260651515140394    0.047847976633434576    
  0.05168938156031802    0.05566064597518208    0.05960103624584714    0.06332101928482801    0.06661695383517556    
  0.0692916910420723    0.0711767978764569    0.072150884525935    0.07215088452593507    0.07117679787645692    
  0.06929169104207228    0.06661695383517538    0.06332101928482775    0.05960103624584676    0.05566064597518157    
  0.05168938156031737    0.04784797663343393    0.04426065151513967    0.04101345175174203    0.03815774663671887    
  0.035717980404038584    0.033701313498455454    0.032105606998769305    0.03092370220189512    0.03014534284415513    
  0.029759737747428187    0.02975973774742828    0.03014534284415524    0.030923702201895224    0.029169151658692317    
  0.030145342844155227    0.03152737307161513    0.03332284389474339    0.03553471405722997    0.038157746636719406    
  0.04117253650550019    0.04453819511543547    0.04818604049688697    0.05201529956494288    0.055890717656750175    
  0.05964375528991568    0.06308141216093079    0.06600487355800393    0.06823399916213231    0.06962912246807273    
  0.07010382060786857    0.06962912246807272    0.06823399916213234    0.06600487355800377    0.06308141216093059    
  0.05964375528991531    0.055890717656749696    0.05201529956494228    0.04818604049688629    0.04453819511543476    
  0.04117253650549951    0.03815774663671885    0.035534714057229494    0.033322843894743034    0.03152737307161486    
  0.030145342844155074    0.029169151658692234    0.028589125705081552    0.028396900006796472    0.028589125705081674    
  0.029169151658692317    0.027816012909534043    0.028589125705081656    0.02975973774742833    0.03133600511204724    
  0.033322843894743374    0.035717980404039035    0.03850625590008331    0.041653467213109245    0.04510214490352418    
  0.04876935175828727    0.052543917146875375    0.056282633262197755    0.05981080309410371    0.0629343436790066    