#     DFTpy    
  CRYSTAL 
    
  PRIMVEC    
  1.0938059434966902    -1.8945274677570805    0.0    
  1.0938059434966902    1.8945274677570805    0.0    
  0.0    0.0    3.6982485733103405    
  PRIMCOORD    
  2    1    
  Si    1.0938059434966902    0.6315091559190301    0.9245621433275902    
  Si    1.0938059434966902    -0.6315091559190301    2.773686429982761    
  BEGIN_BLOCK_DATAGRID_3D    
  3d_datagrid_density    
  BEGIN_DATAGRID_3D#0    
  25    25    37    
  0.0    0.0    0.0    
  1.0938059475766073    -1.894527474823704    0.0    
  1.0938059475766073    1.894527474823704    0.0    
  0.0    0.0    3.6982485871048785    
  0.38299866454304454    0.3863665342935901    0.39630091830576974    0.41229896633787644    0.4335256531418556    
  0.458789018135215    0.4864975358778853    0.5146696340286154    0.5410924536900596    0.5636497790455942    
  0.5806863590521878    0.591196037601097    0.5947354342054159    0.591196037601096    0.5806863590521861    
  0.563649779045592    0.5410924536900569    0.5146696340286127    0.4864975358778825    0.4587890181352127    
  0.4335256531418536    0.41229896633787505    0.3963009183057688    0.38636653429358964    0.38299866454304454    
  0.38636653429358964    0.38636653429358975    0.3930160408315415    0.405971250820581    0.42455556978118414    
  0.44775612206989124    0.4741892834149477    0.5020730538348865    0.52930104802904    0.5536914977265461    
  0.5733554441498744    0.5869910889762108    0.5939260182838227    0.5939260182838224    0.5869910889762096    
  0.5733554441498725    0.5536914977265437    0.5293010480290371    0.5020730538348838    0.47418928341494526    
  0.4477561220698892    0.4245555697811824    0.4059712508205798    0.3930160408315408    0.38636653429358964    
  0.39630091830576875    0.39301604083154107    0.3963009183057691    0.4059712508205807    0.421489443502212    
  0.4419896143049696    0.46627406954865114    0.4927814402352761    0.5195993185958877    0.544622263922158    
  0.5658717172862855    0.5818401586374162    0.591650964477105    0.5949473667594778    0.5916509644771041    
  0.5818401586374149    0.5658717172862836    0.5446222639221558    0.5195993185958852    0.49278144023527365    
  0.466274069548649    0.44198961430496775    0.4214894435022107    0.4059712508205799    0.39630091830576875    
  0.41229896633787505    0.4059712508205801    0.40597125082058017    0.4122989663378755    0.42455556978118336    
  0.44198961430496914    0.4635400175577856    0.48783555541498164    0.5131839295827647    0.5376517356733533    
  0.5593070497931242    0.5765579571403476    0.5883934003442749    0.5943673620664934    0.5943673620664931    
  0.588393400344274    0.5765579571403463    0.5593070497931226    0.5376517356733512    0.5131839295827625    
  0.48783555541497936    0.46354001755778396    0.4419896143049678    0.4245555697811824    0.41229896633787505    
  0.4335256531418537    0.42455556978118264    0.4214894435022111    0.42455556978118303    0.43352565314185415    
  0.44775612206989013    0.46627406954865025    0.48783555541498114    0.5109361443315363    0.533846911032962    
  0.5547771304254895    0.5721671035831984    0.5849643604651196    0.5926927492906657    0.5952638630182504    
  0.5926927492906655    0.5849643604651187    0.5721671035831974    0.554777130425488    0.5338469110329602    
  0.5109361443315346    0.48783555541497947    0.4662740695486491    0.4477561220698892    0.4335256531418537    
  0.45878901813521294    0.4477561220698897    0.4419896143049684    0.4419896143049686    0.44775612206989    
  0.4587890181352135    0.4741892834149465    0.49278144023527515    0.5131839295827642    0.5338469110329618    
  0.5531558240210176    0.5696603006361253    0.5823463920392074    0.5907677131540175    0.5949167964088555    
  0.5949167964088553    0.5907677131540173    0.5823463920392066    0.5696603006361243    0.5531558240210166    
  0.5338469110329603    0.5131839295827627    0.4927814402352739    0.4741892834149455    0.45878901813521294    
  0.4864975358778831    0.47418928341494593    0.4662740695486498    0.46354001755778496    0.4662740695486501    
  0.4741892834149464    0.48649753587788347    0.5020730538348851    0.5195993185958865    0.5376517356733526    
  0.554777130425489    0.5696603006361248    0.5813655372447447    0.5895060323622153    0.5941832465942517    
  0.5956928471729775    0.5941832465942517    0.5895060323622152    0.5813655372447444    0.5696603006361244    
  0.5547771304254884    0.5376517356733518    0.5195993185958857    0.5020730538348842    0.4864975358778831    
  0.5146696340286133    0.5020730538348848    0.49278144023527465    0.4878355554149806    0.4878355554149807    
  0.4927814402352749    0.5020730538348851    0.5146696340286137    0.5293010480290382    0.5446222639221566    
  0.5593070497931232    0.5721671035831977    0.5823463920392068    0.5895060323622151    0.5938352548970047    
  0.5958097605288518    0.5958097605288519    0.5938352548970048    0.5895060323622151    0.5823463920392066    
  0.5721671035831976    0.5593070497931228    0.5446222639221561    0.5293010480290379    0.5146696340286133    
  0.5410924536900577    0.5293010480290381    0.5195993185958864    0.5131839295827637    0.5109361443315358    
  0.5131839295827638    0.5195993185958865    0.5293010480290383    0.5410924536900579    0.5536914977265446    
  0.5658717172862839    0.5765579571403464    0.5849643604651188    0.5907677131540168    0.5941832465942514    
  0.5958097605288517    0.5962654747283914    0.5958097605288518    0.5941832465942515    0.5907677131540172    
  0.5849643604651187    0.5765579571403464    0.5658717172862839    0.5536914977265445    0.5410924536900577    
  0.5636497790455928    0.5536914977265445    0.5446222639221566    0.5376517356733526    0.5338469110329614    
  0.5338469110329616    0.5376517356733526    0.544622263922157    0.5536914977265448    0.5636497790455928    
  0.573355444149873    0.5818401586374149    0.5883934003442737    0.5926927492906648    0.5949167964088548    
  0.5956928471729771    0.5958097605288517    0.5958097605288516    0.5956928471729772    0.5949167964088551    
  0.5926927492906653    0.5883934003442739    0.5818401586374152    0.5733554441498729    0.5636497790455928    
  0.5806863590521869    0.5733554441498732    0.5658717172862842    0.5593070497931234    0.554777130425489    
  0.5531558240210175    0.554777130425489    0.5593070497931236    0.5658717172862846    0.5733554441498733    
  0.5806863590521867    0.5869910889762097    0.5916509644771037    0.5943673620664925    0.5952638630182495    
  0.5949167964088546    0.5941832465942511    0.5938352548970045    0.5941832465942511    0.5949167964088552    
  0.59526386301825    0.5943673620664928    0.5916509644771041    0.58699108897621    0.5806863590521869    
  0.5911960376010965    0.5869910889762101    0.5818401586374153    0.5765579571403469    0.5721671035831981    
  0.5696603006361252    0.569660300636125    0.5721671035831982    0.5765579571403472    0.5818401586374157    
  0.5869910889762101    0.5911960376010964    0.5939260182838222    0.594947366759477    0.5943673620664924    
  0.592692749290665    0.5907677131540168    0.5895060323622149    0.5895060323622149    0.590767713154017    
  0.5926927492906654    0.5943673620664929    0.5949473667594776    0.5939260182838224    0.5911960376010965    
  0.5947354342054159    0.5939260182838224    0.5916509644771042    0.5883934003442742    0.5849643604651192    
  0.5823463920392072    0.5813655372447452    0.5823463920392074    0.5849643604651196    0.5883934003442747    
  0.5916509644771046    0.5939260182838224    0.5947354342054159    0.5939260182838221    0.5916509644771041    
  0.5883934003442739    0.5849643604651188    0.5823463920392065    0.5813655372447444    0.5823463920392066    
  0.5849643604651189    0.5883934003442742    0.5916509644771043    0.5939260182838225    0.5947354342054159    
  0.5911960376010966    0.5939260182838224    0.5949473667594776    0.5943673620664931    0.5926927492906656    
  0.5907677131540175    0.5895060323622157    0.5895060323622159    0.5907677131540179    0.592692749290666    
  0.5943673620664935    0.5949473667594781    0.5939260182838226    0.5911960376010965    0.5869910889762101    
  0.5818401586374152    0.5765579571403469    0.5721671035831978    0.5696603006361246    0.5696603006361247    
  0.572167103583198    0.576557957140347    0.5818401586374156    0.5869910889762103    0.5911960376010966    
  0.5806863590521874    0.5869910889762106    0.5916509644771044    0.5943673620664933    0.5952638630182504    
  0.5949167964088556    0.5941832465942521    0.5938352548970053    0.5941832465942524    0.594916796408856    
  0.5952638630182508    0.5943673620664935    0.5916509644771049    0.5869910889762106    0.5806863590521872    
  0.5733554441498734    0.5658717172862844    0.5593070497931235    0.554777130425489    0.5531558240210174    
  0.554777130425489    0.5593070497931236    0.5658717172862847    0.5733554441498737    0.5806863590521874    
  0.5636497790455935    0.5733554441498738    0.5818401586374158    0.5883934003442743    0.5926927492906657    
  0.5949167964088556    0.5956928471729781    0.5958097605288525    0.5958097605288527    0.5956928471729782    
  0.5949167964088559    0.5926927492906658    0.5883934003442748    0.581840158637416    0.5733554441498738    
  0.5636497790455934    0.5536914977265452    0.5446222639221572    0.5376517356733528    0.5338469110329617    
  0.5338469110329617    0.537651735673353    0.5446222639221573    0.5536914977265454    0.5636497790455935    
  0.5410924536900588    0.5536914977265456    0.5658717172862849    0.5765579571403474    0.5849643604651192    
  0.5907677131540174    0.5941832465942518    0.5958097605288524    0.5962654747283923    0.5958097605288525    
  0.5941832465942521    0.5907677131540175    0.5849643604651195    0.5765579571403473    0.565871717286285    
  0.5536914977265455    0.5410924536900585    0.5293010480290389    0.5195993185958869    0.5131839295827642    
  0.5109361443315362    0.5131839295827645    0.5195993185958871    0.5293010480290393    0.5410924536900588    
  0.5146696340286151    0.5293010480290397    0.5446222639221578    0.5593070497931242    0.5721671035831987    
  0.5823463920392074    0.5895060323622154    0.5938352548970053    0.5958097605288525    0.5958097605288524    
  0.5938352548970052    0.5895060323622154    0.5823463920392074    0.5721671035831982    0.5593070497931238    
  0.5446222639221573    0.5293010480290392    0.5146696340286143    0.5020730538348859    0.4927814402352757    
  0.4878355554149814    0.4878355554149815    0.49278144023527576    0.5020730538348862    0.5146696340286151    
  0.486497535877885    0.5020730538348865    0.5195993185958878    0.5376517356733537    0.5547771304254898    
  0.5696603006361255    0.5813655372447452    0.5895060323622155    0.5941832465942518    0.5956928471729777    
  0.5941832465942517    0.5895060323622153    0.5813655372447447    0.5696603006361248    0.554777130425489    
  0.537651735673353    0.519599318595887    0.5020730538348859    0.4864975358778843    0.47418928341494704    
  0.46627406954865114    0.463540017557786    0.46627406954865114    0.47418928341494754    0.486497535877885    
  0.458789018135215    0.474189283414948    0.49278144023527665    0.5131839295827654    0.5338469110329628    
  0.5531558240210183    0.5696603006361255    0.5823463920392074    0.5907677131540174    0.5949167964088553    
  0.5949167964088552    0.590767713154017    0.5823463920392068    0.5696603006361245    0.5531558240210172    
  0.5338469110329616    0.5131839295827642    0.4927814402352755    0.474189283414947    0.4587890181352142    
  0.4477561220698908    0.4419896143049696    0.4419896143049697    0.44775612206989124    0.458789018135215    
  0.4335256531418556    0.44775612206989174    0.46627406954865186    0.48783555541498264    0.5109361443315376    
  0.5338469110329628    0.5547771304254899    0.5721671035831987    0.5849643604651193    0.5926927492906656    
  0.5952638630182501    0.592692749290665    0.5849643604651187    0.5721671035831974    0.5547771304254885    
  0.5338469110329612    0.5109361443315358    0.48783555541498097    0.46627406954865047    0.44775612206989057    
  0.4335256531418549    0.4245555697811839    0.42148944350221235    0.4245555697811843    0.4335256531418556    
  0.41229896633787666    0.4245555697811846    0.44198961430497047    0.463540017557787    0.4878355554149828    
  0.5131839295827657    0.537651735673354    0.5593070497931246    0.5765579571403476    0.5883934003442745    
  0.5943673620664931    0.5943673620664925    0.5883934003442737    0.5765579571403462    0.5593070497931227    
  0.537651735673352    0.5131839295827636    0.4878355554149806    0.46354001755778507    0.441989614304969    
  0.4245555697811835    0.4122989663378761    0.405971250820581    0.4059712508205812    0.41229896633787666    
  0.39630091830577    0.40597125082058144    0.4214894435022128    0.44198961430497047    0.466274069548652    
  0.492781440235277    0.5195993185958883    0.5446222639221584    0.5658717172862855    0.581840158637416    
  0.5916509644771044    0.5949473667594773    0.5916509644771037    0.5818401586374147    0.5658717172862834    
  0.544622263922156    0.5195993185958858    0.4927814402352746    0.4662740695486498    0.4419896143049687    
  0.4214894435022116    0.4059712508205806    0.3963009183057694    0.3930160408315419    0.39630091830577    
  0.3863665342935902    0.39301604083154207    0.4059712508205814    0.4245555697811845    0.44775612206989174    
  0.4741892834149482    0.502073053834887    0.5293010480290402    0.5536914977265461    0.5733554441498743    
  0.5869910889762106    0.5939260182838224    0.593926018283822    0.5869910889762096    0.5733554441498725    
  0.5536914977265438    0.5293010480290374    0.5020730538348843    0.47418928341494565    0.4477561220698896    
  0.4245555697811829    0.40597125082058017    0.3930160408315414    0.3863665342935899    0.3863665342935902    
  0.38299866454304454    0.3863665342935901    0.39630091830576974    0.41229896633787644    0.4335256531418556    
  0.458789018135215    0.4864975358778853    0.5146696340286154    0.5410924536900596    0.5636497790455942    
  0.5806863590521878    0.591196037601097    0.5947354342054159    0.591196037601096    0.5806863590521861    
  0.563649779045592    0.5410924536900569    0.5146696340286127    0.4864975358778825    0.4587890181352127    
  0.4335256531418536    0.41229896633787505    0.3963009183057688    0.38636653429358964    0.38299866454304454    
  0.3887697493670604    0.39213825622891874    0.40204886771408055    0.41793548853443674    0.43889416681858245    
  0.4636886454395268    0.49072386113022437    0.5180585455841845    0.5435600246179763    0.565221834837466    
  0.5815089590929948    0.5915213676320323    0.5948867683983533    0.5915213676320316    0.5815089590929933    
  0.5652218348374639    0.5435600246179735    0.5180585455841817    0.4907238611302217    0.4636886454395244    
  0.43889416681858057    0.41793548853443535    0.4020488677140796    0.3921382562289183    0.3887697493670604    
  0.3921382562289183    0.39213825622891846    0.39865366453553125    0.411319888923006    0.4294340727050275    
  0.4519744875482909    0.47758492345615344    0.504551973602    0.5308661698840829    0.554444853968575    
  0.5734731738995398    0.5866847681991877    0.5934110873728937    0.5934110873728932    0.5866847681991865    
  0.5734731738995378    0.5544448539685726    0.53086616988408    0.5045519736019972    0.4775849234561511    
  0.45197448754828884    0.4294340727050257    0.4113198889230048    0.3986536645355305    0.3921382562289183    
  0.40204886771407955    0.3988981268663839    0.4020488677140799    0.41131988892300575    0.42618522648268176    
  0.44580743815104473    0.4690475191542062    0.4944421033304865    0.5202060082216882    0.5443556242026284    
  0.5649850212549947    0.5805860787246312    0.5902237509903138    0.5934723941059514    0.5902237509903129    
  0.5805860787246299    0.5649850212549928    0.5443556242026262    0.5202060082216854    0.49444210333048405    
  0.4690475191542042    0.4458074381510429    0.4261852264826803    0.41131988892300486    0.40204886771407955    
  0.4179354885344353    0.4120026931794839    0.41200269317948407    0.4179354885344358    0.4294340727050268    
  0.4458074381510444    0.46608536634202913    0.48902493572926825    0.5130951506401554    0.5365230001658584    
  0.5574790307756886    0.5743712198537673    0.5860906124929383    0.5920544398318874    0.5920544398318871    
  0.5860906124929375    0.5743712198537658    0.557479030775687    0.5365230001658562    0.5130951506401531    
  0.4890249357292661    0.46608536634202713    0.4458074381510428    0.42943407270502576    0.4179354885344353    
  0.43889416681858057    0.43066428269617174    0.4278537529209763    0.430664282696172    0.43889416681858123    
  0.45197448754828995    0.4690475191542056    0.489024935729268    0.5105962759574814    0.532236468506596    
  0.5523059129539364    0.5692776166277184    0.5819949615471625    0.5897936231425834    0.5924114027175459    
  0.5897936231425832    0.5819949615471616    0.5692776166277173    0.5523059129539347    0.5322364685065942    
  0.5105962759574795    0.4890249357292661    0.4690475191542043    0.45197448754828884    0.43889416681858057    
  0.46368864543952454    0.453759560639521    0.4485770972858627    0.44857709728586287    0.4537595606395214    
  0.46368864543952537    0.47758492345615244    0.49444210333048566    0.5130951506401548    0.5322364685065959    
  0.5504585574473887    0.5664015083936018    0.5789782012745714    0.5875367230083527    0.5918319392370208    
  0.5918319392370207    0.5875367230083525    0.5789782012745707    0.5664015083936007    0.5504585574473874    
  0.5322364685065943    0.5130951506401532    0.4944421033304844    0.4775849234561512    0.46368864543952454    
  0.49072386113022215    0.47982280288227375    0.4728176347267865    0.4703983043115868    0.4728176347267869    
  0.4798228028822743    0.4907238611302228    0.5045519736019985    0.520206008221687    0.5365230001658576    
  0.5523059129539358    0.5664015083936014    0.5778665350246127    0.5861352963612938    0.5910436498486811    
  0.5926597366902139    0.5910436498486811    0.5861352963612937    0.5778665350246123    0.5664015083936007    
  0.552305912953935    0.5365230001658566    0.520206008221686    0.5045519736019977    0.49072386113022215    
  0.5180585455841824    0.5070338409444288    0.49888489538675196    0.4945387705935562    0.49453877059355633    
  0.4988848953867524    0.5070338409444293    0.518058545584183    0.5308661698840814    0.5443556242026273    
  0.5574790307756878    0.5692776166277177    0.578978201274571    0.5861352963612937    0.5906938957132092    
  0.5928658955464359    0.592865895546436    0.5906938957132093    0.5861352963612935    0.5789782012745707    
  0.5692776166277174    0.5574790307756871    0.5443556242026264    0.5308661698840806    0.5180585455841824    
  0.5435600246179741    0.5333083413726494    0.5247988715087261    0.5191303509426806    0.5171363390635817    
  0.5191303509426808    0.5247988715087264    0.5333083413726498    0.5435600246179748    0.5544448539685738    
  0.5649850212549935    0.5743712198537663    0.5819949615471616    0.5875367230083522    0.5910436498486809    
  0.5928658955464358    0.5934133727662609    0.5928658955464359    0.5910436498486809    0.5875367230083524    
  0.5819949615471615    0.5743712198537658    0.5649850212549932    0.5544448539685732    0.5435600246179741    
  0.5652218348374646    0.5565639808053999    0.5484953633345045    0.5421798742216487    0.5386941222149011    
  0.5386941222149012    0.542179874221649    0.5484953633345051    0.5565639808054005    0.565221834837465    
  0.5734731738995386    0.5805860787246302    0.5860906124929375    0.5897936231425828    0.5918319392370202    
  0.5926597366902134    0.5928658955464358    0.5928658955464358    0.5926597366902135    0.5918319392370203    
  0.589793623142583    0.5860906124929373    0.5805860787246301    0.5734731738995383    0.5652218348374646    
  0.5815089590929939    0.575087590338353    0.5681803831697598    0.5618900586483215    0.5574486435403453    
  0.5558420904965303    0.5574486435403454    0.561890058648322    0.5681803831697606    0.5750875903383535    
  0.5815089590929942    0.586684768199187    0.5902237509903129    0.5920544398318868    0.5924114027175452    
  0.5918319392370202    0.5910436498486807    0.590693895713209    0.5910436498486807    0.5918319392370205    
  0.5924114027175456    0.5920544398318869    0.5902237509903129    0.5866847681991868    0.5815089590929939    
  0.591521367632032    0.5877939555491084    0.5826543356074181    0.5770185444329297    0.572158806820817    
  0.5693351247346213    0.5693351247346213    0.5721588068208173    0.5770185444329303    0.5826543356074185    
  0.5877939555491088    0.5915213676320322    0.5934110873728933    0.593472394105951    0.5920544398318869    
  0.589793623142583    0.587536723008352    0.5861352963612934    0.5861352963612934    0.5875367230083522    
  0.589793623142583    0.592054439831887    0.5934723941059512    0.5934110873728932    0.591521367632032    
  0.5948867683983532    0.594206577746592    0.5913866037527294    0.5870384057170309    0.5823389263994637    
  0.578720840009732    0.5773628920268586    0.5787208400097321    0.5823389263994642    0.5870384057170317    
  0.5913866037527303    0.5942065777465925    0.5948867683983536    0.5934110873728933    0.590223750990313    
  0.5860906124929376    0.5819949615471616    0.5789782012745707    0.5778665350246123    0.5789782012745707    
  0.5819949615471617    0.5860906124929377    0.5902237509903131    0.5934110873728934    0.5948867683983532    
  0.5915213676320322    0.5942065777465921    0.5942897934625428    0.591965198243094    0.5881577136616665    
  0.58431945652832    0.5819336424468472    0.5819336424468475    0.5843194565283205    0.5881577136616671    
  0.5919651982430948    0.5942897934625436    0.5942065777465927    0.5915213676320323    0.5866847681991872    
  0.5805860787246304    0.5743712198537665    0.5692776166277178    0.5664015083936011    0.5664015083936013    
  0.569277616627718    0.5743712198537665    0.5805860787246305    0.5866847681991872    0.5915213676320322    
  0.5815089590929945    0.5877939555491088    0.5913866037527298    0.5919651982430941    0.5900294456907793    
  0.5868425573742362    0.5840205586614233    0.5829066136829929    0.5840205586614238    0.5868425573742367    
  0.59002944569078    0.5919651982430948    0.5913866037527304    0.5877939555491091    0.5815089590929945    
  0.5734731738995391    0.5649850212549938    0.5574790307756881    0.5523059129539358    0.5504585574473884    
  0.5523059129539359    0.5574790307756882    0.5649850212549941    0.5734731738995389    0.5815089590929945    
  0.5652218348374655    0.5750875903383537    0.5826543356074184    0.587038405717031    0.5881577136616664    
  0.5868425573742361    0.5845845140941371    0.5829563746633607    0.5829563746633609    0.5845845140941374    
  0.5868425573742366    0.588157713661667    0.5870384057170317    0.582654335607419    0.5750875903383539    
  0.5652218348374655    0.5544448539685743    0.5443556242026277    0.5365230001658579    0.5322364685065957    
  0.5322364685065958    0.5365230001658581    0.5443556242026278    0.5544448539685742    0.5652218348374655    
  0.5435600246179756    0.5565639808054009    0.5681803831697607    0.57701854443293    0.5823389263994636    
  0.5843194565283198    0.5840205586614231    0.5829563746633606    0.582431275810395    0.5829563746633607    
  0.5840205586614234    0.5843194565283202    0.5823389263994642    0.5770185444329303    0.5681803831697609    
  0.5565639808054009    0.5435600246179755    0.530866169884082    0.5202060082216875    0.513095150640155    
  0.5105962759574814    0.5130951506401551    0.5202060082216875    0.5308661698840823    0.5435600246179756    
  0.5180585455841842    0.5333083413726508    0.5484953633345058    0.5618900586483223    0.5721588068208173    
  0.578720840009732    0.581933642446847    0.5829066136829926    0.5829563746633606    0.5829563746633606    
  0.5829066136829927    0.5819336424468472    0.5787208400097322    0.5721588068208172    0.5618900586483222    
  0.5484953633345054    0.5333083413726507    0.5180585455841837    0.5045519736019993    0.49444210333048616    
  0.48902493572926825    0.48902493572926825    0.4944421033304862    0.5045519736019997    0.5180585455841842    
  0.4907238611302241    0.5070338409444305    0.5247988715087275    0.5421798742216499    0.5574486435403461    
  0.5693351247346214    0.5773628920268585    0.5819336424468469    0.5840205586614231    0.5845845140941368    
  0.584020558661423    0.5819336424468469    0.5773628920268584    0.5693351247346211    0.5574486435403454    
  0.5421798742216493    0.524798871508727    0.50703384094443    0.49072386113022354    0.477584923456153    
  0.46904751915420634    0.4660853663420294    0.4690475191542062    0.4775849234561534    0.4907238611302241    
  0.4636886454395268    0.4798228028822759    0.4988848953867538    0.5191303509426821    0.5386941222149022    
  0.555842090496531    0.5693351247346216    0.578720840009732    0.5843194565283198    0.5868425573742359    
  0.5868425573742356    0.5843194565283194    0.5787208400097316    0.5693351247346208    0.55584209049653    
  0.5386941222149012    0.519130350942681    0.49888489538675285    0.47982280288227497    0.46368864543952604    
  0.45197448754829056    0.44580743815104484    0.44580743815104473    0.4519744875482911    0.4636886454395268    
  0.4388941668185825    0.45375956063952305    0.47281763472678856    0.4945387705935583    0.5171363390635834    
  0.5386941222149023    0.5574486435403461    0.5721588068208172    0.5823389263994636    0.5881577136616662    
  0.5900294456907791    0.5881577136616658    0.5823389263994632    0.5721588068208163    0.5574486435403446    
  0.5386941222149008    0.5171363390635817    0.4945387705935566    0.47281763472678734    0.4537595606395221    
  0.4388941668185819    0.42943407270502737    0.4261852264826821    0.42943407270502765    0.4388941668185825    
  0.417935488534437    0.43066428269617363    0.44857709728586465    0.47039830431158886    0.4945387705935584    
  0.5191303509426825    0.54217987422165    0.5618900586483226    0.5770185444329303    0.5870384057170313    
  0.591965198243094    0.5919651982430935    0.5870384057170304    0.577018544432929    0.5618900586483209    
  0.5421798742216483    0.5191303509426803    0.49453877059355633    0.47039830431158697    0.44857709728586337    
  0.4306642826961726    0.4179354885344364    0.411319888923006    0.41131988892300625    0.417935488534437    
  0.4020488677140808    0.4120026931794853    0.42785375292097794    0.44857709728586465    0.47281763472678867    
  0.49888489538675407    0.524798871508728    0.5484953633345062    0.5681803831697612    0.5826543356074186    
  0.5913866037527298    0.5942897934625426    0.5913866037527291    0.5826543356074174    0.5681803831697593    
  0.5484953633345039    0.5247988715087256    0.49888489538675185    0.4728176347267866    0.44857709728586287    
  0.42785375292097677    0.41200269317948446    0.40204886771408027    0.3986536645355315    0.4020488677140808    
  0.39213825622891885    0.39889812686638476    0.4120026931794853    0.4306642826961735    0.45375956063952305    
  0.47982280288227597    0.507033840944431    0.5333083413726514    0.5565639808054015    0.5750875903383541    
  0.5877939555491088    0.5942065777465921    0.5942065777465918    0.5877939555491077    0.5750875903383523    
  0.5565639808053991    0.5333083413726487    0.5070338409444284    0.4798228028822736    0.453759560639521    
  0.430664282696172    0.41200269317948407    0.39889812686638415    0.3921382562289186    0.39213825622891885    
  0.3887697493670604    0.39213825622891874    0.40204886771408055    0.41793548853443674    0.43889416681858245    
  0.4636886454395268    0.49072386113022437    0.5180585455841845    0.5435600246179763    0.565221834837466    
  0.5815089590929948    0.5915213676320323    0.5948867683983533    0.5915213676320316    0.5815089590929933    
  0.5652218348374639    0.5435600246179735    0.5180585455841817    0.4907238611302217    0.4636886454395244    
  0.43889416681858057    0.41793548853443535    0.4020488677140796    0.3921382562289183    0.3887697493670604    
  0.4057233752352659    0.4090729436341174    0.4188596507683104    0.43435002150220964    0.45445146886985055    
  0.47779586407300256    0.502761249286315    0.5275055737669044    0.5501253242513234    0.5689524500260074    
  0.5828419198792855    0.5912508818066073    0.5940528682722629    0.5912508818066067    0.582841919879284    
  0.5689524500260054    0.550125324251321    0.527505573766902    0.5027612492863124    0.47779586407300034    
  0.4544514688698488    0.43435002150220825    0.41885965076830933    0.4090729436341169    0.4057233752352659    
  0.4090729436341169    0.40907294363411706    0.4154334055864951    0.42768536106741084    0.44497617861432964    
  0.4661700893000611    0.4898930347834336    0.5145309474148246    0.5382783988525568    0.55932639895499    
  0.5761524897310554    0.5877463572054419    0.5936192004031704    0.59361920040317    0.5877463572054408    
  0.5761524897310536    0.5593263989549876    0.538278398852554    0.5145309474148221    0.48989303478343127    