#     DFTpy    
  CRYSTAL 
    
  PRIMVEC    
  1.1213808832487002    -1.9422886644232202    0.0    
  1.1213808832487002    1.9422886644232202    0.0    
  0.0    0.0    3.7914817306206903    
  PRIMCOORD    
  2    1    
  Si    1.1213808832487002    0.6474295548077401    0.9478704326551702    
  Si    1.1213808832487098    -0.6474295548077401    2.843611297965521    
  BEGIN_BLOCK_DATAGRID_3D    
  3d_datagrid_density    
  BEGIN_DATAGRID_3D#0    
  25    25    37    
  0.0    0.0    0.0    
  1.1213808874314724    -1.9422886716679941    0.0    
  1.1213808874314724    1.9422886716679941    0.0    
  0.0    0.0    3.7914817447629896    
  0.33628915292947603    0.339464966833179    0.34888165220252865    0.36417071668986667    0.3846243202956519    
  0.40912717819161243    0.43615048699701686    0.4638260797523264    0.4900983092260303    0.5129377766430797    
  0.5305750388826728    0.54168577485537    0.5454762177935922    0.5416857748553703    0.530575038882673    
  0.51293777664308    0.4900983092260307    0.4638260797523269    0.43615048699701703    0.40912717819161254    
  0.38462432029565163    0.36417071668986645    0.3488816522025285    0.33946496683317895    0.33628915292947603    
  0.33946496683317895    0.33946496683317895    0.3457610601212953    0.35811267878666975    0.3759798910436014    
  0.39844904520065827    0.4241960149886953    0.45151942826406066    0.47845265073888943    0.5029487902716371    
  0.5231114458429459    0.5374104360279015    0.5448131780057225    0.5448131780057227    0.5374104360279017    
  0.5231114458429461    0.5029487902716376    0.4784526507388896    0.45151942826406105    0.4241960149886956    
  0.3984490452006582    0.3759798910436012    0.35811267878666964    0.34576106012129504    0.33946496683317895    
  0.3488816522025284    0.34576106012129515    0.3488816522025287    0.3581126787866698    0.3730393278082358    
  0.3929116155628662    0.41660211014970894    0.4426078882403669    0.4691195222349906    0.4941675784977724    
  0.5158355183988929    0.5324884477450703    0.5429382994687507    0.5464953827394279    0.5429382994687507    
  0.5324884477450704    0.5158355183988931    0.4941675784977729    0.46911952223499087    0.44260788824036723    
  0.4166021101497089    0.392911615562866    0.37303932780823557    0.3581126787866695    0.3488816522025284    
  0.36417071668986645    0.35811267878666964    0.3581126787866698    0.36417071668986667    0.37597989104360136    
  0.39291161556286625    0.4139967041720922    0.4379210480660675    0.463061436913017    0.4875895951989448    
  0.5096557601533682    0.5276171408031144    0.5402276201157712    0.5467097064702943    0.5467097064702942    
  0.5402276201157713    0.5276171408031145    0.5096557601533686    0.48758959519894524    0.46306143691301704    
  0.4379210480660675    0.41399670417209194    0.392911615562866    0.3759798910436011    0.36417071668986645    
  0.38462432029565136    0.37597989104360124    0.3730393278082358    0.37597989104360136    0.38462432029565186    
  0.3984490452006584    0.416602110149709    0.4379210480660674    0.46095905224223477    0.48405396428141056    
  0.5054762540644604    0.5236466991985874    0.5373451093158101    0.5458055076429061    0.5486592909224957    
  0.5458055076429061    0.5373451093158104    0.5236466991985878    0.5054762540644607    0.48405396428141095    
  0.4609590522422346    0.43792104806606724    0.4166021101497087    0.39844904520065805    0.38462432029565136    
  0.40912717819161215    0.39844904520065816    0.3929116155628661    0.3929116155628661    0.3984490452006583    
  0.40912717819161243    0.4241960149886955    0.44260788824036673    0.46306143691301677    0.48405396428141045    
  0.5039945230917802    0.5214016060672585    0.5351266076378535    0.5444817454237012    0.5491879930685444    
  0.5491879930685444    0.5444817454237012    0.5351266076378537    0.5214016060672587    0.5039945230917805    
  0.4840539642814108    0.46306143691301677    0.4426078882403669    0.42419601498869497    0.40912717819161215    
  0.4361504869970166    0.424196014988695    0.4166021101497087    0.413996704172092    0.4166021101497088    
  0.4241960149886953    0.43615048699701703    0.4515194282640608    0.46911952223499054    0.48758959519894457    
  0.5054762540644602    0.5214016060672583    0.53429177615598    0.5435472409007661    0.5490259528467735    
  0.5508277298863169    0.5490259528467736    0.5435472409007664    0.5342917761559804    0.5214016060672587    
  0.5054762540644605    0.48758959519894485    0.46911952223499054    0.4515194282640605    0.4361504869970166    
  0.4638260797523263    0.4515194282640605    0.4426078882403666    0.4379210480660671    0.43792104806606724    
  0.44260788824036684    0.45151942826406066    0.46382607975232665    0.4784526507388893    0.4941675784977722    
  0.5096557601533678    0.5236466991985871    0.5351266076378531    0.5435472409007659    0.5488755029502039    
  0.5514017700495084    0.5514017700495084    0.5488755029502043    0.5435472409007662    0.5351266076378536    
  0.5236466991985873    0.5096557601533679    0.4941675784977725    0.47845265073888904    0.4638260797523263    
  0.49009830922603026    0.47845265073888876    0.46911952223499015    0.46306143691301616    0.46095905224223405    
  0.46306143691301643    0.46911952223499026    0.4784526507388891    0.49009830922603054    0.5029487902716372    
  0.5158355183988926    0.5276171408031138    0.5373451093158096    0.5444817454237005    0.5490259528467731    
  0.5514017700495083    0.5521191921125048    0.5514017700495084    0.5490259528467734    0.5444817454237009    
  0.5373451093158098    0.5276171408031141    0.5158355183988929    0.5029487902716372    0.49009830922603026    
  0.5129377766430798    0.5029487902716369    0.49416757849777165    0.48758959519894374    0.4840539642814096    
  0.48405396428140957    0.487589595198944    0.49416757849777165    0.502948790271637    0.5129377766430799    
  0.5231114458429457    0.5324884477450699    0.5402276201157705    0.5458055076429055    0.5491879930685438    
  0.5508277298863165    0.5514017700495082    0.5514017700495084    0.5508277298863168    0.5491879930685442    
  0.5458055076429057    0.5402276201157707    0.5324884477450702    0.5231114458429456    0.5129377766430798    
  0.5305750388826728    0.523111445842945    0.5158355183988915    0.5096557601533662    0.5054762540644584    
  0.5039945230917783    0.5054762540644585    0.5096557601533666    0.5158355183988919    0.5231114458429452    
  0.5305750388826731    0.5374104360279014    0.54293829946875    0.5467097064702934    0.5486592909224949    
  0.5491879930685436    0.549025952846773    0.5488755029502039    0.5490259528467732    0.5491879930685442    
  0.5486592909224952    0.5467097064702936    0.5429382994687504    0.5374104360279014    0.5305750388826728    
  0.54168577485537    0.5374104360279004    0.5324884477450686    0.5276171408031117    0.5236466991985846    
  0.5214016060672558    0.5214016060672558    0.5236466991985849    0.5276171408031122    0.5324884477450686    
  0.5374104360279007    0.5416857748553702    0.5448131780057222    0.5464953827394273    0.5467097064702932    
  0.5458055076429053    0.5444817454237004    0.5435472409007658    0.5435472409007658    0.5444817454237006    
  0.5458055076429055    0.5467097064702936    0.5464953827394277    0.5448131780057222    0.54168577485537    
  0.545476217793592    0.5448131780057214    0.5429382994687485    0.5402276201157681    0.5373451093158065    
  0.5351266076378498    0.5342917761559766    0.5351266076378498    0.5373451093158068    0.5402276201157683    
  0.5429382994687488    0.5448131780057215    0.5454762177935922    0.5448131780057222    0.5429382994687499    
  0.5402276201157703    0.5373451093158094    0.535126607637853    0.5342917761559797    0.535126607637853    
  0.5373451093158096    0.5402276201157705    0.5429382994687504    0.5448131780057223    0.545476217793592    
  0.5416857748553701    0.5448131780057213    0.5464953827394254    0.5467097064702907    0.545805507642902    
  0.5444817454236965    0.5435472409007617    0.5435472409007616    0.5444817454236968    0.5458055076429023    
  0.5467097064702909    0.5464953827394257    0.5448131780057214    0.5416857748553702    0.5374104360279012    
  0.5324884477450698    0.5276171408031137    0.523646699198587    0.521401606067258    0.5214016060672583    
  0.523646699198587    0.5276171408031138    0.5324884477450701    0.5374104360279015    0.5416857748553701    
  0.530575038882673    0.5374104360279005    0.5429382994687485    0.5467097064702907    0.5486592909224914    
  0.5491879930685396    0.5490259528467685    0.5488755029501988    0.5490259528467685    0.5491879930685397    
  0.5486592909224915    0.5467097064702909    0.5429382994687487    0.5374104360279007    0.5305750388826729    
  0.5231114458429454    0.5158355183988924    0.5096557601533678    0.5054762540644601    0.5039945230917801    
  0.5054762540644602    0.5096557601533678    0.5158355183988929    0.5231114458429458    0.530575038882673    
  0.5129377766430799    0.523111445842945    0.5324884477450684    0.5402276201157677    0.545805507642902    
  0.5491879930685395    0.5508277298863117    0.5514017700495029    0.551401770049503    0.5508277298863117    
  0.5491879930685398    0.5458055076429023    0.5402276201157683    0.5324884477450689    0.523111445842945    
  0.5129377766430798    0.5029487902716371    0.4941675784977724    0.4875895951989447    0.48405396428141045    
  0.48405396428141045    0.4875895951989447    0.4941675784977726    0.5029487902716373    0.5129377766430799    
  0.4900983092260306    0.502948790271637    0.5158355183988916    0.5276171408031117    0.5373451093158063    
  0.5444817454236964    0.5490259528467683    0.5514017700495026    0.5521191921124992    0.5514017700495027    
  0.5490259528467685    0.5444817454236968    0.5373451093158068    0.5276171408031122    0.5158355183988916    
  0.5029487902716369    0.4900983092260303    0.47845265073888943    0.4691195222349903    0.46306143691301677    
  0.4609590522422346    0.46306143691301677    0.46911952223499087    0.4784526507388896    0.4900983092260306    
  0.463826079752327    0.47845265073888943    0.4941675784977718    0.5096557601533662    0.5236466991985845    
  0.5351266076378495    0.5435472409007612    0.5488755029501985    0.5514017700495027    0.5514017700495026    
  0.5488755029501989    0.5435472409007616    0.5351266076378499    0.5236466991985849    0.5096557601533666    
  0.49416757849777165    0.4784526507388891    0.4638260797523268    0.45151942826406066    0.4426078882403671    
  0.4379210480660675    0.4379210480660674    0.4426078882403673    0.4515194282640611    0.463826079752327    
  0.4361504869970173    0.45151942826406094    0.4691195222349904    0.4875895951989436    0.5054762540644582    
  0.5214016060672554    0.5342917761559759    0.543547240900761    0.549025952846768    0.5508277298863111    
  0.5490259528467681    0.5435472409007615    0.5342917761559762    0.5214016060672557    0.5054762540644584    
  0.4875895951989439    0.46911952223499015    0.45151942826406083    0.436150486997017    0.4241960149886954    
  0.4166021101497089    0.41399670417209233    0.41660211014970916    0.4241960149886956    0.4361504869970173    
  0.4091271781916127    0.4241960149886955    0.4426078882403671    0.4630614369130162    0.48405396428140934    
  0.5039945230917778    0.5214016060672553    0.535126607637849    0.5444817454236962    0.549187993068539    
  0.5491879930685394    0.5444817454236962    0.5351266076378495    0.5214016060672556    0.5039945230917781    
  0.48405396428140945    0.4630614369130162    0.4426078882403669    0.4241960149886953    0.40912717819161243    
  0.3984490452006583    0.3929116155628661    0.39291161556286636    0.39844904520065855    0.4091271781916127    
  0.38462432029565197    0.39844904520065866    0.4166021101497091    0.4379210480660674    0.46095905224223405    
  0.4840539642814092    0.5054762540644578    0.523646699198584    0.5373451093158059    0.5458055076429015    
  0.5486592909224909    0.5458055076429016    0.5373451093158061    0.5236466991985845    0.5054762540644582    
  0.48405396428140934    0.46095905224223405    0.43792104806606724    0.4166021101497088    0.3984490452006583    
  0.38462432029565163    0.3759798910436012    0.37303932780823584    0.3759798910436014    0.38462432029565197    
  0.36417071668986695    0.3759798910436016    0.3929116155628664    0.4139967041720923    0.43792104806606724    
  0.46306143691301593    0.48758959519894346    0.5096557601533658    0.5276171408031112    0.5402276201157675    
  0.5467097064702902    0.5467097064702902    0.5402276201157677    0.5276171408031117    0.509655760153366    
  0.4875895951989436    0.4630614369130162    0.43792104806606735    0.41399670417209206    0.39291161556286625    
  0.37597989104360124    0.36417071668986645    0.3581126787866696    0.35811267878666975    0.36417071668986695    
  0.34888165220252854    0.3581126787866698    0.37303932780823595    0.3929116155628662    0.4166021101497088    
  0.44260788824036673    0.46911952223498976    0.4941675784977711    0.5158355183988912    0.5324884477450679    
  0.542938299468748    0.5464953827394249    0.542938299468748    0.5324884477450683    0.5158355183988913    
  0.4941675784977714    0.46911952223499004    0.4426078882403669    0.4166021101497088    0.3929116155628662    
  0.3730393278082357    0.3581126787866696    0.3488816522025284    0.34576106012129515    0.34888165220252854    
  0.33946496683317895    0.34576106012129515    0.35811267878666986    0.3759798910436014    0.3984490452006584    
  0.42419601498869525    0.45151942826406055    0.47845265073888865    0.5029487902716364    0.5231114458429446    
  0.5374104360279002    0.544813178005721    0.5448131780057212    0.5374104360279004    0.5231114458429449    
  0.5029487902716369    0.47845265073888904    0.45151942826406083    0.4241960149886953    0.3984490452006583    
  0.37597989104360124    0.3581126787866696    0.34576106012129515    0.33946496683317895    0.33946496683317895    
  0.33628915292947603    0.339464966833179    0.34888165220252865    0.36417071668986667    0.3846243202956519    
  0.40912717819161243    0.43615048699701686    0.4638260797523264    0.4900983092260303    0.5129377766430797    
  0.5305750388826728    0.54168577485537    0.5454762177935922    0.5416857748553703    0.530575038882673    
  0.51293777664308    0.4900983092260307    0.4638260797523269    0.43615048699701703    0.40912717819161254    
  0.38462432029565163    0.36417071668986645    0.3488816522025285    0.33946496683317895    0.33628915292947603    
  0.3417248799382887    0.34490946083279056    0.3543329926736652    0.36957871090441213    0.3898845704997286    
  0.4140959261963062    0.44066953481169724    0.46775043315230524    0.4933266976958338    0.5154463478123457    
  0.5324458194250785    0.5431141931047486    0.5467460338555223    0.543114193104749    0.5324458194250788    
  0.5154463478123462    0.4933266976958341    0.46775043315230563    0.4406695348116974    0.41409592619630636    
  0.3898845704997284    0.36957871090441197    0.3543329926736651    0.3449094608327905    0.3417248799382887    
  0.34490946083279045    0.34490946083279045    0.3510668711831606    0.36312966240494576    0.38054322933951906    
  0.4023892376723161    0.42736124157010724    0.4538035422363173    0.4798193538877535    0.5034447857022606    
  0.5228665600340813    0.5366267269453181    0.5437459075186968    0.5437459075186971    0.5366267269453184    
  0.5228665600340815    0.5034447857022611    0.479819353887754    0.4538035422363177    0.4273612415701074    
  0.40238923767231605    0.3805432293395189    0.36312966240494576    0.3510668711831603    0.34490946083279045    
  0.354332992673665    0.3513591265019662    0.3543329926736653    0.3631296624049459    0.37735129017175395    
  0.3962775492607503    0.41883063159373246    0.4435858626610898    0.4688391994989124    0.49273530785827907    
  0.5134528953377787    0.5294141434820672    0.5394504321124411    0.5428707049403366    0.5394504321124411    
  0.5294141434820674    0.513452895337779    0.49273530785827974    0.4688391994989127    0.44358586266109007    
  0.41883063159373246    0.3962775492607502    0.3773512901717538    0.3631296624049456    0.354332992673665    
  0.3695787109044119    0.36395793901941603    0.3639579390194162    0.3695787109044122    0.38054322933951906    
  0.3962775492607504    0.41589105297299284    0.43817916778609045    0.4616619819317305    0.4846698038061612    
  0.5054867966830265    0.5225413798240769    0.5345877249909369    0.5408065466866632    0.5408065466866631    
  0.5345877249909369    0.5225413798240771    0.505486796683027    0.48466980380616176    0.4616619819317306    
  0.43817916778609045    0.41589105297299256    0.39627754926075015    0.38054322933951873    0.3695787109044119    
  0.3898845704997281    0.3820732261973462    0.3794176066968881    0.3820732261973463    0.3898845704997286    
  0.40238923767231627    0.4188306315937325    0.43817916778609045    0.45916407138007304    0.48032860367910035    
  0.5001325503144238    0.5171115345260455    0.5300548136808568    0.5381236164644225    0.540859891016126    
  0.5381236164644226    0.5300548136808569    0.5171115345260459    0.500132550314424    0.48032860367910085    
  0.4591640713800728    0.4381791677860903    0.4188306315937323    0.40238923767231594    0.3898845704997281    
  0.4140959261963059    0.4046982912170129    0.39982535480337805    0.39982535480337805    0.4046982912170131    
  0.41409592619630625    0.42736124157010724    0.4435858626610897    0.4616619819317303    0.4803286036791003    
  0.4982419306559355    0.5141006222682072    0.5268099818878361    0.5356096421093975    0.5400877515361767    
  0.5400877515361767    0.5356096421093975    0.5268099818878366    0.5141006222682075    0.49824193065593586    
  0.48032860367910046    0.4616619819317303    0.4435858626610896    0.42736124157010685    0.4140959261963059    
  0.44066953481169696    0.4304337912501263    0.42391907621059566    0.4216814462176124    0.4239190762105957    
  0.4304337912501266    0.4406695348116974    0.4538035422363173    0.46883919949891234    0.48466980380616104    
  0.5001325503144235    0.514100622268207    0.5256277630213908    0.5340844575561273    0.5391872439709975    
  0.5408848552045423    0.5391872439709976    0.5340844575561275    0.5256277630213911    0.5141006222682075    
  0.5001325503144239    0.4846698038061613    0.46883919949891234    0.4538035422363172    0.44066953481169696    
  0.4677504331523052    0.4575271491285041    0.4500746886967579    0.4461370509154723    0.4461370509154725    
  0.4500746886967581    0.4575271491285044    0.46775043315230547    0.4798193538877536    0.492735307858279    
  0.5054867966830262    0.5171115345260453    0.5268099818878359    0.5340844575561272    0.5387997281381676    
  0.5410794671545753    0.5410794671545753    0.5387997281381678    0.5340844575561275    0.5268099818878362    
  0.5171115345260454    0.5054867966830264    0.4927353078582792    0.4798193538877531    0.4677504331523052    
  0.49332669769583376    0.4839958670905572    0.47639086038819756    0.47139122459034716    0.4696444909832966    
  0.47139122459034744    0.47639086038819767    0.4839958670905575    0.49332669769583404    0.5034447857022606    
  0.5134528953377786    0.5225413798240764    0.5300548136808563    0.5356096421093969    0.539187243970997    
  0.5410794671545751    0.5416552198118046    0.5410794671545753    0.5391872439709974    0.5356096421093971    
  0.5300548136808565    0.5225413798240767    0.5134528953377787    0.5034447857022606    0.49332669769583376    
  0.5154463478123459    0.5078349024090452    0.5008747889117371    0.49550076519997693    0.4925582171236282    
  0.4925582171236282    0.4955007651999772    0.5008747889117372    0.5078349024090455    0.5154463478123461    
  0.522866560034081    0.5294141434820667    0.5345877249909363    0.5381236164644219    0.5400877515361762    
  0.540884855204542    0.5410794671545751    0.5410794671545753    0.5408848552045422    0.5400877515361765    
  0.5381236164644221    0.5345877249909364    0.529414143482067    0.522866560034081    0.5154463478123459    
  0.5324458194250785    0.5272626841330691    0.5217006795525875    0.5166413457709919    0.5130692795672945    
  0.5117768530064443    0.5130692795672944    0.5166413457709921    0.5217006795525879    0.5272626841330693    
  0.5324458194250788    0.536626726945318    0.5394504321124405    0.5408065466866624    0.5408598910161253    
  0.5400877515361759    0.539187243970997    0.5387997281381676    0.5391872439709973    0.5400877515361764    
  0.5408598910161256    0.5408065466866625    0.5394504321124407    0.536626726945318    0.5324458194250785    
  0.5431141931047486    0.5409198927094506    0.5374454204375085    0.5333845188925475    0.529758519871115    
  0.5276129366185758    0.5276129366185758    0.5297585198711152    0.5333845188925477    0.5374454204375086    
  0.5409198927094508    0.5431141931047488    0.5437459075186964    0.5428707049403361    0.5408065466866622    
  0.5381236164644218    0.5356096421093967    0.534084457556127    0.534084457556127    0.535609642109397    
  0.5381236164644219    0.5408065466866625    0.5428707049403364    0.5437459075186966    0.5431141931047486    
  0.5467460338555222    0.5479472054089328    0.5471944381566428    0.5448473827268948    0.5418113676025034    
  0.5392897003547781    0.5383138719388276    0.5392897003547781    0.5418113676025037    0.5448473827268951    
  0.5471944381566431    0.5479472054089328    0.5467460338555223    0.5437459075186966    0.5394504321124404    
  0.5345877249909361    0.5300548136808559    0.5268099818878356    0.5256277630213905    0.5268099818878358    
  0.5300548136808563    0.5345877249909363    0.5394504321124408    0.5437459075186966    0.5467460338555222    
  0.5431141931047487    0.5479472054089327    0.5504880524363971    0.5506342327643184    0.5489871493957201    
  0.5467302240717067    0.5451742040945292    0.5451742040945291    0.546730224071707    0.5489871493957204    
  0.5506342327643188    0.5504880524363973    0.5479472054089328    0.5431141931047487    0.5366267269453179    
  0.5294141434820666    0.5225413798240761    0.5171115345260452    0.5141006222682069    0.514100622268207    
  0.5171115345260452    0.5225413798240764    0.529414143482067    0.536626726945318    0.5431141931047487    
  0.5324458194250787    0.5409198927094507    0.5471944381566429    0.5506342327643184    0.5513560558263448    
  0.5502826707606888    0.5488022017732159    0.5481456851079025    0.548802201773216    0.5502826707606888    
  0.5513560558263452    0.5506342327643187    0.5471944381566429    0.5409198927094507    0.5324458194250785    
  0.5228665600340808    0.5134528953377784    0.5054867966830262    0.5001325503144234    0.4982419306559352    
  0.5001325503144235    0.5054867966830262    0.5134528953377788    0.5228665600340813    0.5324458194250787    
  0.5154463478123461    0.5272626841330693    0.5374454204375084    0.5448473827268947    0.5489871493957201    
  0.5502826707606887    0.5499091139495507    0.5492586908450857    0.5492586908450858    0.5499091139495508    
  0.550282670760689    0.5489871493957204    0.5448473827268953    0.5374454204375088    0.5272626841330691    
  0.5154463478123459    0.5034447857022605    0.492735307858279    0.48466980380616115    0.4803286036791002    
  0.4803286036791003    0.4846698038061612    0.49273530785827935    0.5034447857022608    0.5154463478123461    
  0.4933266976958341    0.5078349024090454    0.5217006795525877    0.5333845188925473    0.5418113676025033    
  0.5467302240717066    0.5488022017732158    0.5492586908450856    0.5492549804495592    0.5492586908450856    
  0.5488022017732159    0.5467302240717069    0.5418113676025037    0.5333845188925477    0.5217006795525876    
  0.5078349024090454    0.4933266976958338    0.4798193538877535    0.4688391994989121    0.4616619819317303    
  0.45916407138007276    0.4616619819317303    0.4688391994989127    0.4798193538877539    0.4933266976958341    
  0.4677504331523058    0.48399586709055775    0.5008747889117373    0.5166413457709919    0.5297585198711149    
  0.5392897003547776    0.5451742040945288    0.5481456851079022    0.5492586908450856    0.5492586908450855    
  0.5481456851079026    0.545174204094529    0.5392897003547781    0.5297585198711152    0.5166413457709921    
  0.5008747889117371    0.4839958670905576    0.4677504331523055    0.4538035422363174    0.4435858626610899    
  0.43817916778609056    0.43817916778609045    0.4435858626610902    0.4538035422363178    0.4677504331523058    
  0.4406695348116977    0.45752714912850473    0.47639086038819783    0.49550076519997693    0.5130692795672942    
  0.5276129366185752    0.5383138719388271    0.5451742040945285    0.5488022017732156    0.5499091139495502    
  0.5488022017732158    0.545174204094529    0.5383138719388273    0.5276129366185758    0.5130692795672944    
  0.49550076519997704    0.47639086038819756    0.4575271491285045    0.4406695348116973    0.42736124157010724    
  0.41883063159373246    0.4158910529729929    0.41883063159373274    0.4273612415701074    0.4406695348116977    
  0.41409592619630653    0.4304337912501269    0.45007468869675843    0.4713912245903473    0.492558217123628    
  0.5117768530064438    0.5276129366185751    0.5392897003547773    0.5467302240717063    0.5502826707606883    
  0.5502826707606885    0.5467302240717065    0.5392897003547777    0.5276129366185756    0.5117768530064442    
  0.492558217123628    0.47139122459034727    0.45007468869675815    0.4304337912501266    0.41409592619630625    
  0.40238923767231616    0.3962775492607502    0.3962775492607505    0.40238923767231644    0.41409592619630653    
  0.3898845704997287    0.4046982912170135    0.4239190762105961    0.4461370509154727    0.4696444909832966    
  0.49255821712362774    0.5130692795672939    0.5297585198711143    0.5418113676025028    0.5489871493957195    
  0.5513560558263444    0.5489871493957198    0.541811367602503    0.5297585198711149    0.5130692795672942    
  0.492558217123628    0.4696444909832966    0.4461370509154725    0.4239190762105957    0.40469829121701306    
  0.38988457049972836    0.3805432293395189    0.37735129017175406    0.3805432293395192    0.3898845704997287    
  0.36957871090441247    0.3820732261973465    0.39982535480337844    0.42168144621761267    0.4461370509154725    
  0.47139122459034716    0.49550076519997677    0.5166413457709913    0.5333845188925469    0.5448473827268943    
  0.550634232764318    0.550634232764318    0.5448473827268946    0.5333845188925473    0.5166413457709916    
  0.4955007651999768    0.47139122459034727    0.4461370509154727    0.4216814462176124    0.39982535480337833    
  0.3820732261973462    0.36957871090441197    0.36312966240494565    0.3631296624049459    0.36957871090441247    
  0.3543329926736651    0.3639579390194162    0.3794176066968883    0.3998253548033783    0.4239190762105958    
  0.450074688696758    0.47639086038819717    0.5008747889117366    0.521700679552587    0.5374454204375079    
  0.5471944381566424    0.5504880524363965    0.5471944381566425    0.5374454204375084    0.5217006795525875    
  0.500874788911737    0.47639086038819756    0.45007468869675826    0.4239190762105958    0.3998253548033782    
  0.37941760669688807    0.363957939019416    0.354332992673665    0.3510668711831605    0.3543329926736651    
  0.3449094608327905    0.35135912650196616    0.3639579390194162    0.3820732261973464    0.4046982912170132    
  0.43043379125012654    0.45752714912850423    0.48399586709055714    0.5078349024090448    0.5272626841330686    
  0.5409198927094502    0.5479472054089324    0.5479472054089325    0.5409198927094506    0.527262684133069    
  0.5078349024090454    0.4839958670905575    0.4575271491285045    0.4304337912501266    0.4046982912170131    
  0.3820732261973462    0.36395793901941603    0.3513591265019662    0.34490946083279056    0.3449094608327905    
  0.3417248799382887    0.34490946083279056    0.3543329926736652    0.36957871090441213    0.3898845704997286    
  0.4140959261963062    0.44066953481169724    0.46775043315230524    0.4933266976958338    0.5154463478123457    
  0.5324458194250785    0.5431141931047486    0.5467460338555223    0.543114193104749    0.5324458194250788    
  0.5154463478123462    0.4933266976958341    0.46775043315230563    0.4406695348116974    0.41409592619630636    
  0.3898845704997284    0.36957871090441197    0.3543329926736651    0.3449094608327905    0.3417248799382887    
  0.35783112066170863    0.3610201254257301    0.3704050150498555    0.38543958090184527    0.40521407614691735    
  0.42846138144520735    0.45358877045030843    0.47876920606472856    0.5021162997822768    0.5219199305614521    
  0.5368592785606427    0.5460952549503076    0.5492129580568329    0.5460952549503081    0.5368592785606431    
  0.5219199305614527    0.5021162997822773    0.4787692060647292    0.45358877045030876    0.4284613814452076    
  0.40521407614691723    0.3854395809018451    0.3704050150498554    0.36102012542573    0.35783112066170863    
  0.36102012542573003    0.36102012542573    0.36703855331071805    0.37874941796044226    0.3954906234548756    
  0.41625743592304304    0.4397175926031102    0.464264821582883    0.4881269855815869    0.5095358113898222    
  0.5269315635599315    0.53913296895466    0.5454019375079584    0.5454019375079587    0.5391329689546603    