#     DFTpy    
  CRYSTAL 
    
  PRIMVEC    
  1.5625799192809802    -2.7064678110815406    0.0    
  1.5625799192809802    2.7064678110815406    0.0    
  0.0    0.0    5.283212247586211    
  PRIMCOORD    
  2    1    
  Si    1.5625799192809802    0.9021559370271801    1.3208030618965505    
  Si    1.5625799192809802    -0.9021559370271801    3.962409185689651    
  BEGIN_BLOCK_DATAGRID_3D    
  3d_datagrid_density    
  BEGIN_DATAGRID_3D#0    
  31    31    51    
  0.0    0.0    0.0    
  1.5625799251094332    -2.7064678211767172    0.0    
  1.5625799251094332    2.7064678211767172    0.0    
  0.0    0.0    5.2832122672926936    
  0.05709558929651553    0.05768818083728762    0.05947652640486259    0.06248512099654981    0.06673117468836874    
  0.07219477476572568    0.07879319003828833    0.0863692937608161    0.09468858685173213    0.10342946680094667    
  0.11216562889534588    0.12036749211942413    0.12745516290541933    0.13289793746585185    0.13630654601002928    
  0.13746468739140416    0.13630654601002937    0.13289793746585196    0.1274551629054195    0.12036749211942438    
  0.11216562889534609    0.10342946680094693    0.09468858685173234    0.08636929376081633    0.07879319003828845    
  0.07219477476572578    0.06673117468836878    0.06248512099654984    0.05947652640486259    0.0576881808372876    
  0.05709558929651553    0.057688180837287634    0.0576881808372876    0.05887894725372416    0.06127969749125064    
  0.06491405414036638    0.06978328375059033    0.07583738710367846    0.08295661838700093    0.09094569748012907    
  0.0995283965666746    0.10833216980714991    0.11687621376759066    0.12459649758616737    0.13092521826213652    
  0.1353935636577884    0.1376972072237854    0.13769720722378542    0.13539356365778848    0.13092521826213666    
  0.12459649758616755    0.11687621376759087    0.10833216980715014    0.09952839656667481    0.09094569748012922    
  0.08295661838700105    0.07583738710367856    0.06978328375059041    0.0649140541403664    0.06127969749125065    
  0.058878947253724154    0.057688180837287634    0.05947652640486256    0.058878947253724126    0.05947652640486256    
  0.06127969749125064    0.06431162401744746    0.06858599075217635    0.07407853072866458    0.08070402907332988    
  0.08830527971338314    0.09664766619484379    0.10540767829804872    0.11415740175832703    0.12236936732564478    
  0.12946876273185734    0.1349272888033333    0.13835117418870396    0.1395158010519332    0.13835117418870402    
  0.13492728880333352    0.12946876273185762    0.12236936732564498    0.11415740175832728    0.10540767829804888    
  0.09664766619484397    0.08830527971338331    0.08070402907333002    0.07407853072866463    0.06858599075217635    
  0.06431162401744747    0.061279697491250625    0.05947652640486256    0.06248512099654983    0.06127969749125064    
  0.061279697491250625    0.06248512099654981    0.0649140541403664    0.06858599075217635    0.07349559009507761    
  0.07958784585824566    0.08674230116380392    0.09476436613912845    0.10337517022742206    0.11219723427564438    
  0.12074956779594699    0.12847629749400713    0.134819178497306    0.13930912207640572    0.14162977373708543    
  0.1416297737370855    0.13930912207640583    0.13481917849730612    0.12847629749400735    0.12074956779594719    
  0.11219723427564456    0.10337517022742218    0.09476436613912857    0.086742301163804    0.07958784585824573    
  0.0734955900950776    0.06858599075217638    0.06491405414036638    0.06248512099654983    0.06673117468836873    
  0.06491405414036637    0.06431162401744746    0.0649140541403664    0.06673117468836876    0.06978328375059037    
  0.07407853072866463    0.07958784585824566    0.08622584357029377    0.09383791887273922    0.10218823828103284    
  0.11094630754548525    0.11967938513404035    0.12786668483730546    0.134949076694105    0.14040833262761096    
  0.1438442563529745    0.1450157796517202    0.14384425635297454    0.14040833262761107    0.13494907669410514    
  0.12786668483730565    0.11967938513404051    0.11094630754548543    0.10218823828103292    0.0938379188727393    
  0.08622584357029377    0.07958784585824571    0.0740785307286646    0.06978328375059031    0.06673117468836873    
  0.07219477476572571    0.06978328375059033    0.06858599075217635    0.06858599075217636    0.06978328375059037    
  0.07219477476572574    0.07583738710367853    0.08070402907332998    0.08674230116380396    0.09383791887273922    
  0.10179927476797604    0.11034246860009918    0.1190827910737419    0.12754234427541036    0.13518293891250668    
  0.14146660235679065    0.14592995656368898    0.1482446050637035    0.14824460506370352    0.145929956563689    
  0.14146660235679073    0.13518293891250682    0.1275423442754105    0.11908279107374199    0.11034246860009923    
  0.10179927476797604    0.09383791887273926    0.08674230116380398    0.08070402907332994    0.07583738710367845    
  0.07219477476572571    0.07879319003828834    0.07583738710367843    0.07407853072866463    0.07349559009507761    
  0.07407853072866466    0.07583738710367853    0.07879319003828844    0.08295661838700102    0.08830527971338327    
  0.09476436613912853    0.10218823828103289    0.11034246860009918    0.11889289639366583    0.12740968329757613    
  0.1353903410030053    0.1423032297263826    0.14764908944612318    0.15102671601668688    0.15218139742785639    
  0.1510267160166869    0.1476490894461233    0.14230322972638265    0.13539034100300534    0.12740968329757618    
  0.11889289639366585    0.1103424686000992    0.10218823828103285    0.09476436613912848    0.08830527971338323    
  0.08295661838700094    0.07879319003828834    0.08636929376081619    0.08295661838700095    0.08070402907332992    
  0.0795878458582457    0.07958784585824569    0.08070402907332998    0.08295661838700107    0.08636929376081626    
  0.09094569748012916    0.0966476661948439    0.10337517022742211    0.11094630754548535    0.11908279107374192    
  0.12740968329757615    0.1354720216032456    0.14276607328663504    0.1487853405302123    0.15307975669968626    
  0.15531514057044762    0.15531514057044762    0.15307975669968626    0.1487853405302124    0.14276607328663507    
  0.13547202160324565    0.1274096832975761    0.11908279107374188    0.11094630754548529    0.10337517022742206    
  0.09664766619484386    0.09094569748012903    0.08636929376081619    0.09468858685173218    0.09094569748012903    
  0.08830527971338317    0.08674230116380398    0.08622584357029377    0.08674230116380395    0.08830527971338333    
  0.09094569748012918    0.09468858685173231    0.09952839656667478    0.10540767829804887    0.11219723427564444    
  0.11967938513404044    0.1275423442754104    0.1353903410030053    0.14276607328663507    0.14918314112498424    
  0.1541723231218167    0.15734042571322626    0.15842677890690582    0.15734042571322626    0.15417232312181683    
  0.14918314112498426    0.14276607328663504    0.13539034100300532    0.12754234427541042    0.11967938513404035    
  0.11219723427564438    0.10540767829804873    0.09952839656667462    0.09468858685173218    0.10342946680094671    
  0.09952839656667463    0.09664766619484386    0.09476436613912846    0.09383791887273923    0.09383791887273928    
  0.09476436613912859    0.09664766619484391    0.09952839656667481    0.10342946680094685    0.10833216980715009    
  0.11415740175832721    0.12074956779594709    0.12786668483730554    0.13518293891250674    0.14230322972638262    
  0.1487853405302123    0.15417232312181675    0.15804157886155645    0.1600655761034013    0.16006557610340133    
  0.1580415788615565    0.15417232312181678    0.14878534053021233    0.14230322972638257    0.1351829389125067    
  0.12786668483730548    0.12074956779594699    0.11415740175832707    0.10833216980714991    0.10342946680094671    
  0.11216562889534591    0.10833216980714995    0.10540767829804873    0.10337517022742203    0.1021882382810328    
  0.10179927476797601    0.10218823828103289    0.10337517022742213    0.1054076782980489    0.10833216980715012    
  0.11216562889534609    0.11687621376759079    0.12236936732564492    0.1284762974940072    0.13494907669410508    
  0.14146660235679073    0.14764908944612318    0.15307975669968626    0.1573404257132262    0.16006557610340139    
  0.1610038383730189    0.16006557610340136    0.15734042571322623    0.1530797566996863    0.14764908944612323    
  0.1414666023567906    0.134949076694105    0.1284762974940072    0.12236936732564478    0.11687621376759069    
  0.11216562889534591    0.12036749211942417    0.11687621376759066    0.1141574017583271    0.1121972342756444    
  0.11094630754548529    0.11034246860009923    0.11034246860009927    0.11094630754548536    0.11219723427564456    
  0.11415740175832721    0.11687621376759087    0.12036749211942431    0.1245964975861675    0.12946876273185753    
  0.13481917849730607    0.14040833262761102    0.14592995656368896    0.15102671601668682    0.15531514057044757    
  0.15842677890690582    0.16006557610340136    0.1600655761034014    0.15842677890690585    0.15531514057044757    
  0.15102671601668688    0.14592995656368896    0.14040833262761096    0.13481917849730604    0.12946876273185748    
  0.12459649758616737    0.12036749211942417    0.12745516290541936    0.12459649758616737    0.12236936732564482    
  0.12074956779594702    0.11967938513404039    0.1190827910737419    0.11889289639366585    0.11908279107374198    
  0.11967938513404053    0.12074956779594713    0.12236936732564499    0.12459649758616753    0.1274551629054195    
  0.13092521826213663    0.1349272888033334    0.13930912207640583    0.14384425635297443    0.14824460506370346    
  0.1521813974278563    0.15531514057044757    0.1573404257132262    0.1580415788615565    0.1573404257132262    
  0.15531514057044754    0.15218139742785636    0.1482446050637035    0.1438442563529745    0.1393091220764057    
  0.1349272888033333    0.13092521826213652    0.12745516290541936    0.13289793746585185    0.13092521826213652    
  0.12946876273185748    0.12847629749400716    0.1278666848373055    0.12754234427541042    0.12740968329757618    
  0.12740968329757615    0.1275423442754105    0.12786668483730562    0.12847629749400732    0.12946876273185756    
  0.13092521826213666    0.13289793746585193    0.13539356365778854    0.13835117418870407    0.14162977373708543    
  0.14501577965172013    0.14824460506370346    0.15102671601668685    0.15307975669968626    0.15417232312181678    
  0.15417232312181678    0.1530797566996863    0.1510267160166869    0.14824460506370352    0.14501577965172013    
  0.14162977373708543    0.13835117418870402    0.13539356365778837    0.13289793746585185    0.1363065460100293    
  0.1353935636577884    0.13492728880333327    0.134819178497306    0.134949076694105    0.13518293891250663    
  0.1353903410030053    0.13547202160324556    0.13539034100300534    0.13518293891250677    0.13494907669410514    
  0.13481917849730607    0.13492728880333346    0.13539356365778846    0.13630654601002937    0.1376972072237855    
  0.1395158010519332    0.14162977373708535    0.14384425635297443    0.1459299565636889    0.14764908944612318    
  0.1487853405302123    0.14918314112498424    0.1487853405302123    0.14764908944612323    0.145929956563689    
  0.14384425635297451    0.1416297737370855    0.13951580105193323    0.1376972072237854    0.1363065460100293    
  0.13746468739140416    0.1376972072237854    0.13835117418870396    0.1393091220764057    0.14040833262761093    
  0.14146660235679057    0.14230322972638254    0.142766073286635    0.14276607328663504    0.1423032297263826    
  0.14146660235679073    0.14040833262761104    0.13930912207640586    0.13835117418870405    0.13769720722378545    
  0.13746468739140413    0.1376972072237854    0.13835117418870396    0.1393091220764057    0.14040833262761093    
  0.1414666023567906    0.14230322972638254    0.142766073286635    0.14276607328663501    0.14230322972638262    
  0.1414666023567907    0.14040833262761107    0.1393091220764058    0.13835117418870405    0.1376972072237854    
  0.13746468739140416    0.13630654601002937    0.13769720722378545    0.13951580105193326    0.14162977373708543    
  0.14384425635297443    0.1459299565636889    0.14764908944612318    0.14878534053021225    0.14918314112498424    
  0.1487853405302123    0.14764908944612326    0.145929956563689    0.14384425635297451    0.14162977373708546    
  0.13951580105193326    0.1376972072237854    0.1363065460100293    0.13539356365778835    0.13492728880333335    
  0.13481917849730593    0.13494907669410497    0.13518293891250668    0.13539034100300526    0.1354720216032456    
  0.1353903410030053    0.1351829389125067    0.13494907669410508    0.13481917849730607    0.1349272888033334    
  0.13539356365778848    0.13630654601002937    0.13289793746585196    0.13539356365778843    0.13835117418870405    
  0.14162977373708543    0.14501577965172013    0.14824460506370343    0.15102671601668682    0.15307975669968618    
  0.1541723231218167    0.1541723231218167    0.15307975669968626    0.15102671601668682    0.14824460506370352    
  0.14501577965172016    0.1416297737370855    0.13835117418870402    0.13539356365778835    0.13289793746585182    
  0.13092521826213657    0.12946876273185748    0.12847629749400713    0.12786668483730548    0.12754234427541036    
  0.1274096832975761    0.12740968329757615    0.12754234427541045    0.12786668483730562    0.12847629749400735    
  0.12946876273185765    0.13092521826213663    0.13289793746585196    0.12745516290541953    0.13092521826213663    
  0.13492728880333346    0.1393091220764058    0.14384425635297454    0.1482446050637034    0.1521813974278563    
  0.15531514057044746    0.15734042571322615    0.15804157886155637    0.15734042571322615    0.15531514057044749    
  0.15218139742785633    0.1482446050637034    0.14384425635297443    0.1393091220764058    0.1349272888033333    
  0.13092521826213654    0.12745516290541936    0.12459649758616737    0.12236936732564475    0.12074956779594696    
  0.11967938513404032    0.11908279107374183    0.1188928963936658    0.11908279107374192    0.11967938513404046    
  0.12074956779594709    0.12236936732564492    0.1245964975861675    0.12745516290541953    0.12036749211942435    
  0.1245964975861675    0.12946876273185762    0.1348191784973061    0.14040833262761107    0.14592995656368896    
  0.15102671601668685    0.15531514057044746    0.15842677890690574    0.16006557610340122    0.16006557610340125    
  0.15842677890690574    0.1553151405704475    0.1510267160166868    0.14592995656368896    0.14040833262761104    
  0.13481917849730593    0.12946876273185742    0.1245964975861674    0.12036749211942414    0.11687621376759069    
  0.11415740175832703    0.11219723427564435    0.11094630754548525    0.11034246860009918    0.11034246860009918    
  0.11094630754548529    0.11219723427564447    0.11415740175832721    0.11687621376759083    0.12036749211942435    
  0.11216562889534609    0.11687621376759083    0.1223693673256449    0.1284762974940073    0.13494907669410508    
  0.14146660235679068    0.14764908944612318    0.1530797566996862    0.15734042571322615    0.16006557610340125    
  0.16100383837301888    0.16006557610340125    0.15734042571322612    0.1530797566996862    0.14764908944612318    
  0.14146660235679068    0.13494907669410502    0.12847629749400716    0.12236936732564481    0.11687621376759072    
  0.11216562889534588    0.10833216980714991    0.10540767829804867    0.10337517022742201    0.10218823828103277    
  0.10179927476797596    0.10218823828103285    0.10337517022742206    0.10540767829804884    0.10833216980715009    
  0.11216562889534609    0.10342946680094686    0.10833216980715005    0.11415740175832721    0.12074956779594709    
  0.1278666848373056    0.1351829389125067    0.14230322972638254    0.14878534053021228    0.15417232312181667    
  0.1580415788615564    0.16006557610340125    0.16006557610340122    0.15804157886155637    0.15417232312181667    
  0.14878534053021225    0.1423032297263825    0.13518293891250668    0.12786668483730548    0.12074956779594702    
  0.11415740175832707    0.10833216980714991    0.10342946680094671    0.0995283965666746    0.09664766619484379    
  0.09476436613912843    0.09383791887273916    0.09383791887273926    0.09476436613912849    0.0966476661948439    
  0.09952839656667473    0.10342946680094686    0.09468858685173231    0.09952839656667471    0.10540767829804884    
  0.11219723427564451    0.11967938513404044    0.12754234427541042    0.1353903410030053    0.142766073286635    
  0.14918314112498418    0.1541723231218167    0.15734042571322615    0.15842677890690568    0.15734042571322612    
  0.1541723231218167    0.1491831411249842    0.14276607328663501    0.13539034100300532    0.12754234427541036    
  0.11967938513404042    0.11219723427564442    0.10540767829804874    0.09952839656667462    0.09468858685173218    
  0.09094569748012904    0.08830527971338316    0.08674230116380388    0.08622584357029378    0.08674230116380395    
  0.08830527971338327    0.09094569748012915    0.09468858685173231    0.08636929376081627    0.09094569748012915    
  0.0966476661948439    0.10337517022742206    0.11094630754548529    0.11908279107374195    0.12740968329757613    
  0.13547202160324553    0.142766073286635    0.14878534053021222    0.15307975669968626    0.15531514057044743    
  0.1553151405704475    0.15307975669968613    0.14878534053021228    0.14276607328663501    0.13547202160324553    
  0.12740968329757615    0.1190827910737419    0.11094630754548535    0.10337517022742206    0.09664766619484383    
  0.09094569748012905    0.08636929376081619    0.08295661838700095    0.08070402907332991    0.0795878458582457    
  0.07958784585824569    0.08070402907332999    0.08295661838700102    0.08636929376081627    0.07879319003828841    
  0.08295661838700104    0.08830527971338324    0.09476436613912848    0.10218823828103284    0.11034246860009918    
  0.1188928963936658    0.12740968329757604    0.13539034100300523    0.1423032297263825    0.14764908944612318    
  0.1510267160166868    0.1521813974278563    0.1510267160166868    0.14764908944612315    0.14230322972638257    
  0.13539034100300526    0.12740968329757613    0.11889289639366583    0.1103424686000992    0.10218823828103284    
  0.09476436613912849    0.0883052797133832    0.08295661838700095    0.07879319003828833    0.07583738710367843    
  0.07407853072866465    0.07349559009507761    0.07407853072866467    0.07583738710367852    0.07879319003828841    
  0.07219477476572578    0.07583738710367853    0.08070402907332996    0.08674230116380398    0.09383791887273922    
  0.10179927476797594    0.11034246860009916    0.11908279107374183    0.12754234427541036    0.13518293891250663    
  0.1414666023567906    0.1459299565636889    0.14824460506370343    0.1482446050637034    0.14592995656368896    
  0.1414666023567907    0.1351829389125067    0.12754234427541042    0.11908279107374195    0.11034246860009923    
  0.10179927476797601    0.09383791887273928    0.08674230116380396    0.08070402907332994    0.07583738710367846    
  0.07219477476572571    0.06978328375059034    0.06858599075217638    0.06858599075217639    0.0697832837505904    
  0.07219477476572578    0.06673117468836878    0.06978328375059037    0.07407853072866463    0.07958784585824566    
  0.08622584357029371    0.09383791887273919    0.10218823828103278    0.11094630754548525    0.1196793851340403    
  0.12786668483730548    0.134949076694105    0.1404083326276109    0.14384425635297443    0.1450157796517201    
  0.1438442563529745    0.14040833262761102    0.13494907669410505    0.12786668483730557    0.11967938513404044    
  0.11094630754548536    0.10218823828103289    0.0938379188727393    0.08622584357029378    0.07958784585824571    
  0.07407853072866463    0.06978328375059038    0.06673117468836874    0.0649140541403664    0.0643116240174475    
  0.06491405414036644    0.06673117468836878    0.06248512099654986    0.06491405414036641    0.06858599075217638    
  0.07349559009507758    0.07958784585824567    0.08674230116380388    0.09476436613912842    0.10337517022742193    
  0.11219723427564432    0.12074956779594695    0.12847629749400713    0.13481917849730593    0.1393091220764057    
  0.14162977373708543    0.1416297737370855    0.1393091220764058    0.13481917849730604    0.1284762974940073    
  0.12074956779594713    0.11219723427564451    0.10337517022742213    0.09476436613912857    0.08674230116380399    
  0.07958784585824576    0.07349559009507761    0.06858599075217635    0.06491405414036641    0.06248512099654981    
  0.06127969749125064    0.061279697491250666    0.06248512099654986    0.059476526404862555    0.06127969749125064    
  0.06431162401744747    0.06858599075217632    0.07407853072866458    0.08070402907332987    0.08830527971338316    
  0.09664766619484375    0.10540767829804866    0.11415740175832703    0.12236936732564481    0.1294687627318573    
  0.1349272888033333    0.13835117418870396    0.13951580105193323    0.1383511741887041    0.1349272888033334    
  0.12946876273185756    0.12236936732564495    0.11415740175832721    0.10540767829804888    0.09664766619484393    
  0.0883052797133833    0.08070402907332999    0.07407853072866466    0.06858599075217638    0.06431162401744747    
  0.061279697491250666    0.0594765264048626    0.058878947253724154    0.059476526404862555    0.05768818083728764    
  0.058878947253724175    0.06127969749125064    0.06491405414036637    0.06978328375059034    0.07583738710367843    
  0.0829566183870009    0.090945697480129    0.09952839656667457    0.10833216980714987    0.11687621376759069    
  0.12459649758616731    0.13092521826213652    0.13539356365778835    0.1376972072237854    0.13769720722378545    
  0.13539356365778854    0.13092521826213666    0.12459649758616753    0.11687621376759087    0.10833216980715014    
  0.09952839656667481    0.09094569748012922    0.0829566183870011    0.07583738710367856    0.06978328375059041    
  0.06491405414036644    0.061279697491250666    0.05887894725372416    0.05768818083728764    0.05768818083728764    
  0.05709558929651553    0.05768818083728762    0.05947652640486259    0.06248512099654981    0.06673117468836874    
  0.07219477476572568    0.07879319003828833    0.0863692937608161    0.09468858685173213    0.10342946680094667    
  0.11216562889534588    0.12036749211942413    0.12745516290541933    0.13289793746585185    0.13630654601002928    
  0.13746468739140416    0.13630654601002937    0.13289793746585196    0.1274551629054195    0.12036749211942438    
  0.11216562889534609    0.10342946680094693    0.09468858685173234    0.08636929376081633    0.07879319003828845    
  0.07219477476572578    0.06673117468836878    0.06248512099654984    0.05947652640486259    0.0576881808372876    
  0.05709558929651553    0.05781004797291938    0.058415747279926836    0.06024466552490884    0.06332368448613894    
  0.0676709985385526    0.07326513049020149    0.0800198702023356    0.08777339148620635    0.09628507346844373    
  0.10522571671108456    0.1141609035033337    0.12255307538004952    0.12981309453198178    0.13539740590036084    
  0.1389006704476566    0.1400922969394075    0.13890067044765672    0.13539740590036095    0.12981309453198192    
  0.12255307538004982    0.11416090350333392    0.10522571671108485    0.09628507346844394    0.08777339148620661    
  0.08001987020233575    0.0732651304902016    0.06767099853855264    0.06332368448613898    0.06024466552490886    
  0.05841574727992685    0.05781004797291938    0.05841574727992687    0.058415747279926836    0.059579965266904636    
  0.06192466081503232    0.06546923592657779    0.07021188674804898    0.07610252854885567    0.08302479647822149    
  0.0907896077281515    0.09912897844193065    0.10768067938467688    0.1159769839418955    0.12346984103570291    
  0.12960881698288307    0.1339409589209235    0.13617353503656354    0.1361735350365636    0.13394095892092361    
  0.12960881698288326    0.12346984103570316    0.11597698394189573    0.10768067938467707    0.0991289784419309    
  0.09078960772815171    0.08302479647822164    0.07610252854885577    0.07021188674804908    0.0654692359265778    
  0.061924660815032326    0.05957996526690462    0.05841574727992687    0.06024466552490883    0.05968676687742224    
  0.06024466552490884    0.06192466081503232    0.0647405608946985    0.06869809276563511    0.07377176080407305    
  0.0798834254503627    0.08689027825212065    0.09457817445685475    0.10264961007896446    0.11070820435859402    
  0.1182637206932884    0.12478380176260206    0.1297850347060123    0.13291481785513934    0.13397785989773062    
  0.13291481785513937    0.12978503470601252    0.12478380176260231    0.11826372069328861    0.1107082043585943    
  0.10264961007896467    0.09457817445685494    0.08689027825212083    0.07988342545036285    0.0737717608040731    
  0.06869809276563513    0.06474056089469854    0.06192466081503232    0.06024466552490883    0.06332368448613897    
  0.06225470140824526    0.06225470140824526    0.06332368448613897    0.0654692359265778    0.06869809276563511    
  0.07299941177670637    0.07832447461397712    0.08457056152718058    0.09157095937203621    0.0990845951190808    
  0.10678163245324507    0.11423773987961591    0.12096144013326121    0.12646411996073414    0.13034532068293775    
  0.13234538840299934    0.13234538840299936    0.1303453206829379    0.12646411996073426    0.12096144013326145    
  0.11423773987961615    0.10678163245324528    0.09908459511908095    0.09157095937203638    0.08457056152718069    
  0.07832447461397721    0.07299941177670634    0.06869809276563514    0.06546923592657779    0.06332368448613897    
  0.06767099853855256    0.06615078054736552    0.06564510696384443    0.06615078054736555    0.06767099853855262    
  0.07021188674804903    0.0737717608040731    0.07832447461397712    0.08380186247847544    0.09007975383513911    
  0.0969665577350819    0.10419116727219223    0.11139450461837908    0.11814052465278176    0.1239618249927384    
  0.12843285105107655    0.13123637516939743    0.13218999819607732    0.13123637516939746    0.12843285105107663    
  0.12396182499273861    0.118140524652782    0.11139450461837924    0.10419116727219241    0.09696655773508199    
  0.09007975383513919    0.08380186247847547    0.0783244746139772    0.07377176080407309    0.07021188674804898    
  0.06767099853855256    0.07326513049020153    0.07137883564773875    0.0704384762233431    0.07043847622334311    
  0.07137883564773881    0.07326513049020157    0.07610252854885576    0.07988342545036281    0.08457056152718065    
  0.09007975383513912    0.09626528833842816    0.10290841672525643    0.10971014455827832    0.11629499186135903    
  0.12223698728357525    0.12711252023051328    0.13056479393581635    0.1323501543295387    0.13235015432953873    
  0.13056479393581638    0.1271125202305134    0.12223698728357539    0.11629499186135918    0.1097101445582784    
  0.10290841672525651    0.09626528833842818    0.09007975383513916    0.08457056152718065    0.07988342545036275    
  0.07610252854885567    0.07326513049020153    0.08001987020233561    0.0778844868839636    0.07661042055617656    
  0.0761871780642763    0.07661042055617658    0.0778844868839637    0.08001987020233574    0.0830247964782216    
  0.0868902782521208    0.09157095937203635    0.09696655773508196    0.10290841672525644    0.10915346002794    
  0.11538666964892615    0.12123558987949885    0.12630300665886446    0.13021757746178084    0.1326866818732814    
  0.13352970511550716    0.13268668187328142    0.13021757746178095    0.12630300665886451    0.1212355898794989    
  0.11538666964892623    0.10915346002794003    0.1029084167252565    0.09696655773508193    0.09157095937203626    
  0.08689027825212073    0.08302479647822153    0.08001987020233561    0.08777339148620641    0.08553763451769802    
  0.08406586430037448    0.08333671011697903    0.08333671011697902    0.08406586430037458    0.08553763451769815    
  0.08777339148620654    0.09078960772815166    0.09457817445685486    0.09908459511908088    0.10419116727219233    
  0.10971014455827834    0.11538666964892616    0.1209085488104719    0.12592413405707195    0.130074463446311    
  0.13303940249783375    0.1345832616056548    0.13458326160565484    0.13303940249783378    0.13007446344631116    
  0.12592413405707206    0.12090854881047194    0.11538666964892616    0.10971014455827832    0.10419116727219224    
  0.09908459511908081    0.09457817445685479    0.09078960772815148    0.08777339148620641    0.09628507346844374    
  0.09412715421693171    0.09262843316057304    0.09175007753784534    0.09146112573279779    0.09175007753784531    
  0.0926284331605732    0.09412715421693188    0.09628507346844391    0.09912897844193083    0.10264961007896464    
  0.10678163245324515    0.11139450461837917    0.11629499186135907    0.12123558987949885    0.12592413405707206    
  0.13003920660622229    0.13326089353401252    0.13531602520470756    0.1360222875615829    0.13531602520470756    
  0.13326089353401263    0.1300392066062223    0.125924134057072    0.12123558987949885    0.1162949918613591    
  0.11139450461837908    0.10678163245324508    0.10264961007896448    0.09912897844193067    0.09628507346844374    
  0.1052257167110846    0.1033550797210674    0.10203362215828886    0.10120209388181114    0.10080335049054816    
  0.1008033504905482    0.1012020938818113    0.10203362215828893    0.10335507972106762    0.10522571671108479    