#     DFTpy    
  CRYSTAL 
    
  PRIMVEC    
  1.7556044975451004    -3.040796187744551    0.0    
  1.7556044975451004    3.040796187744551    0.0    
  0.0    0.0    5.9358443487586205    
  PRIMCOORD    
  2    1    
  Si    1.7556044975451004    1.0135987292481805    1.4839610871896602    
  Si    1.7556044975451004    -1.0135987292481805    4.4518832615689705    
  BEGIN_BLOCK_DATAGRID_3D    
  3d_datagrid_density    
  BEGIN_DATAGRID_3D#0    
  37    37    61    
  0.0    0.0    0.0    
  1.7556045040935386    -3.0407961990867785    0.0    
  1.7556045040935386    3.0407961990867785    0.0    
  0.0    0.0    5.935844370899433    
  0.030771556030558953    0.03099623987374798    0.03167382129709353    0.032813041407755095    0.03442298743775318    
  0.03650691038153843    0.039056709488978346    0.04204955942713247    0.045446734253276784    0.04919269272766469    
  0.05321156703915204    0.057400117199996326    0.06162032346874721    0.06569768900109647    0.06943006585346713    
  0.07260693107050012    0.07503402079279557    0.07655641281892571    0.07707517252362825    0.07655641281892571    
  0.0750340207927955    0.07260693107049998    0.06943006585346688    0.06569768900109613    0.06162032346874677    
  0.057400117199995784    0.05321156703915135    0.049192692727663995    0.0454467342532761    0.04204955942713184    
  0.03905670948897782    0.03650691038153806    0.034422987437752975    0.03281304140775493    0.031673821297093424    
  0.03099623987374793    0.030771556030558953    0.03099623987374796    0.03099623987374798    0.031447397516717567    
  0.03235602360224551    0.033731481540979276    0.035580750727309325    0.03790251878074845    0.04068251499973797    
  0.04389099739783289    0.0474816035698699    0.05138912719597674    0.05552413752504925    0.059765482238281    
  0.0639554374582942    0.06790315365770361    0.07139887143999395    0.0742363129091573    0.07623716237081934    
  0.07727158445047726    0.0772715844504772    0.0762371623708193    0.07423631290915718    0.0713988714399938    
  0.06790315365770333    0.06395543745829381    0.059765482238280446    0.05552413752504862    0.051389127195976034    
  0.04748160356986924    0.04389099739783223    0.04068251499973739    0.037902518780748004    0.03558075072730901    
  0.03373148154097906    0.0323560236022454    0.03144739751671752    0.03099623987374796    0.03167382129709349    
  0.031447397516717594    0.0316738212970935    0.032356023602245494    0.033501504190831775    0.035118729105233074    
  0.03721202998298947    0.03977626058772178    0.042792503325289596    0.046225236238211204    0.05001978350640449    
  0.05409811103966624    0.058352571089735746    0.06264033966502269    0.06678329700145255    0.07057696949850352    
  0.07380853238192618    0.07628014903704548    0.0778321525360068    0.07836135555944351    0.07783215253600674    
  0.07628014903704547    0.07380853238192608    0.07057696949850331    0.06678329700145226    0.06264033966502228    
  0.058352571089735114    0.0540981110396656    0.05001978350640381    0.04622523623821053    0.04279250332528897    
  0.03977626058772127    0.03721202998298911    0.03511872910523279    0.03350150419083159    0.03235602360224542    
  0.03167382129709349    0.032813041407755    0.03235602360224547    0.03235602360224546    0.03281304140775503    
  0.033731481540979234    0.03511872910523305    0.03698207879787278    0.039324113977970025    0.042137354752507544    
  0.045399238735253554    0.04906768659586849    0.05307644726261083    0.057329665044375144    0.061696954300912585    
  0.0660120658254572    0.07007822487122961    0.07368137989577346    0.07661011538079185    0.07867885570071438    
  0.07974985705509072    0.07974985705509072    0.07867885570071431    0.0766101153807918    0.07368137989577332    
  0.07007822487122937    0.06601206582545688    0.06169695430091204    0.05732966504437454    0.05307644726261012    
  0.049067686595867764    0.04539923873525287    0.04213735475250699    0.03932411397796954    0.03698207879787243    
  0.0351187291052328    0.033731481540979116    0.032813041407755    0.034422987437753044    0.033731481540979186    
  0.033501504190831664    0.0337314815409792    0.034422987437753114    0.035580750727309235    0.03721202998298942    
  0.039324113977969984    0.04191945488738596    0.04498919490097599    0.048506268908093626    0.052418714116664815    
  0.05664349826746024    0.06106187241248113    0.06551813629778515    0.0698235879220641    0.07376647603151801    
  0.07712787493004532    0.07970246012872045    0.08132155261351788    0.08187415820977151    0.08132155261351783    
  0.07970246012872043    0.07712787493004529    0.07376647603151787    0.06982358792206382    0.06551813629778472    
  0.06106187241248046    0.05664349826745966    0.05241871411666409    0.04850626890809291    0.04498919490097537    
  0.041919454887385375    0.03932411397796953    0.03721202998298908    0.035580750727309034    0.034422987437753044    
  0.03650691038153814    0.035580750727309124    0.03511872910523289    0.035118729105232935    0.035580750727309166    
  0.03650691038153828    0.03790251878074828    0.03977626058772164    0.04213735475250748    0.04498919490097594    
  0.04832065333279068    0.05209675157079975    0.05625025155393752    0.06067585295609063    0.06522875865974874    
  0.06972849004244956    0.07396753233864736    0.07772420540826695    0.08077994705348968    0.0829408206724717    
  0.08406062916657565    0.08406062916657568    0.08294082067247165    0.0807799470534896    0.07772420540826687    
  0.07396753233864724    0.06972849004244923    0.06522875865974825    0.060675852956089994    0.05625025155393677    
  0.052096751570798974    0.048320653332789974    0.044989194900975325    0.04213735475250697    0.03977626058772128    
  0.03790251878074805    0.03650691038153814    0.03905670948897789    0.03790251878074808    0.037212029982989184    
  0.03698207879787253    0.037212029982989225    0.037902518780748184    0.03905670948897807    0.040682514999737726    
  0.04279250332528949    0.04539923873525348    0.04850626890809361    0.05209675157079976    0.0561222636354072    
  0.06049448139266248    0.06508223129268483    0.06971494803141766    0.0741912338972685    0.07829037445412758    
  0.08178647066509497    0.08446672130506674    0.0861540450802544    0.0867303352146204    0.08615404508025439    
  0.08446672130506673    0.08178647066509491    0.07829037445412758    0.0741912338972683    0.06971494803141728    
  0.06508223129268431    0.060494481392661836    0.05612226363540645    0.05209675157079898    0.04850626890809294    
  0.0453992387352529    0.04279250332528899    0.04068251499973743    0.03905670948897789    0.042049559427131886    
  0.040682514999737476    0.03977626058772134    0.039324113977969664    0.039324113977969685    0.039776260587721476    
  0.04068251499973762    0.042049559427132135    0.04389099739783265    0.04622523623821103    0.04906768659586849    
  0.0524187141166648    0.05625025155393755    0.06049448139266253    0.065038045472934    0.06972389159095323    
  0.07435970790033117    0.0787293975964854    0.08260528123971764    0.08576256310700023    0.08799906256235876    
  0.08915966767561634    0.08915966767561635    0.08799906256235879    0.0857625631070002    0.08260528123971761    
  0.07872939759648527    0.07435970790033089    0.06972389159095281    0.06503804547293345    0.06049448139266178    
  0.056250251553936766    0.052418714116664086    0.04906768659586782    0.04622523623821053    0.043890997397832254    
  0.042049559427131886    0.045446734253276125    0.04389099739783228    0.04279250332528905    0.04213735475250703    
  0.041919454887385486    0.04213735475250717    0.0427925033252892    0.04389099739783249    0.04544673425327643    
  0.047481603569869676    0.050019783506404424    0.05307644726261085    0.056643498267460346    0.06067585295609073    
  0.06508223129268488    0.06972389159095323    0.07442177650253522    0.07896837394609044    0.08313959873089809    
  0.08670613376742445    0.08944852323548518    0.09117966020444875    0.09177187778020263    0.0911796602044487    
  0.0894485232354852    0.08670613376742448    0.08313959873089796    0.0789683739460903    0.07442177650253495    
  0.06972389159095284    0.06508223129268431    0.06067585295609005    0.056643498267459624    0.05307644726261017    
  0.0500197835064038    0.047481603569869246    0.045446734253276125    0.04919269272766404    0.04748160356986927    
  0.04622523623821053    0.04539923873525297    0.044989194900975416    0.04498919490097543    0.04539923873525309    
  0.04622523623821072    0.04748160356986947    0.04919269272766437    0.05138912719597655    0.054098111039666205    
  0.05732966504437524    0.061061872412481184    0.06522875865974886    0.06971494803141776    0.07435970790033121    
  0.0789683739460905    0.083325199756271    0.0872035818836619    0.0903764402942504    0.09263359757656232    
  0.09380867656886183    0.09380867656886184    0.09263359757656232    0.0903764402942504    0.08720358188366181    
  0.08332519975627091    0.07896837394609034    0.0743597079003309    0.06971494803141733    0.0652287586597483    
  0.061061872412480546    0.05732966504437454    0.05409811103966559    0.05138912719597606    0.04919269272766404    
  0.05321156703915135    0.05138912719597607    0.050019783506403785    0.04906768659586779    0.048506268908092946    
  0.04832065333279005    0.04850626890809299    0.04906768659586792    0.05001978350640396    0.051389127195976325    
  0.053211567039151725    0.05552413752504911    0.058352571089735725    0.06169695430091267    0.06551813629778531    
  0.0697284900424497    0.07419123389726862    0.07872939759648548    0.08313959873089813    0.08720358188366197    
  0.09069610815342084    0.09339600451492344    0.09510818327176944    0.09569548914561041    0.09510818327176947    
  0.09339600451492344    0.09069610815342084    0.08720358188366185    0.08313959873089802    0.07872939759648537    
  0.07419123389726838    0.06972849004244928    0.06551813629778479    0.06169695430091209    0.058352571089735114    
  0.0555241375250486    0.05321156703915135    0.057400117199995715    0.055524137525048554    0.054098111039665504    
  0.0530764472626101    0.052418714116664    0.052096751570798946    0.05209675157079897    0.052418714116664045    
  0.053076447262610196    0.05409811103966569    0.05552413752504879    0.057400117199996104    0.059765482238280904    
  0.0626403396650228    0.06601206582545735    0.06982358792206424    0.07396753233864757    0.07829037445412777    
  0.08260528123971779    0.08670613376742455    0.09037644029425046    0.09339600451492347    0.09555535294230134    
  0.09668375849532097    0.09668375849532095    0.09555535294230137    0.09339600451492344    0.09037644029425039    
  0.08670613376742446    0.08260528123971768    0.0782903744541276    0.07396753233864725    0.0698235879220639    
  0.06601206582545685    0.06264033966502222    0.05976548223828041    0.057400117199995715    0.061620323468746706    
  0.05976548223828031    0.058352571089734954    0.05732966504437434    0.05664349826745941    0.0562502515539366    
  0.056122263635406254    0.05625025155393661    0.05664349826745949    0.05732966504437436    0.05835257108973513    
  0.059765482238280494    0.06162032346874703    0.06395543745829413    0.0667832970014526    0.07007822487122972    
  0.07376647603151817    0.07772420540826713    0.08178647066509516    0.08576256310700035    0.08944852323548527    
  0.09263359757656241    0.09510818327176948    0.09668375849532104    0.09722542180860166    0.09668375849532099    
  0.09510818327176947    0.09263359757656231    0.0894485232354852    0.08576256310700027    0.08178647066509494    
  0.07772420540826697    0.07376647603151788    0.07007822487122939    0.06678329700145222    0.06395543745829373    
  0.061620323468746706    0.06569768900109607    0.06395543745829355    0.062640339665022    0.06169695430091178    
  0.06106187241248017    0.060675852956089675    0.060494481392661455    0.06049448139266142    0.06067585295608962    
  0.06106187241248017    0.061696954300911766    0.06264033966502207    0.0639554374582938    0.06569768900109632    
  0.06790315365770355    0.07057696949850355    0.07368137989577353    0.07712787493004551    0.08077994705348983    
  0.08446672130506692    0.08799906256235893    0.09117966020444888    0.09380867656886198    0.0956954891456105    
  0.09668375849532104    0.09668375849532101    0.09569548914561045    0.0938086765688619    0.09117966020444875    
  0.08799906256235884    0.0844667213050668    0.08077994705348968    0.07712787493004533    0.07368137989577334    
  0.07057696949850326    0.06790315365770327    0.06569768900109607    0.06943006585346688    0.06790315365770305    
  0.06678329700145184    0.06601206582545638    0.06551813629778423    0.06522875865974774    0.06508223129268367    
  0.06503804547293283    0.06508223129268365    0.0652287586597476    0.06551813629778416    0.06601206582545635    
  0.06678329700145187    0.06790315365770318    0.06943006585346698    0.07139887143999393    0.0738085323819262    
  0.07661011538079196    0.07970246012872058    0.08294082067247187    0.0861540450802546    0.08915966767561653    
  0.09177187778020282    0.093808676568862    0.09510818327176956    0.09555535294230141    0.09510818327176951    
  0.09380867656886185    0.09177187778020272    0.08915966767561645    0.08615404508025443    0.08294082067247172    
  0.07970246012872043    0.07661011538079181    0.07380853238192603    0.07139887143999371    0.06943006585346688    
  0.07260693107049991    0.07139887143999346    0.07057696949850278    0.0700782248712287    0.06982358792206311    
  0.06972849004244853    0.06971494803141648    0.06972389159095194    0.06972389159095187    0.06971494803141635    
  0.06972849004244833    0.06982358792206295    0.07007822487122864    0.07057696949850278    0.07139887143999353    
  0.07260693107050002    0.07423631290915723    0.07628014903704555    0.07867885570071441    0.081321552613518    
  0.08406062916657583    0.08673033521462067    0.08915966767561657    0.09117966020444888    0.09263359757656245    
  0.09339600451492354    0.09339600451492348    0.09263359757656235    0.09117966020444875    0.0891596676756164    
  0.08673033521462041    0.08406062916657572    0.08132155261351785    0.07867885570071433    0.07628014903704543    
  0.07423631290915714    0.07260693107049991    0.07503402079279547    0.07423631290915686    0.07380853238192545    
  0.07368137989577253    0.07376647603151695    0.07396753233864631    0.07419123389726726    0.07435970790032982    
  0.07442177650253376    0.07435970790032964    0.07419123389726708    0.07396753233864602    0.07376647603151676    
  0.0736813798957724    0.07380853238192538    0.07423631290915685    0.0750340207927955    0.07623716237081933    
  0.07783215253600684    0.07974985705509072    0.08187415820977158    0.08406062916657592    0.08615404508025462    
  0.08799906256235898    0.08944852323548531    0.09037644029425056    0.0906961081534209    0.09037644029425042    
  0.0894485232354852    0.08799906256235882    0.08615404508025434    0.0840606291665757    0.08187415820977147    
  0.07974985705509069    0.07783215253600673    0.07623716237081926    0.07503402079279547    0.07655641281892571    
  0.07623716237081891    0.07628014903704472    0.07661011538079086    0.07712787493004422    0.07772420540826575    
  0.07829037445412632    0.07872939759648401    0.07896837394608897    0.07896837394608891    0.07872939759648383    
  0.07829037445412611    0.07772420540826551    0.07712787493004404    0.07661011538079072    0.07628014903704468    
  0.07623716237081887    0.07655641281892568    0.0772715844504772    0.07836135555944351    0.07974985705509074    
  0.08132155261351803    0.08294082067247194    0.084466721305067    0.08576256310700044    0.08670613376742464    
  0.08720358188366199    0.08720358188366192    0.0867061337674245    0.08576256310700024    0.0844667213050667    
  0.08294082067247167    0.08132155261351781    0.07974985705509068    0.07836135555944347    0.07727158445047712    
  0.07655641281892571    0.07707517252362822    0.07727158445047679    0.07783215253600594    0.07867885570071327    
  0.07970246012871918    0.08077994705348833    0.08178647066509354    0.08260528123971622    0.08313959873089655    
  0.08332519975626938    0.08313959873089641    0.08260528123971599    0.08178647066509329    0.08077994705348807    
  0.079702460128719    0.07867885570071317    0.07783215253600595    0.07727158445047674    0.07707517252362826    
  0.07727158445047719    0.07783215253600675    0.07867885570071442    0.07970246012872059    0.0807799470534899    
  0.08178647066509519    0.08260528123971785    0.0831395987308982    0.08332519975627102    0.08313959873089807    
  0.08260528123971762    0.08178647066509487    0.0807799470534896    0.0797024601287204    0.07867885570071431    
  0.07783215253600673    0.07727158445047719    0.07707517252362822    0.07655641281892575    0.07727158445047677    
  0.07836135555944272    0.07974985705508957    0.08132155261351653    0.08294082067247029    0.08446672130506529    
  0.08576256310699872    0.08670613376742292    0.08720358188366029    0.08720358188366026    0.08670613376742278    
  0.08576256310699854    0.08446672130506507    0.08294082067247001    0.08132155261351637    0.07974985705508947    
  0.07836135555944267    0.07727158445047681    0.07655641281892576    0.07623716237081936    0.07628014903704557    
  0.07661011538079195    0.07712787493004558    0.07772420540826719    0.0782903744541279    0.07872939759648555    
  0.07896837394609052    0.0789683739460905    0.07872939759648542    0.0782903744541276    0.07772420540826694    
  0.0771278749300453    0.07661011538079184    0.0762801490370455    0.07623716237081936    0.07655641281892575    
  0.0750340207927956    0.07623716237081897    0.07783215253600598    0.07974985705508952    0.08187415820977012    
  0.08406062916657428    0.08615404508025286    0.08799906256235727    0.08944852323548363    0.09037644029424885    
  0.09069610815341927    0.09037644029424877    0.08944852323548351    0.08799906256235705    0.08615404508025262    
  0.08406062916657404    0.08187415820976995    0.0797498570550895    0.07783215253600596    0.07623716237081898    
  0.07503402079279549    0.0742363129091573    0.07380853238192622    0.07368137989577361    0.0737664760315182    
  0.07396753233864761    0.07419123389726869    0.07435970790033124    0.07442177650253522    0.07435970790033118    
  0.0741912338972685    0.07396753233864739    0.07376647603151798    0.07368137989577346    0.07380853238192618    
  0.07423631290915732    0.0750340207927956    0.07260693107050017    0.07423631290915697    0.0762801490370448    
  0.07867885570071324    0.08132155261351649    0.08406062916657424    0.08673033521461884    0.08915966767561483    
  0.09117966020444718    0.09263359757656073    0.0933960045149218    0.0933960045149218    0.0926335975765607    
  0.09117966020444704    0.08915966767561463    0.0867303352146187    0.08406062916657404    0.08132155261351644    
  0.0786788557007132    0.07628014903704473    0.07423631290915692    0.07260693107050006    0.0713988714399939    
  0.07057696949850356    0.07007822487122978    0.06982358792206429    0.06972849004244974    0.06971494803141778    
  0.06972389159095325    0.06972389159095323    0.06971494803141765    0.06972849004244962    0.06982358792206407    
  0.07007822487122961    0.07057696949850355    0.07139887143999399    0.07260693107050017    0.0694300658534672    
  0.07139887143999372    0.07380853238192558    0.0766101153807909    0.07970246012871915    0.08294082067247026    
  0.08615404508025286    0.0891596676756148    0.09177187778020113    0.09380867656886033    0.0951081832717679    
  0.0955553529422998    0.09510818327176786    0.09380867656886024    0.09177187778020093    0.0891596676756147    
  0.08615404508025268    0.08294082067247006    0.07970246012871905    0.0766101153807908    0.07380853238192539    
  0.07139887143999346    0.06943006585346703    0.06790315365770357    0.0667832970014526    0.06601206582545736    
  0.06551813629778531    0.0652287586597488    0.06508223129268495    0.06503804547293407    0.06508223129268481    
  0.0652287586597488    0.0655181362977852    0.06601206582545727    0.06678329700145264    0.06790315365770366    
  0.0694300658534672    0.06569768900109652    0.06790315365770343    0.07057696949850302    0.07368137989577264    
  0.07712787493004424    0.0807799470534883    0.0844667213050652    0.08799906256235722    0.09117966020444716    
  0.09380867656886027    0.09569548914560881    0.09668375849531939    0.09668375849531942    0.09569548914560887    
  0.09380867656886022    0.09117966020444708    0.08799906256235705    0.08446672130506509    0.08077994705348815    
  0.07712787493004412    0.07368137989577242    0.07057696949850281    0.06790315365770316    0.06569768900109625    
  0.06395543745829407    0.06264033966502268    0.06169695430091263    0.06106187241248115    0.060675852956090695    
  0.060494481392662516    0.060494481392662496    0.060675852956090716    0.06106187241248113    0.06169695430091264    
  0.06264033966502279    0.06395543745829423    0.06569768900109652    0.06162032346874728    0.06395543745829406    
  0.06678329700145225    0.07007822487122897    0.07376647603151701    0.07772420540826576    0.08178647066509345    
  0.08576256310699866    0.08944852323548363    0.09263359757656076    0.0951081832717679    0.0966837584953194    
  0.09722542180860007    0.09668375849531942    0.09510818327176787    0.09263359757656074    0.08944852323548358    
  0.08576256310699856    0.08178647066509336    0.07772420540826556    0.07376647603151679    0.07007822487122864    
  0.06678329700145183    0.06395543745829373    0.06162032346874694    0.05976548223828082    0.05835257108973566    
  0.05732966504437511    0.05664349826746031    0.056250251553937536    0.05612226363540721    0.0562502515539375    
  0.05664349826746034    0.05732966504437521    0.05835257108973576    0.05976548223828104    0.06162032346874728    
  0.057400117199996395    0.05976548223828092    0.0626403396650225    0.06601206582545681    0.06982358792206335    
  0.07396753233864635    0.07829037445412634    0.08260528123971618    0.08670613376742298    0.09037644029424888    
  0.09339600451492187    0.09555535294229982    0.09668375849531943    0.09668375849531942    0.09555535294229975    
  0.0933960045149219    0.09037644029424884    0.08670613376742285    0.0826052812397161    0.07829037445412618    
  0.07396753233864609    0.06982358792206296    0.06601206582545634    0.06264033966502205    0.05976548223828048    
  0.05740011719999602    0.05552413752504905    0.05409811103966615    0.05307644726261083    0.05241871411666482    
  0.05209675157079975    0.052096751570799765    0.05241871411666483    0.0530764472626109    0.05409811103966634    
  0.05552413752504928    0.057400117199996395    0.05321156703915204    0.05552413752504925    0.05835257108973563    
  0.06169695430091228    0.06551813629778465    0.06972849004244878    0.07419123389726741    0.07872939759648406    
  0.08313959873089657    0.08720358188366034    0.09069610815341932    0.09339600451492187    0.09510818327176797    
  0.09569548914560891    0.09510818327176795    0.09339600451492189    0.09069610815341933    0.08720358188366031    
  0.08313959873089657    0.07872939759648391    0.07419123389726714    0.06972849004244838    0.06551813629778411    
  0.06169695430091175    0.05835257108973508    0.05552413752504879    0.05321156703915166    0.051389127195976464    
  0.050019783506404396    0.04906768659586849    0.04850626890809363    0.04832065333279074    0.048506268908093654    
  0.04906768659586853    0.05001978350640452    0.05138912719597676    0.05321156703915204    0.04919269272766471    
  0.05138912719597675    0.054098111039666205    0.05732966504437502    0.0610618724124808    0.06522875865974818    
  0.06971494803141685    0.07435970790033003    0.07896837394608912    0.08332519975626948    0.08720358188366033    
  0.09037644029424886    0.09263359757656082    0.09380867656886036    0.09380867656886036    0.09263359757656081    
  0.09037644029424886    0.08720358188366034    0.08332519975626945    0.078968373946089    0.07435970790032974    
  0.06971494803141637    0.0652287586597476    0.061061872412480137    0.05732966504437435    0.05409811103966567    
  0.051389127195976235    0.049192692727664356    0.04748160356986967    0.046225236238211044    0.04539923873525349    
  0.04498919490097599    0.04498919490097599    0.04539923873525356    0.046225236238211176    0.0474816035698699    
  0.04919269272766471    0.04544673425327672    0.04748160356986991    0.05001978350640449    0.053076447262610814    
  0.05664349826746015    0.060675852956090306    0.06508223129268424    0.0697238915909523    0.07442177650253406    
  0.07896837394608915    0.08313959873089655    0.08670613376742298    0.08944852323548363    0.09117966020444723    
  0.09177187778020116    0.09117966020444725    0.08944852323548368    0.08670613376742292    0.08313959873089659    
  0.07896837394608902    0.07442177650253377    0.06972389159095188    0.06508223129268358    0.060675852956089626    
  0.05664349826745946    0.053076447262610196    0.050019783506403966    0.04748160356986945    0.04544673425327644    
  0.04389099739783265    0.04279250332528948    0.04213735475250749    0.041919454887385896    0.0421373547525075    
  0.04279250332528954    0.04389099739783283    0.04544673425327672    0.0420495594271324    0.043890997397832865    
  0.046225236238211204    0.04906768659586854    0.052418714116664766    0.05625025155393733    0.06049448139266209    
  0.06503804547293338    0.06972389159095232    0.07435970790033003    0.07872939759648405    0.08260528123971622    
  0.08576256310699873    0.08799906256235727    0.08915966767561481    0.08915966767561485    0.08799906256235729    
  0.08576256310699872    0.08260528123971622    0.07872939759648402    0.07435970790032978    0.06972389159095194    
  0.06503804547293278    0.060494481392661385    0.056250251553936585    0.05241871411666408    0.049067686595867896    
  0.04622523623821066    0.04389099739783249    0.04204955942713215    0.04068251499973775    0.03977626058772167    
  0.03932411397796996    0.03932411397796995    0.039776260587721705    0.040682514999737886    0.0420495594271324    
  0.03905670948897826    0.040682514999737907    0.04279250332528962    0.04539923873525364    0.048506268908093696    
  0.05209675157079973    0.056122263635407    0.06049448139266214    0.06508223129268424    0.06971494803141681    
  0.07419123389726748    0.07829037445412639    0.08178647066509359    0.08446672130506527    0.08615404508025287    
  0.08673033521461888    0.08615404508025287    0.08446672130506527    0.08178647066509355    0.07829037445412637    
  0.07419123389726727    0.06971494803141647    0.06508223129268371    0.06049448139266144    0.056122263635406296    
  0.052096751570798995    0.048506268908093016    0.04539923873525305    0.042792503325289215    0.04068251499973762    
  0.03905670948897807    0.03790251878074825    0.03721202998298937    0.03698207879787268    0.03721202998298939    
  0.037902518780748344    0.03905670948897826    0.03650691038153837    0.0379025187807484    0.039776260587721775    
  0.04213735475250759    0.04498919490097607    0.04832065333279078    0.05209675157079975    0.056250251553937335    
  0.060675852956090334    0.06522875865974816    0.06972849004244881    0.07396753233864642    0.07772420540826581    
  0.08077994705348839    0.08294082067247027    0.08406062916657424    0.08406062916657425    0.08294082067247026    
  0.08077994705348833    0.07772420540826575    0.07396753233864621    0.06972849004244852    0.06522875865974774    
  0.06067585295608976    0.05625025155393665    0.052096751570798995    0.04832065333279005    0.044989194900975436    
  0.042137354752507156    0.039776260587721456    0.03790251878074818    0.036506910381538235    0.03558075072730918    
  0.035118729105232935    0.03511872910523299    0.03558075072730922    0.03650691038153837    0.03442298743775317    
  0.035580750727309284    0.037212029982989454    0.03932411397797008    0.04191945488738603    0.044989194900976116    
  0.048506268908093716    0.052418714116664815    0.056643498267460186    0.0610618724124808    0.0655181362977847    
  0.06982358792206342    0.0737664760315171    0.07712787493004432    0.07970246012871918    0.08132155261351659    
  0.08187415820977012    0.0813215526135165    0.07970246012871918    0.07712787493004422    0.07376647603151694    
  0.06982358792206314    0.06551813629778426    0.06106187241248026    0.056643498267459506    0.05241871411666406    
  0.048506268908092974    0.04498919490097538    0.04191945488738555    0.03932411397796971    0.03721202998298922    
  0.03558075072730913    0.03442298743775305    0.03373148154097912    0.033501504190831664    0.03373148154097921    
  0.03442298743775317    0.03281304140775504    0.033731481540979276    0.035118729105233046    0.03698207879787279    
  0.039324113977970095    0.042137354752507655    0.04539923873525368    0.04906768659586857    0.05307644726261087    
  0.05732966504437502    0.06169695430091233    0.06601206582545681    0.07007822487122903    0.07368137989577264    
  0.07661011538079095    0.0786788557007133    0.07974985705508951    0.07974985705508952    0.07867885570071328    