#     DFTpy    
  CRYSTAL 
    
  PRIMVEC    
  1.4247052205209    -2.4676618277508107    0.0    
  1.4247052205209    2.4676618277508107    0.0    
  0.0    0.0    4.817046461034481    
  PRIMCOORD    
  2    1    
  Si    1.4247052205209    0.8225539425836002    1.2042616152586203    
  Si    1.4247052205209    -0.8225539425836002    3.612784845775861    
  BEGIN_BLOCK_DATAGRID_3D    
  3d_datagrid_density    
  BEGIN_DATAGRID_3D#0    
  28    28    49    
  0.0    0.0    0.0    
  1.4247052258350776    -2.4676618369552363    0.0    
  1.4247052258350776    2.4676618369552363    0.0    
  0.0    0.0    4.8170464790021565    
  0.09262314947238899    0.09383354042022166    0.09744905550710284    0.10342092923695699    0.11165656552975944    
  0.12198869877719037    0.13412126242378603    0.14757204139653596    0.16165242821979933    0.17551106843226003    
  0.18821997550687636    0.19885370732228697    0.20655124777335793    0.2106061633846661    0.21060616338466612    
  0.20655124777335804    0.19885370732228697    0.18821997550687625    0.17551106843225975    0.1616524282197989    
  0.14757204139653546    0.13412126242378558    0.12198869877718999    0.11165656552975926    0.10342092923695687    
  0.09744905550710284    0.09383354042022167    0.09262314947238899    0.09383354042022181    0.09383354042022178    
  0.09624645230755625    0.10104023622207273    0.10814615526441113    0.11743934511486905    0.12869530471336924    
  0.14153035617476376    0.1553588357035233    0.16940471551502603    0.18277103937792835    0.1945258989850292    
  0.20376944787532972    0.20970435914513016    0.2117541010320952    0.2097043591451303    0.20376944787532972    
  0.1945258989850291    0.1827710393779282    0.16940471551502564    0.15535883570352274    0.14153035617476328    
  0.1286953047133688    0.1174393451148687    0.1081461552644109    0.10104023622207262    0.09624645230755628    
  0.09383354042022181    0.09744905550710298    0.09624645230755634    0.09744905550710296    0.1010402362220728    
  0.10696916644956471    0.11514113453185817    0.1253864057180747    0.13740652595866523    0.1507206906594818    
  0.16464960917006008    0.1783574925933452    0.19093085418400005    0.20145300544843536    0.20906890894338367    
  0.21307965835931605    0.21307965835931608    0.20906890894338362    0.20145300544843536    0.19093085418399988    
  0.17835749259334477    0.1646496091700596    0.15072069065948132    0.1374065259586648    0.12538640571807425    
  0.11514113453185798    0.10696916644956452    0.10104023622207266    0.09744905550710298    0.10342092923695703    
  0.10104023622207273    0.1010402362220727    0.10342092923695705    0.10814615526441113    0.11514113453185827    
  0.12427439744333962    0.1353153664817021    0.14787996553730715    0.16139574887756403    0.1751144189283549    
  0.18817009955114886    0.19965327286885978    0.20867925576651705    0.21446888613461593    0.21646682938902465    
  0.2144688861346158    0.20867925576651705    0.19965327286885973    0.18817009955114855    0.17511441892835442    
  0.1613957488775635    0.14787996553730665    0.13531536648170164    0.12427439744333922    0.11514113453185804    
  0.108146155264411    0.10342092923695703    0.11165656552975944    0.10814615526441107    0.10696916644956465    
  0.10814615526441113    0.11165656552975943    0.11743934511486893    0.1253864057180747    0.135315366481702    
  0.14692331731794067    0.15974382118927552    0.17313451682799402    0.1863069042025631    0.19838660590889032    
  0.2084847063701078    0.21577770851491931    0.21960957850298027    0.21960957850298019    0.2157777085149192    
  0.20848470637010774    0.19838660590889015    0.18630690420256282    0.17313451682799363    0.15974382118927502    
  0.1469233173179402    0.13531536648170167    0.12538640571807438    0.11743934511486882    0.11165656552975944    
  0.1219886987771902    0.11743934511486889    0.11514113453185813    0.1151411345318582    0.11743934511486886    
  0.12198869877719024    0.12869530471336915    0.13740652595866515    0.14787996553730706    0.1597438211892756    
  0.17246923103969228    0.18537100245110633    0.19764190058065043    0.20841616877568794    0.21685441148676682    
  0.22224287430234038    0.224096574054805    0.22224287430234038    0.21685441148676685    0.20841616877568778    
  0.19764190058065018    0.185371002451106    0.17246923103969186    0.15974382118927502    0.14787996553730673    
  0.13740652595866484    0.12869530471336887    0.1219886987771902    0.1341212624237858    0.12869530471336896    
  0.12538640571807455    0.12427439744333936    0.1253864057180746    0.12869530471336904    0.1341212624237858    
  0.14153035617476362    0.15072069065948174    0.16139574887756403    0.17313451682799405    0.18537100245110644    
  0.19739726410571565    0.2084042254288534    0.21756393855572415    0.22413615350708424    0.2275688165375984    
  0.22756881653759853    0.22413615350708416    0.21756393855572406    0.20840422542885323    0.1973972641057154    
  0.18537100245110608    0.17313451682799372    0.16139574887756358    0.15072069065948146    0.1415303561747634    
  0.1341212624237858    0.14757204139653568    0.1415303561747635    0.13740652595866507    0.13531536648170184    
  0.1353153664817018    0.1374065259586649    0.14153035617476342    0.14757204139653562    0.15535883570352307    
  0.1646496091700601    0.17511441892835503    0.1863069042025633    0.1976419005806506    0.20840422542885348    
  0.217811830019626    0.22512484237377903    0.22975630736104166    0.23134088113477416    0.22975630736104152    
  0.22512484237377872    0.2178118300196258    0.2084042254288532    0.1976419005806502    0.18630690420256296    
  0.17511441892835458    0.16464960917005983    0.15535883570352296    0.14757204139653568    0.1616524282197992    
  0.15535883570352294    0.15072069065948146    0.14787996553730676    0.14692331731794026    0.14787996553730665    
  0.15072069065948138    0.15535883570352274    0.16165242821979903    0.169404715515026    0.17835749259334538    
  0.18817009955114913    0.19838660590889068    0.20841616877568828    0.21756393855572442    0.22512484237377903    
  0.23050213317564933    0.23328930149920588    0.23328930149920593    0.23050213317564924    0.22512484237377883    
  0.2175639385557242    0.20841616877568792    0.19838660590889037    0.18817009955114886    0.1783574925933451    
  0.16940471551502584    0.1616524282197992    0.17551106843225994    0.16940471551502576    0.16464960917005975    
  0.16139574887756353    0.1597438211892749    0.15974382118927483    0.16139574887756328    0.16464960917005939    
  0.1694047155150256    0.17551106843225975    0.18277103937792843    0.19093085418400027    0.19965327286886025    
  0.2084847063701083    0.21685441148676732    0.22413615350708466    0.22975630736104186    0.23328930149920601    
  0.2344922914847219    0.23328930149920588    0.22975630736104158    0.22413615350708432    0.21685441148676696    
  0.20848470637010794    0.19965327286885995    0.19093085418400008    0.18277103937792838    0.17551106843225994    
  0.18821997550687647    0.18277103937792835    0.17835749259334496    0.17511441892835458    0.1731345168279935    
  0.17246923103969164    0.1731345168279933    0.17511441892835414    0.17835749259334455    0.182771039377928    
  0.18821997550687625    0.19452589898502928    0.20145300544843586    0.20867925576651764    0.21577770851491992    
  0.22224287430234094    0.22756881653759897    0.23134088113477444    0.23328930149920607    0.233289301499206    
  0.23134088113477436    0.22756881653759867    0.22224287430234052    0.2157777085149194    0.20867925576651725    
  0.20145300544843553    0.19452589898502926    0.18821997550687647    0.19885370732228713    0.1945258989850292    
  0.19093085418399997    0.18817009955114872    0.1863069042025627    0.1853710024511057    0.18537100245110558    
  0.18630690420256227    0.18817009955114808    0.19093085418399944    0.1945258989850288    0.19885370732228702    
  0.20376944787532994    0.20906890894338423    0.21446888613461662    0.21960957850298107    0.22409657405480574    
  0.22756881653759897    0.22975630736104194    0.23050213317564938    0.2297563073610418    0.22756881653759867    
  0.22409657405480526    0.2196095785029804    0.21446888613461607    0.20906890894338384    0.20376944787532994    
  0.19885370732228713    0.2065512477733581    0.2037694478753298    0.2014530054484354    0.19965327286885975    
  0.1983866059088901    0.19764190058065    0.197397264105715    0.19764190058064965    0.19838660590888954    
  0.19965327286885914    0.20145300544843484    0.20376944787532933    0.2065512477733579    0.20970435914513047    
  0.2130796583593166    0.2164668293890255    0.21960957850298096    0.222242874302341    0.2241361535070847    
  0.2251248423737791    0.22512484237377905    0.22413615350708443    0.22224287430234052    0.2196095785029804    
  0.21646682938902476    0.21307965835931625    0.20970435914513041    0.2065512477733581    0.21060616338466615    
  0.20970435914513028    0.20906890894338367    0.20867925576651705    0.20848470637010771    0.2084161687756877    
  0.208404225428853    0.2084042254288528    0.2084161687756873    0.2084847063701072    0.2086792557665164    
  0.2090689089433831    0.20970435914512986    0.2106061633846661    0.21175410103209552    0.2130796583593167    
  0.2144688861346166    0.21577770851491995    0.2168544114867675    0.21756393855572456    0.21781183001962617    
  0.2175639385557244    0.2168544114867671    0.21577770851491945    0.214468886134616    0.21307965835931608    
  0.21175410103209516    0.21060616338466615    0.21060616338466606    0.2117541010320951    0.21307965835931605    
  0.21446888613461598    0.2157777085149192    0.21685441148676685    0.217563938555724    0.21781183001962554    
  0.21756393855572373    0.2168544114867665    0.21577770851491873    0.21446888613461526    0.21307965835931558    
  0.211754101032095    0.21060616338466615    0.20970435914513066    0.2090689089433843    0.2086792557665178    
  0.20848470637010852    0.20841616877568847    0.20840422542885362    0.20840422542885362    0.20841616877568814    
  0.20848470637010794    0.2086792557665171    0.20906890894338367    0.20970435914513016    0.21060616338466606    
  0.20655124777335793    0.2097043591451301    0.21307965835931605    0.21646682938902465    0.2196095785029804    
  0.22224287430234052    0.2241361535070843    0.22512484237377886    0.22512484237377878    0.22413615350708405    
  0.22224287430234002    0.2196095785029798    0.2164668293890241    0.21307965835931564    0.20970435914512997    
  0.20655124777335804    0.2037694478753301    0.201453005448436    0.19965327286886042    0.1983866059088909    
  0.1976419005806508    0.19739726410571587    0.19764190058065056    0.19838660590889048    0.19965327286885987    
  0.2014530054484354    0.20376944787532963    0.20655124777335793    0.19885370732228685    0.20376944787532966    
  0.20906890894338356    0.21446888613461587    0.21960957850298038    0.22409657405480532    0.22756881653759867    
  0.22975630736104172    0.23050213317564933    0.22975630736104158    0.22756881653759842    0.22409657405480485    
  0.21960957850297985    0.21446888613461546    0.20906890894338323    0.20376944787532963    0.19885370732228713    
  0.19452589898502948    0.19093085418400055    0.18817009955114927    0.18630690420256352    0.1853710024511066    
  0.18537100245110652    0.1863069042025632    0.18817009955114888    0.19093085418399994    0.19452589898502906    
  0.19885370732228685    0.18821997550687625    0.19452589898502895    0.20145300544843525    0.20867925576651689    
  0.21577770851491926    0.22224287430234058    0.22756881653759875    0.2313408811347744    0.23328930149920607    
  0.23328930149920601    0.23134088113477425    0.22756881653759842    0.2222428743023401    0.21577770851491884    
  0.20867925576651655    0.20145300544843503    0.19452589898502895    0.1882199755068764    0.1827710393779287    
  0.17835749259334552    0.17511441892835516    0.17313451682799427    0.1724692310396924    0.17313451682799405    
  0.1751144189283548    0.1783574925933451    0.18277103937792827    0.18821997550687625    0.17551106843225986    
  0.18277103937792816    0.19093085418399983    0.19965327286885967    0.20848470637010774    0.21685441148676698    
  0.22413615350708446    0.22975630736104188    0.23328930149920615    0.23449229148472203    0.23328930149920601    
  0.22975630736104166    0.22413615350708416    0.21685441148676662    0.20848470637010735    0.19965327286885937    
  0.19093085418399963    0.18277103937792818    0.17551106843225997    0.16940471551502606    0.16464960917006016    
  0.16139574887756414    0.15974382118927558    0.1597438211892755    0.1613957488775639    0.16464960917005994    
  0.16940471551502584    0.17551106843225986    0.16165242821979922    0.1694047155150258    0.17835749259334494    
  0.1881700995511487    0.19838660590889018    0.20841616877568794    0.21756393855572428    0.22512484237377917    
  0.23050213317564963    0.2332893014992062    0.23328930149920615    0.23050213317564947    0.22512484237377892    
  0.217563938555724    0.20841616877568758    0.19838660590888982    0.18817009955114833    0.17835749259334477    
  0.1694047155150258    0.1616524282197992    0.1553588357035232    0.15072069065948185    0.14787996553730717    
  0.14692331731794064    0.14787996553730706    0.15072069065948168    0.1553588357035231    0.16165242821979922    
  0.14757204139653585    0.1553588357035231    0.1646496091700599    0.1751144189283547    0.18630690420256302    
  0.19764190058065023    0.2084042254288533    0.217811830019626    0.2251248423737791    0.22975630736104202    
  0.23134088113477458    0.22975630736104202    0.22512484237377903    0.2178118300196259    0.20840422542885306    
  0.19764190058064993    0.18630690420256246    0.17511441892835436    0.1646496091700596    0.15535883570352282    
  0.1475720413965357    0.14153035617476367    0.13740652595866515    0.13531536648170195    0.13531536648170195    
  0.1374065259586651    0.14153035617476362    0.14757204139653585    0.1341212624237859    0.1415303561747636    
  0.15072069065948168    0.16139574887756383    0.17313451682799386    0.1853710024511062    0.19739726410571548    
  0.20840422542885342    0.21756393855572428    0.2241361535070846    0.2275688165375989    0.22756881653759883    
  0.22413615350708452    0.2175639385557242    0.2084042254288532    0.19739726410571523    0.1853710024511057    
  0.17313451682799333    0.16139574887756347    0.1507206906594813    0.1415303561747634    0.1341212624237858    
  0.12869530471336899    0.12538640571807452    0.12427439744333939    0.12538640571807458    0.12869530471336904    
  0.1341212624237859    0.12198869877719021    0.12869530471336912    0.13740652595866518    0.14787996553730717    
  0.15974382118927535    0.1724692310396922    0.18537100245110624    0.19764190058065034    0.20841616877568797    
  0.2168544114867671    0.22224287430234077    0.2240965740548055    0.22224287430234071    0.2168544114867671    
  0.20841616877568792    0.19764190058065015    0.18537100245110583    0.17246923103969167    0.1597438211892749    
  0.1478799655373066    0.13740652595866487    0.12869530471336893    0.1219886987771901    0.11743934511486877    
  0.11514113453185798    0.11514113453185798    0.11743934511486873    0.12198869877719021    0.11165656552975937    
  0.1174393451148689    0.12538640571807463    0.13531536648170212    0.1469233173179407    0.15974382118927546    
  0.17313451682799394    0.186306904202563    0.19838660590889026    0.20848470637010794    0.21577770851491948    
  0.2196095785029806    0.21960957850298055    0.21577770851491948    0.20848470637010785    0.19838660590889023    
  0.1863069042025627    0.1731345168279935    0.159743821189275    0.14692331731794014    0.13531536648170164    
  0.1253864057180744    0.11743934511486873    0.11165656552975924    0.1081461552644109    0.1069691664495644    
  0.10814615526441083    0.11165656552975937    0.10342092923695692    0.108146155264411    0.11514113453185817    
  0.12427439744333957    0.13531536648170214    0.14787996553730717    0.16139574887756394    0.17511441892835491    
  0.18817009955114888    0.19965327286885992    0.2086792557665171    0.21446888613461607    0.21646682938902484    
  0.21446888613461607    0.2086792557665172    0.19965327286885987    0.1881700995511486    0.17511441892835444    
  0.16139574887756344    0.14787996553730656    0.13531536648170167    0.12427439744333926    0.11514113453185798    
  0.10814615526441093    0.10342092923695681    0.10104023622207256    0.10104023622207256    0.10342092923695692    
  0.09744905550710284    0.10104023622207269    0.10696916644956468    0.11514113453185822    0.12538640571807477    
  0.13740652595866526    0.15072069065948185    0.16464960917006002    0.1783574925933452    0.19093085418400008    
  0.20145300544843547    0.2090689089433837    0.21307965835931608    0.2130796583593162    0.20906890894338379    
  0.20145300544843553    0.19093085418399997    0.17835749259334488    0.1646496091700596    0.1507206906594812    
  0.13740652595866482    0.12538640571807436    0.11514113453185794    0.10696916644956447    0.10104023622207259    
  0.09744905550710282    0.09624645230755617    0.09744905550710284    0.09383354042022171    0.09624645230755624    
  0.1010402362220726    0.10814615526441106    0.11743934511486896    0.12869530471336926    0.14153035617476384    
  0.1553588357035232    0.16940471551502603    0.18277103937792843    0.1945258989850292    0.2037694478753297    
  0.20970435914513016    0.2117541010320952    0.2097043591451303    0.2037694478753298    0.19452589898502912    
  0.18277103937792827    0.16940471551502573    0.1553588357035228    0.14153035617476317    0.12869530471336887    
  0.11743934511486866    0.10814615526441086    0.10104023622207262    0.09624645230755619    0.09383354042022164    
  0.09383354042022171    0.09262314947238899    0.09383354042022166    0.09744905550710284    0.10342092923695699    
  0.11165656552975944    0.12198869877719037    0.13412126242378603    0.14757204139653596    0.16165242821979933    
  0.17551106843226003    0.18821997550687636    0.19885370732228697    0.20655124777335793    0.2106061633846661    
  0.21060616338466612    0.20655124777335804    0.19885370732228697    0.18821997550687625    0.17551106843225975    
  0.1616524282197989    0.14757204139653546    0.13412126242378558    0.12198869877718999    0.11165656552975926    
  0.10342092923695687    0.09744905550710284    0.09383354042022167    0.09262314947238899    0.09388905767700577    
  0.09512288095663812    0.09880538123607474    0.1048796101612925    0.11324385387464925    0.12372430530522559    
  0.13602233264573452    0.14965595854425326    0.1639357809252258    0.17800328672008114    0.1909140377945419    
  0.2017203337257277    0.20954146949794805    0.21365993093834906    0.21365993093834906    0.20954146949794814    
  0.20172033372572767    0.1909140377945419    0.1780032867200809    0.16393578092522534    0.14965595854425282    
  0.13602233264573407    0.12372430530522521    0.11324385387464908    0.10487961016129241    0.09880538123607474    
  0.09512288095663815    0.09388905767700577    0.09512288095663828    0.09512288095663826    0.09745669530550342    
  0.10209816435439446    0.10898665857863266    0.11800310103411492    0.12892512340550188    0.14137188905488846    
  0.15476930785707968    0.16836714069676856    0.1813058603533601    0.19269267465990703    0.20165803847157268    
  0.2074217633003259    0.209413977133228    0.20742176330032602    0.20165803847157265    0.19269267465990694    
  0.18130586035335988    0.16836714069676814    0.15476930785707915    0.14137188905488796    0.12892512340550147    
  0.11800310103411459    0.10898665857863249    0.10209816435439434    0.09745669530550345    0.09512288095663828    
  0.09880538123607487    0.09770536103134077    0.09880538123607484    0.10209816435439455    0.10755544562689978    
  0.11510594227934279    0.124594566254731    0.13573015658772258    0.1480454483302469    0.1608986395396808    
  0.17352398960606372    0.1851010199798133    0.19480484470115003    0.2018477561944833    0.20556607223637272    
  0.20556607223637277    0.2018477561944833    0.19480484470115    0.1851010199798131    0.17352398960606336    
  0.16089863953968028    0.1480454483302464    0.1357301565877221    0.12459456625473059    0.11510594227934255    
  0.10755544562689959    0.10209816435439441    0.09880538123607487    0.10487961016129259    0.10282124728390332    
  0.1028212472839033    0.10487961016129257    0.1089866585786327    0.11510594227934288    0.1231383191006338    
  0.13287257109026884    0.14394179228668066    0.1558121734665365    0.167817160342844    0.17921792052655586    
  0.18925275533961375    0.19716675375048015    0.20226473030189265    0.2040290841472458    0.20226473030189251    
  0.19716675375048012    0.18925275533961367    0.1792179205265555    0.16781716034284347    0.1558121734665359    
  0.14394179228668014    0.13287257109026834    0.1231383191006334    0.11510594227934261    0.10898665857863259    
  0.10487961016129259    0.11324385387464923    0.11037708808749128    0.10942053789434393    0.11037708808749133    
  0.11324385387464925    0.11800310103411485    0.12459456625473103    0.13287257109026876    0.14256231100373418    
  0.15323814571323766    0.16433986842651202    0.17521923214158666    0.18518756432297806    0.1935450719056718    
  0.19961374847449984    0.202818613712584    0.20281861371258392    0.19961374847449978    0.19354507190567177    
  0.18518756432297784    0.17521923214158627    0.1643398684265116    0.1532381457132371    0.14256231100373365    
  0.1328725710902684    0.12459456625473067    0.11800310103411468    0.11324385387464923    0.1237243053052254    
  0.12022736004120285    0.11847345380106765    0.11847345380106768    0.12022736004120281    0.12372430530522546    
  0.12892512340550183    0.13573015658772253    0.14394179228668064    0.1532381457132377    0.16317259974090023    
  0.1732003631251533    0.1827164964581034    0.1910876460679699    0.19768131484386264    0.20192128845072968    
  0.20338677096070212    0.20192128845072957    0.19768131484386262    0.19108764606796969    0.18271649645810306    
  0.17320036312515283    0.16317259974089973    0.1532381457132371    0.14394179228668016    0.13573015658772217    
  0.1289251234055015    0.1237243053052254    0.1360223326457343    0.13213668214625557    0.12978637930904435    
  0.12900055374283315    0.12978637930904438    0.13213668214625568    0.13602233264573432    0.14137188905488834    
  0.14804544833024683    0.1558121734665365    0.16433986842651213    0.17320036312515344    0.1818884485370533    
  0.18984865415230626    0.19650823225924485    0.201324797150399    0.20385854576573903    0.20385854576573903    
  0.20132479715039886    0.1965082322592446    0.189848654152306    0.18188844853705294    0.17320036312515294    
  0.16433986842651171    0.15581217346653595    0.14804544833024655    0.1413718890548881    0.1360223326457343    
  0.14965595854425306    0.14571587460178956    0.14304738747700457    0.14170273397661282    0.1417027339766128    
  0.14304738747700438    0.14571587460178945    0.149655958544253    0.15476930785707954    0.1608986395396809    
  0.16781716034284408    0.17521923214158688    0.18271649645810362    0.18984865415230642    0.19611515657902337    
  0.20102582112016537    0.20416257017662712    0.20524174332178835    0.20416257017662698    0.201025821120165    
  0.1961151565790231    0.18984865415230603    0.18271649645810312    0.1752192321415864    0.16781716034284366    
  0.16089863953968053    0.15476930785707937    0.14965595854425306    0.16393578092522565    0.16036639033550154    
  0.15775664359464744    0.15616947232667214    0.1556372772326206    0.15616947232667205    0.1577566435946473    
  0.16036639033550143    0.16393578092522554    0.16836714069676864    0.17352398960606397    0.1792179205265562    
  0.18518756432297848    0.19108764606797032    0.19650823225924505    0.20102582112016548    0.20426657964275086    
  0.20595791688317552    0.20595791688317552    0.20426657964275066    0.20102582112016515    0.19650823225924471    
  0.19108764606796982    0.18518756432297803    0.17921792052655577    0.17352398960606363    0.1683671406967684    
  0.16393578092522565    0.17800328672008112    0.17527753030159274    0.17318729508522931    0.17177450478776352    
  0.1710634543857907    0.17106345438579065    0.17177450478776332    0.173187295085229    0.17527753030159265    
  0.178003286720081    0.18130586035336022    0.1851010199798136    0.1892527553396143    0.1935450719056724    
  0.19768131484386317    0.2013247971503995    0.20416257017662737    0.20595791688317563    0.2065713521209779    
  0.20595791688317544    0.20416257017662706    0.20132479715039905    0.1976813148438627    0.19354507190567194    
  0.18925275533961383    0.18510101997981326    0.18130586035336008    0.17800328672008112    0.1909140377945421    
  0.18948994663856697    0.18841199424904334    0.18766390618500592    0.18722705355536154    0.18708396699269655    
  0.18722705355536134    0.18766390618500556    0.18841199424904292    0.1894899466385666    0.190914037794542    
  0.19269267465990728    0.19480484470115061    0.19716675375048084    0.19961374847450053    0.20192128845073026    
  0.20385854576573953    0.2052417433217887    0.20595791688317572    0.20595791688317555    0.2052417433217885    
  0.20385854576573922    0.20192128845072976    0.19961374847449995    0.19716675375048032    0.19480484470115017    
  0.19269267465990714    0.1909140377945421    0.20172033372572787    0.2019921837644472    0.20238864121720035    
  0.20281043223372947    0.20316134358066468    0.20336078146578285    0.20336078146578274    0.20316134358066432    
  0.20281043223372897    0.20238864121719988    0.20199218376444691    0.20172033372572787    0.20165803847157301    
  0.20184775619448408    0.20226473030189349    0.20281861371258486    0.20338677096070293    0.2038585457657396    
  0.20416257017662745    0.2042665796427509    0.2041625701766273    0.2038585457657393    0.20338677096070235    
  0.2028186137125841    0.2022647303018928    0.20184775619448347    0.20165803847157288    0.20172033372572787    
  0.20954146949794825    0.21181129031284626    0.21406695514136326    0.21611642572488451    0.21776444384571747    
  0.2188369034620865    0.21920960049857838    0.21883690346208623    0.21776444384571697    0.21611642572488401    
  0.21406695514136279    0.21181129031284593    0.2095414694979482    0.2074217633003265    0.20556607223637355    
  0.20402908414724666    0.20281861371258475    0.20192128845073032    0.20132479715039958    0.2010258211201655    
  0.20102582112016543    0.2013247971503992    0.2019212884507298    0.20281861371258417    0.20402908414724588    
  0.2055660722363729    0.2074217633003261    0.20954146949794825    0.21365993093834912    0.21810334762150255    
  0.2224917696818614    0.22653347476459115    0.2299225908508751    0.232373622682586    0.23366170127069966    
  0.2336617012706995    0.23237362268258566    0.2299225908508747    0.22653347476459065    0.222491769681861    
  0.21810334762150227    0.2136599309383493    0.20941397713322854    0.20556607223637355    0.20226473030189346    
  0.1996137484745006    0.19768131484386336    0.19650823225924524    0.19611515657902356    0.19650823225924502    
  0.1976813148438629    0.19961374847450003    0.2022647303018927    0.20556607223637277    0.209413977133228    
  0.21365993093834912    0.21365993093834904    0.2202732971168739    0.2269140705452254    0.2331820839593667    
  0.238648866932181    0.24290290099539788    0.2456041556402246    0.24653025347852087    0.24560415564022425    
  0.24290290099539757    0.2386488669321806    0.23318208395936615    0.2269140705452251    0.2202732971168739    
  0.2136599309383493    0.2074217633003267    0.20184775619448414    0.19716675375048104    0.19354507190567266    
  0.19108764606797046    0.18984865415230656    0.1898486541523065    0.1910876460679701    0.19354507190567194    
  0.1971667537504803    0.2018477561944833    0.20742176330032594    0.21365993093834904    0.20954146949794805    
  0.21810334762150232    0.22691407054522544    0.23546861114588083    0.24320796390033259    0.2495760686314329    
  0.2540979421542465    0.25644161105832447    0.2564416110583244    0.2540979421542464    0.24957606863143242    
  0.2432079639003321    0.23546861114588047    0.2269140705452251    0.21810334762150235    0.20954146949794833    
  0.2016580384715732    0.19480484470115075    0.1892527553396145    0.1851875643229787    0.18271649645810378    
  0.18188844853705355    0.18271649645810353    0.1851875643229782    0.18925275533961383    0.19480484470115006    
  0.2016580384715726    0.20954146949794805    0.20172033372572756    0.21181129031284607    0.22249176968186118    
  0.2331820839593666    0.24320796390033247    0.25186035081799324    0.25850118524358395    0.26266127511926207    
  0.26407538740883524    0.2626612751192619    0.25850118524358373    0.25186035081799296    0.2432079639003321    
  0.23318208395936632    0.22249176968186113    0.21181129031284626    0.20172033372572795    0.19269267465990744    
  0.18510101997981382    0.1792179205265563    0.17521923214158713    0.17320036312515363    0.17320036312515344    