#     DFTpy    
  CRYSTAL 
    
  PRIMVEC    
  1.50743003977695    -2.6109454177492504    0.0    
  1.50743003977695    2.6109454177492504    0.0    
  0.0    0.0    5.096745932965521    
  PRIMCOORD    
  2    1    
  Si    1.50743003977695    0.8703151392497501    1.2741864832413805    
  Si    1.50743003977695    -0.8703151392497501    3.822559449724141    
  BEGIN_BLOCK_DATAGRID_3D    
  3d_datagrid_density    
  BEGIN_DATAGRID_3D#0    
  31    31    49    
  0.0    0.0    0.0    
  1.507430045399693    -2.6109454274881267    0.0    
  1.507430045399693    2.6109454274881267    0.0    
  0.0    0.0    5.09674595197648    
  0.06895570326000455    0.06967187701635325    0.07183185787131963    0.07545946902934136    0.08056351467395483    
  0.08710416434862522    0.09496468225061087    0.10393549253770835    0.11370995192987693    0.1238860295574123    
  0.13397110997145475    0.14339704941134673    0.1515581788042468    0.15787572284466153    0.16187363392941667    
  0.16324195263086816    0.16187363392941667    0.15787572284466153    0.1515581788042467    0.14339704941134673    
  0.13397110997145475    0.1238860295574123    0.11370995192987697    0.10393549253770844    0.09496468225061096    
  0.0871041643486253    0.08056351467395488    0.07545946902934138    0.07183185787131968    0.06967187701635325    
  0.06895570326000455    0.06967187701635327    0.06967187701635323    0.07111025444506983    0.07400621364897428    
  0.07837829318416352    0.08421301897208523    0.09143388596680427    0.09987963443085288    0.10929410664286009    
  0.1193239794151349    0.1295204683787473    0.13934821775903994    0.14821233082858434    0.1555118071622535    
  0.16071239303472376    0.16341749284450285    0.16341749284450283    0.1607123930347238    0.15551180716225343    
  0.1482123308285844    0.13934821775904    0.12952046837874737    0.11932397941513494    0.1092941066428602    
  0.09987963443085299    0.09143388596680431    0.0842130189720853    0.07837829318416362    0.07400621364897424    
  0.07111025444506988    0.06967187701635327    0.0718318578713197    0.07111025444506992    0.07183185787131968    
  0.07400621364897428    0.07765155669206006    0.08276888600334373    0.0893121429759015    0.0971641367422815    
  0.10612104293094762    0.11588316078014217    0.12605009285681787    0.1361239658237844    0.14552978201038227    
  0.15366060193763892    0.15994436040133395    0.1639158707394095    0.16527425431869258    0.16391587073940958    
  0.159944360401334    0.15366060193763884    0.14552978201038227    0.13612396582378442    0.1260500928568179    
  0.1158831607801422    0.10612104293094772    0.09716413674228155    0.08931214297590151    0.08276888600334377    
  0.07765155669206006    0.07400621364897428    0.0718318578713197    0.07545946902934139    0.07400621364897426    
  0.07400621364897422    0.07545946902934138    0.07837829318416353    0.08276888600334376    0.08860497338779777    
  0.09580446284632152    0.10421199183603505    0.1135839415431877    0.12357484338231203    0.13373186114984142    
  0.14350845613497107    0.15230407855680372    0.1595258842469162    0.16465831917970672    0.16732380556001922    
  0.16732380556001916    0.1646583191797068    0.15952588424691624    0.1523040785568037    0.14350845613497104    
  0.13373186114984137    0.12357484338231207    0.1135839415431878    0.10421199183603512    0.09580446284632158    
  0.0886049733877978    0.08276888600334377    0.07837829318416357    0.07545946902934139    0.08056351467395488    
  0.07837829318416356    0.07765155669206003    0.07837829318416353    0.08056351467395488    0.08421301897208525    
  0.08931214297590151    0.0958044628463215    0.10357505089851572    0.11243347224945979    0.12209319587246266    
  0.1321554846837631    0.1421134134706552    0.15138549199554746    0.15937343463737935    0.16552837179121638    
  0.16941095386631516    0.17073777803731527    0.16941095386631522    0.16552837179121638    0.15937343463737938    
  0.1513854919955474    0.1421134134706553    0.13215548468376315    0.12209319587246274    0.1124334722494598    
  0.10357505089851578    0.09580446284632163    0.08931214297590151    0.08421301897208529    0.08056351467395488    
  0.08710416434862532    0.08421301897208526    0.08276888600334373    0.08276888600334377    0.08421301897208526    
  0.08710416434862527    0.09143388596680428    0.09716413674228148    0.10421199183603505    0.11243347224945979    
  0.12160009159827592    0.13137397332769382    0.14130024084583795    0.15083159732298823    0.15938107137667992    
  0.166384268737288    0.1713558508319376    0.1739374344562684    0.17393743445626836    0.1713558508319376    
  0.16638426873728793    0.15938107137667995    0.15083159732298826    0.1413002408458379    0.13137397332769388    
  0.12160009159827595    0.1124334722494598    0.10421199183603513    0.0971641367422815    0.09143388596680428    
  0.08710416434862532    0.09496468225061089    0.0914338859668043    0.0893121429759015    0.08860497338779776    
  0.08931214297590151    0.09143388596680428    0.09496468225061089    0.09987963443085292    0.10612104293094762    
  0.11358394154318774    0.12209319587246265    0.13137397332769377    0.14103363732411764    0.1505749689882542    
  0.1594413170002034    0.16707358839122521    0.17296037119804739    0.1766816787751669    0.17795553712958548    
  0.17668167877516686    0.17296037119804736    0.1670735883912253    0.15944131700020348    0.15057496898825418    
  0.14103363732411767    0.1313739733276938    0.12209319587246274    0.11358394154318774    0.10612104293094762    
  0.09987963443085295    0.09496468225061089    0.10393549253770842    0.0998796344308529    0.09716413674228147    
  0.09580446284632158    0.09580446284632153    0.09716413674228147    0.09987963443085293    0.10393549253770838    
  0.10929410664286009    0.1158831607801422    0.12357484338231203    0.1321554846837631    0.14130024084583795    
  0.15057496898825423    0.1594718017687507    0.16745976583415398    0.17402708145600126    0.17871476286934404    
  0.18116093547130063    0.1811609354713006    0.178714762869344    0.1740270814560013    0.16745976583415403    
  0.15947180176875064    0.15057496898825412    0.14130024084583792    0.13215548468376315    0.1235748433823121    
  0.11588316078014217    0.10929410664286016    0.10393549253770842    0.11370995192987694    0.10929410664286016    
  0.10612104293094762    0.1042119918360351    0.10357505089851576    0.10421199183603506    0.10612104293094768    
  0.1092941066428601    0.11370995192987693    0.11932397941513494    0.12605009285681787    0.13373186114984137    
  0.1421134134706552    0.15083159732298826    0.15944131700020342    0.16745976583415398    0.17440230976753512    
  0.1798034154849098    0.18324761046598656    0.1844330923707144    0.1832476104659865    0.17980341548490983    
  0.17440230976753512    0.16745976583415398    0.15944131700020348    0.15083159732298826    0.1421134134706553    
  0.1337318611498414    0.12605009285681784    0.11932397941513494    0.11370995192987694    0.12388602955741229    
  0.1193239794151349    0.11588316078014213    0.1135839415431877    0.11243347224945974    0.11243347224945976    
  0.1135839415431877    0.11588316078014207    0.1193239794151349    0.12388602955741229    0.1295204683787473    
  0.1361239658237844    0.143508456134971    0.1513854919955474    0.1593810713766799    0.16707358839122524    
  0.1740270814560012    0.1798034154849098    0.1839742614632837    0.18617046018330863    0.18617046018330854    
  0.18397426146328366    0.1798034154849098    0.1740270814560012    0.16707358839122527    0.15938107137668    
  0.15138549199554738    0.14350845613497104    0.13612396582378444    0.12952046837874737    0.12388602955741229    
  0.13397110997145475    0.12952046837874734    0.1260500928568178    0.123574843382312    0.12209319587246269    
  0.12160009159827588    0.12209319587246271    0.123574843382312    0.1260500928568178    0.12952046837874734    
  0.13397110997145475    0.13934821775903994    0.14552978201038227    0.15230407855680375    0.15937343463737935    
  0.166384268737288    0.17296037119804739    0.17871476286934398    0.18324761046598656    0.18617046018330854    
  0.1871830973069012    0.1861704601833086    0.18324761046598656    0.178714762869344    0.17296037119804739    
  0.16638426873728798    0.15937343463737935    0.15230407855680372    0.14552978201038233    0.13934821775904005    
  0.13397110997145475    0.14339704941134673    0.13934821775904002    0.1361239658237844    0.1337318611498413    
  0.13215548468376306    0.13137397332769374    0.13137397332769377    0.13215548468376306    0.13373186114984137    
  0.13612396582378436    0.13934821775903994    0.14339704941134673    0.14821233082858443    0.15366060193763895    
  0.1595258842469162    0.16552837179121638    0.17135585083193766    0.1766816787751669    0.1811609354713006    
  0.1844330923707144    0.18617046018330857    0.18617046018330857    0.18443309237071442    0.1811609354713006    
  0.17668167877516694    0.17135585083193766    0.16552837179121638    0.1595258842469163    0.15366060193763884    
  0.14821233082858445    0.14339704941134673    0.1515581788042467    0.14821233082858434    0.14552978201038233    
  0.143508456134971    0.1421134134706552    0.14130024084583792    0.1410336373241176    0.14130024084583795    
  0.1421134134706552    0.14350845613497099    0.1455297820103823    0.14821233082858434    0.15155817880424677    
  0.1555118071622535    0.1599443604013339    0.16465831917970677    0.1694109538663152    0.17393743445626836    
  0.1779555371295855    0.1811609354713006    0.18324761046598656    0.18397426146328363    0.18324761046598653    
  0.18116093547130058    0.17795553712958556    0.17393743445626828    0.16941095386631522    0.1646583191797068    
  0.159944360401334    0.15551180716225343    0.1515581788042467    0.15787572284466153    0.15551180716225343    
  0.15366060193763886    0.1523040785568036    0.1513854919955473    0.15083159732298815    0.15057496898825412    
  0.1505749689882541    0.15083159732298823    0.15138549199554738    0.15230407855680372    0.15366060193763884    
  0.15551180716225343    0.15787572284466153    0.16071239303472373    0.1639158707394095    0.16732380556001922    
  0.1707377780373153    0.1739374344562684    0.1766816787751669    0.178714762869344    0.1798034154849098    
  0.17980341548490977    0.17871476286934407    0.17668167877516697    0.17393743445626833    0.17073777803731538    
  0.16732380556001925    0.1639158707394095    0.16071239303472382    0.15787572284466153    0.16187363392941673    
  0.1607123930347237    0.15994436040133395    0.15952588424691613    0.15937343463737932    0.1593810713766799    
  0.1594413170002034    0.15947180176875062    0.1594413170002034    0.15938107137667995    0.15937343463737935    
  0.1595258842469162    0.15994436040133395    0.1607123930347237    0.1618736339294167    0.1634174928445028    
  0.16527425431869255    0.16732380556001925    0.16941095386631527    0.1713558508319376    0.17296037119804733    
  0.17402708145600126    0.17440230976753512    0.1740270814560012    0.17296037119804739    0.17135585083193766    
  0.16941095386631524    0.1673238055600192    0.16527425431869258    0.16341749284450285    0.16187363392941673    
  0.16324195263086813    0.1634174928445028    0.16391587073940944    0.16465831917970675    0.1655283717912163    
  0.1663842687372879    0.16707358839122527    0.1674597658341539    0.16745976583415398    0.16707358839122521    
  0.16638426873728798    0.16552837179121635    0.16465831917970672    0.1639158707394095    0.1634174928445028    
  0.16324195263086816    0.16341749284450288    0.1639158707394095    0.16465831917970683    0.16552837179121638    
  0.1663842687372879    0.16707358839122527    0.16745976583415395    0.16745976583415398    0.16707358839122527    
  0.16638426873728798    0.16552837179121638    0.16465831917970677    0.16391587073940947    0.16341749284450285    
  0.16324195263086813    0.16187363392941675    0.16341749284450285    0.16527425431869258    0.1673238055600191    
  0.16941095386631516    0.17135585083193752    0.1729603711980473    0.1740270814560011    0.174402309767535    
  0.17402708145600118    0.17296037119804733    0.17135585083193758    0.16941095386631513    0.16732380556001925    
  0.1652742543186925    0.16341749284450277    0.1618736339294167    0.16071239303472376    0.159944360401334    
  0.1595258842469162    0.15937343463737935    0.15938107137667998    0.15944131700020345    0.15947180176875067    
  0.15944131700020348    0.1593810713766799    0.15937343463737932    0.15952588424691622    0.15994436040133397    
  0.16071239303472376    0.16187363392941675    0.15787572284466148    0.1607123930347237    0.16391587073940944    
  0.16732380556001908    0.1707377780373152    0.17393743445626828    0.17668167877516686    0.17871476286934396    
  0.17980341548490975    0.17980341548490975    0.17871476286934396    0.1766816787751669    0.1739374344562683    
  0.17073777803731532    0.16732380556001908    0.1639158707394095    0.1607123930347237    0.1578757228446615    
  0.1555118071622534    0.15366060193763878    0.15230407855680367    0.1513854919955474    0.15083159732298818    
  0.15057496898825412    0.15057496898825412    0.1508315973229882    0.15138549199554738    0.15230407855680367    
  0.1536606019376388    0.15551180716225338    0.15787572284466148    0.1515581788042467    0.15551180716225335    
  0.15994436040133392    0.16465831917970666    0.16941095386631516    0.17393743445626828    0.17795553712958545    
  0.1811609354713005    0.18324761046598645    0.1839742614632836    0.18324761046598645    0.18116093547130055    
  0.17795553712958548    0.17393743445626836    0.16941095386631508    0.1646583191797067    0.1599443604013339    
  0.15551180716225343    0.1515581788042467    0.14821233082858432    0.14552978201038227    0.14350845613497096    
  0.14211341347065523    0.1413002408458379    0.1410336373241177    0.1413002408458379    0.1421134134706553    
  0.143508456134971    0.1455297820103823    0.14821233082858434    0.1515581788042467    0.14339704941134673    
  0.14821233082858426    0.15366060193763884    0.15952588424691616    0.16552837179121632    0.17135585083193755    
  0.17668167877516688    0.1811609354713005    0.18443309237071434    0.1861704601833085    0.18617046018330846    
  0.18443309237071434    0.18116093547130055    0.17668167877516686    0.1713558508319375    0.16552837179121635    
  0.1595258842469162    0.15366060193763878    0.14821233082858434    0.14339704941134673    0.13934821775903997    
  0.13612396582378442    0.13373186114984137    0.13215548468376306    0.13137397332769382    0.13137397332769377    
  0.1321554846837631    0.13373186114984137    0.1361239658237844    0.13934821775903988    0.14339704941134673    
  0.13397110997145475    0.1393482177590399    0.14552978201038222    0.1523040785568036    0.15937343463737932    
  0.1663842687372879    0.17296037119804722    0.1787147628693439    0.1832476104659864    0.18617046018330846    
  0.18718309730690105    0.18617046018330843    0.18324761046598642    0.1787147628693439    0.17296037119804725    
  0.1663842687372879    0.15937343463737924    0.15230407855680364    0.14552978201038227    0.13934821775903994    
  0.13397110997145475    0.12952046837874734    0.12605009285681784    0.12357484338231203    0.12209319587246274    
  0.12160009159827592    0.12209319587246274    0.12357484338231206    0.1260500928568178    0.12952046837874734    
  0.13397110997145475    0.12388602955741226    0.1295204683787473    0.13612396582378433    0.14350845613497093    
  0.15138549199554732    0.15938107137667987    0.16707358839122521    0.17402708145600113    0.17980341548490975    
  0.1839742614632836    0.1861704601833085    0.18617046018330843    0.18397426146328355    0.17980341548490975    
  0.17402708145600115    0.1670735883912252    0.15938107137667987    0.15138549199554727    0.143508456134971    
  0.13612396582378436    0.1295204683787473    0.1238860295574123    0.1193239794151349    0.11588316078014217    
  0.11358394154318777    0.1124334722494598    0.11243347224945979    0.11358394154318772    0.11588316078014213    
  0.1193239794151349    0.12388602955741226    0.11370995192987697    0.1193239794151349    0.1260500928568178    
  0.13373186114984129    0.14211341347065518    0.15083159732298815    0.15944131700020336    0.16745976583415387    
  0.17440230976753504    0.17980341548490975    0.18324761046598645    0.18443309237071434    0.18324761046598642    
  0.17980341548490977    0.174402309767535    0.1674597658341539    0.15944131700020336    0.15083159732298818    
  0.14211341347065523    0.13373186114984129    0.12605009285681787    0.11932397941513494    0.11370995192987697    
  0.10929410664286016    0.10612104293094768    0.1042119918360351    0.10357505089851578    0.1042119918360351    
  0.10612104293094765    0.10929410664286016    0.11370995192987697    0.1039354925377084    0.10929410664286013    
  0.1158831607801421    0.12357484338231196    0.132155484683763    0.1413002408458379    0.1505749689882541    
  0.15947180176875053    0.1674597658341539    0.17402708145600115    0.17871476286934396    0.18116093547130055    
  0.1811609354713005    0.17871476286934396    0.17402708145600113    0.1674597658341539    0.15947180176875053    
  0.15057496898825412    0.1413002408458379    0.132155484683763    0.12357484338231203    0.11588316078014217    
  0.10929410664286016    0.1039354925377084    0.09987963443085296    0.0971641367422815    0.09580446284632159    
  0.09580446284632158    0.09716413674228148    0.0998796344308529    0.1039354925377084    0.09496468225061089    
  0.0998796344308529    0.10612104293094762    0.11358394154318764    0.12209319587246262    0.13137397332769368    
  0.14103363732411758    0.1505749689882541    0.15944131700020334    0.1670735883912252    0.17296037119804727    
  0.17668167877516683    0.17795553712958545    0.17668167877516686    0.17296037119804725    0.16707358839122516    
  0.15944131700020336    0.1505749689882541    0.14103363732411756    0.13137397332769374    0.12209319587246266    
  0.11358394154318774    0.10612104293094768    0.0998796344308529    0.09496468225061094    0.09143388596680425    
  0.08931214297590152    0.08860497338779778    0.08931214297590151    0.0914338859668043    0.09496468225061089    
  0.08710416434862531    0.09143388596680427    0.09716413674228146    0.10421199183603506    0.1124334722494597    
  0.12160009159827583    0.13137397332769374    0.14130024084583787    0.15083159732298815    0.15938107137667992    
  0.16638426873728793    0.17135585083193758    0.17393743445626828    0.1739374344562683    0.17135585083193752    
  0.1663842687372879    0.15938107137667987    0.15083159732298818    0.14130024084583798    0.13137397332769377    
  0.12160009159827592    0.1124334722494598    0.10421199183603509    0.09716413674228153    0.09143388596680431    
  0.08710416434862528    0.0842130189720853    0.08276888600334378    0.08276888600334376    0.08421301897208529    
  0.08710416434862531    0.08056351467395488    0.08421301897208527    0.08931214297590147    0.09580446284632156    
  0.10357505089851576    0.11243347224945974    0.12209319587246265    0.132155484683763    0.1421134134706551    
  0.15138549199554732    0.15937343463737932    0.16552837179121635    0.1694109538663151    0.17073777803731527    
  0.16941095386631513    0.16552837179121635    0.15937343463737927    0.15138549199554738    0.1421134134706552    
  0.13215548468376306    0.12209319587246269    0.1124334722494598    0.1035750508985158    0.09580446284632158    
  0.08931214297590152    0.08421301897208529    0.08056351467395488    0.07837829318416357    0.07765155669206006    
  0.0783782931841636    0.08056351467395488    0.07545946902934138    0.07837829318416357    0.08276888600334374    
  0.08860497338779776    0.0958044628463215    0.10421199183603502    0.11358394154318767    0.12357484338231194    
  0.1337318611498413    0.143508456134971    0.15230407855680364    0.15952588424691622    0.16465831917970677    
  0.16732380556001916    0.16732380556001908    0.16465831917970672    0.1595258842469162    0.15230407855680364    
  0.143508456134971    0.13373186114984137    0.12357484338231203    0.11358394154318772    0.1042119918360351    
  0.09580446284632158    0.08860497338779784    0.08276888600334383    0.07837829318416352    0.07545946902934139    
  0.07400621364897425    0.07400621364897428    0.07545946902934138    0.07183185787131971    0.07400621364897425    
  0.07765155669206003    0.08276888600334376    0.0893121429759015    0.09716413674228146    0.10612104293094762    
  0.11588316078014203    0.12605009285681779    0.1361239658237844    0.14552978201038225    0.15366060193763884    
  0.15994436040133392    0.16391587073940955    0.16527425431869247    0.16391587073940944    0.15994436040133392    
  0.1536606019376388    0.14552978201038227    0.13612396582378433    0.1260500928568179    0.11588316078014217    
  0.10612104293094769    0.09716413674228153    0.08931214297590152    0.08276888600334378    0.07765155669206009    
  0.07400621364897433    0.07183185787131967    0.0711102544450699    0.07183185787131971    0.06967187701635327    
  0.07111025444506988    0.07400621364897422    0.07837829318416355    0.08421301897208522    0.09143388596680424    
  0.09987963443085289    0.10929410664286009    0.11932397941513483    0.1295204683787473    0.13934821775904    
  0.1482123308285844    0.15551180716225343    0.16071239303472373    0.16341749284450277    0.16341749284450277    
  0.1607123930347237    0.15551180716225343    0.14821233082858437    0.13934821775903988    0.12952046837874737    
  0.11932397941513494    0.10929410664286017    0.09987963443085295    0.09143388596680437    0.08421301897208529    
  0.07837829318416359    0.07400621364897433    0.07111025444506984    0.06967187701635325    0.06967187701635327    
  0.06895570326000455    0.06967187701635325    0.07183185787131963    0.07545946902934136    0.08056351467395483    
  0.08710416434862522    0.09496468225061087    0.10393549253770835    0.11370995192987693    0.1238860295574123    
  0.13397110997145475    0.14339704941134673    0.1515581788042468    0.15787572284466153    0.16187363392941667    
  0.16324195263086816    0.16187363392941667    0.15787572284466153    0.1515581788042467    0.14339704941134673    
  0.13397110997145475    0.1238860295574123    0.11370995192987697    0.10393549253770844    0.09496468225061096    
  0.0871041643486253    0.08056351467395488    0.07545946902934138    0.07183185787131968    0.06967187701635325    
  0.06895570326000455    0.06990590209178729    0.07063829480376742    0.07284713758024342    0.07655607318974615    
  0.08177205961718526    0.08845184604911352    0.09647522659690158    0.10562995791610198    0.11560597320765793    
  0.12599422316280062    0.1362904443717568    0.1459123938872863    0.15424119860589122    0.16068740163224213    
  0.1647665650054612    0.1661627307798661    0.1647665650054612    0.1606874016322421    0.15424119860589114    
  0.14591239388728627    0.1362904443717568    0.12599422316280062    0.11560597320765797    0.10562995791610202    
  0.09647522659690165    0.08845184604911357    0.08177205961718532    0.07655607318974617    0.07284713758024344    
  0.07063829480376742    0.06990590209178729    0.07063829480376745    0.0706382948037674    0.07204085306327097    
  0.07486360659244667    0.0791230025043814    0.08480484267223305    0.09183506011348208    0.10005821029376503    
  0.1092254435316272    0.1189899058407558    0.12890840966572806    0.13845358214610248    0.14704512174797937    
  0.15410454135289303    0.15912438939282986    0.16173207028046332    0.1617320702804633    0.15912438939282986    
  0.15410454135289298    0.1470451217479794    0.1384535821461026    0.1289084096657281    0.11898990584075585    
  0.1092254435316273    0.10005821029376512    0.09183506011348211    0.0848048426722331    0.07912300250438148    
  0.07486360659244662    0.07204085306327104    0.07063829480376745    0.07284713758024346    0.07217755163122935    
  0.07284713758024347    0.07486360659244667    0.07824152624420344    0.08298065134725342    0.08903988127463087    
  0.09631400927685271    0.10461599185519546    0.11366496138680521    0.12308126470322785    0.1323930696223099    
  0.14106140796806912    0.14852753306855263    0.15427633654995726    0.1578987057795496    0.15913553342771458    
  0.1578987057795496    0.15427633654995726    0.14852753306855257    0.14106140796806912    0.13239306962230998    
  0.12308126470322789    0.11366496138680521    0.10461599185519557    0.0963140092768528    0.08903988127463089    
  0.08298065134725348    0.07824152624420345    0.07486360659244665    0.07284713758024346    0.07655607318974617    
  0.07527678200197963    0.07527678200197958    0.07655607318974617    0.07912300250438142    0.08298065134725345    
  0.08810645664004527    0.09443195470426258    0.10182448499495479    0.11006990774175736    0.11885850508637866    
  0.12778163994212433    0.1363484758948771    0.14402708218979254    0.15030389329633265    0.15474544289927675    
  0.15704471801915593    0.15704471801915587    0.15474544289927677    0.1503038932963327    0.14402708218979252    
  0.13634847589487714    0.12778163994212433    0.1188585050863787    0.11006990774175747    0.10182448499495486    
  0.09443195470426265    0.08810645664004528    0.08298065134725348    0.07912300250438144    0.07655607318974617    
  0.08177205961718528    0.07995462121556283    0.07934983821857    0.07995462121556282    0.08177205961718531    
  0.08480484267223304    0.08903988127463087    0.09443195470426258    0.10088892575554158    0.10825511173738067    
  0.11629174004226889    0.12466245182561182    0.13293739322099482    0.14062441921112137    0.14722306085137427    
  0.15228540026785892    0.15546582449116367    0.1565500054568264    0.15546582449116367    0.15228540026785886    
  0.14722306085137427    0.14062441921112137    0.13293739322099488    0.12466245182561189    0.11629174004226896    
  0.1082551117373807    0.10088892575554163    0.09443195470426267    0.08903988127463089    0.08480484267223308    
  0.08177205961718528    0.08845184604911359    0.08619345109200983    0.08506566982063443    0.08506566982063449    
  0.08619345109200985    0.08845184604911355    0.0918350601134821    0.0963140092768527    0.10182448499495479    
  0.10825511173738067    0.11542934345666088    0.12308484680617354    0.1308647136329306    0.13833449654764557    
  0.14502564714758642    0.15049146203081618    0.1543579824555785    0.1563597220541922    0.15635972205419219    
  0.15435798245557852    0.15049146203081615    0.14502564714758642    0.1383344965476456    0.13086471363293062    
  0.1230848468061736    0.11542934345666091    0.10825511173738071    0.10182448499495488    0.09631400927685273    
  0.09183506011348208    0.08845184604911359    0.0964752265969016    0.09390832692440305    0.09237039896358466    
  0.09185881827370818    0.09237039896358468    0.09390832692440303    0.09647522659690158    0.10005821029376505    
  0.10461599185519546    0.11006990774175737    0.11629174004226883    0.1230848468061735    0.13016828360773094    
  0.13718002622241623    0.14370580801360724    0.14932405729513681    0.15365151118563503    0.15638144199624437    
  0.15731453230365336    0.1563814419962443    0.153651511185635    0.14932405729513681    0.14370580801360724    
  0.1371800262224163    0.13016828360773103    0.12308484680617354    0.11629174004226896    0.1100699077417574    
  0.1046159918551955    0.10005821029376508    0.0964752265969016    0.10562995791610202    0.10292723399699208    
  0.10113287336902083    0.10024081418403673    0.10024081418403666    0.10113287336902088    0.10292723399699208    
  0.10562995791610198    0.10922544353162723    0.11366496138680521    0.11885850508637866    0.12466245182561182    
  0.13086471363293062    0.13718002622241623    0.14326517003144654    0.1487495848827814    0.153268976070736    
  0.15649717990609913    0.15818146490376614    0.1581814649037661    0.1564971799060991    0.15326897607073603    
  0.1487495848827814    0.1432651700314465    0.13718002622241623    0.1308647136329306    0.12466245182561192    
  0.1188585050863787    0.11366496138680521    0.10922544353162728    0.10562995791610202    0.11560597320765796    
  0.11298159183309169    0.11112995240514334    0.11003585345707216    0.10967496675043059    0.11003585345707213    
  0.11112995240514341    0.11298159183309159    0.11560597320765793    0.11898990584075583    0.12308126470322787    
  0.1277816399421243    0.13293739322099482    0.1383344965476456    0.14370580801360722    0.1487495848827814    
  0.15314924484130543    0.15659151731515344    0.15879441036167274    0.159553880620401    0.1587944103616727    
  0.15659151731515344    0.15314924484130543    0.14874958488278137    0.14370580801360727    0.1383344965476456    
  0.1329373932209949    0.12778163994212433    0.12308126470322782    0.11898990584075583    0.11560597320765796    
  0.1259942231628006    0.12370128218766871    0.12203564668392446    0.12096743911089587    0.12045042171508406    
  0.12045042171508406    0.12096743911089587    0.12203564668392446    0.12370128218766868    0.1259942231628006    
  0.12890840966572809    0.13239306962230996    0.13634847589487709    0.14062441921112137    0.14502564714758642    