#     DFTpy    
  CRYSTAL 
    
  PRIMVEC    
  1.2592555820087903    -2.1810946477539406    0.0    
  1.2592555820087903    2.1810946477539406    0.0    
  0.0    0.0    4.257647517172411    
  PRIMCOORD    
  2    1    
  Si    1.2592555820087903    0.7270315492513101    1.0644118792931003    
  Si    1.2592555820087903    -0.7270315492513101    3.1932356378793103    
  BEGIN_BLOCK_DATAGRID_3D    
  3d_datagrid_density    
  BEGIN_DATAGRID_3D#0    
  25    25    41    
  0.0    0.0    0.0    
  1.2592555867058377    -2.1810946558894653    0.0    
  1.2592555867058377    2.1810946558894653    0.0    
  0.0    0.0    4.257647533053517    
  0.17876743847646315    0.18128067819048047    0.18871157118236181    0.20074502033168942    0.21687823229392977    
  0.23641259241465154    0.25839825294576024    0.2815559491476071    0.3042509790748043    0.3246012056335775    
  0.34073149015764076    0.35108271720100065    0.3546478360525567    0.35108271720100087    0.3407314901576411    
  0.32460120563357797    0.30425097907480475    0.2815559491476074    0.25839825294576046    0.23641259241465176    
  0.21687823229393005    0.20074502033168973    0.18871157118236206    0.18128067819048074    0.17876743847646315    
  0.18128067819048085    0.18128067819048066    0.18625246409161839    0.19598308435684347    0.2100644436453401    
  0.2279015243985274    0.24867988586179304    0.27129231603979714    0.2942777775338247    0.31586011686303317    
  0.3341401798247767    0.3473943197081098    0.3543514918970187    0.35435149189701876    0.3473943197081102    
  0.33414017982477706    0.3158601168630336    0.2942777775338251    0.2712923160397974    0.24867988586179332    
  0.22790152439852768    0.2100644436453404    0.19598308435684378    0.18625246409161864    0.18128067819048085    
  0.1887115711823623    0.18625246409161858    0.18871157118236212    0.19598308435684367    0.2077592634733632    
  0.22354486101363658    0.24264452488558813    0.26410541597265824    0.28664392243294484    0.3086355029406749    
  0.3282456339298847    0.34369718227313173    0.35356231664735704    0.35694990789749087    0.35356231664735704    
  0.34369718227313206    0.3282456339298851    0.30863550294067527    0.2866439224329452    0.2641054159726586    
  0.2426445248855883    0.22354486101363688    0.20775926347336351    0.19598308435684395    0.1887115711823623    
  0.20074502033168995    0.19598308435684386    0.1959830843568438    0.20074502033168976    0.21006444364534035    
  0.2235448610136366    0.2405984284010448    0.2604085170599596    0.2818604312581281    0.3035013056335442    
  0.3236169002502277    0.3404581651611379    0.35253381498544506    0.35882078095580494    0.35882078095580505    
  0.3525338149854453    0.3404581651611382    0.323616900250228    0.3035013056335446    0.2818604312581283    
  0.2604085170599598    0.24059842840104514    0.22354486101363694    0.21006444364534055    0.20074502033168995    
  0.21687823229393033    0.2100644436453405    0.20775926347336351    0.21006444364534044    0.21687823229393005    
  0.22790152439852762    0.24264452488558821    0.26040851705995954    0.28023238235817877    0.3008409518751967    
  0.32067730179297227    0.3380804572314306    0.3515643347563484    0.3600513982660331    0.36294176930557714    
  0.3600513982660332    0.35156433475634846    0.3380804572314308    0.32067730179297244    0.30084095187519694    
  0.28023238235817904    0.2604085170599599    0.2426445248855885    0.22790152439852776    0.21687823229393033    
  0.23641259241465204    0.22790152439852773    0.22354486101363685    0.22354486101363674    0.2279015243985276    
  0.2364125924146517    0.24867988586179318    0.2641054159726584    0.2818604312581282    0.3008409518751967    
  0.3196715762321788    0.3368303682531429    0.35089322168056825    0.36077992820868454    0.3658546364878975    
  0.3658546364878975    0.36077992820868454    0.35089322168056825    0.33683036825314294    0.319671576232179    
  0.300840951875197    0.28186043125812843    0.2641054159726588    0.2486798858617936    0.23641259241465204    
  0.25839825294576085    0.24867988586179346    0.2426445248855884    0.240598428401045    0.24264452488558813    
  0.24867988586179313    0.25839825294576035    0.27129231603979737    0.28664392243294495    0.30350130563354455    
  0.3206773017929725    0.336830368253143    0.3506559182660968    0.36111715582260395    0.3675767947827768    
  0.36975293858947034    0.3675767947827768    0.36111715582260395    0.3506559182660967    0.33683036825314305    
  0.32067730179297255    0.3035013056335448    0.28664392243294534    0.27129231603979775    0.25839825294576085    
  0.28155594914760773    0.27129231603979764    0.26410541597265863    0.2604085170599596    0.2604085170599595    
  0.26410541597265824    0.2712923160397971    0.2815559491476072    0.2942777775338249    0.3086355029406752    
  0.32361690025022816    0.33808045723143104    0.3508932216805686    0.36111715582260423    0.3681454025466048    
  0.37169857913768056    0.3716985791376804    0.36814540254660477    0.36111715582260406    0.3508932216805684    
  0.338080457231431    0.32361690025022827    0.3086355029406756    0.2942777775338254    0.28155594914760773    
  0.30425097907480503    0.2942777775338252    0.28664392243294523    0.28186043125812826    0.28023238235817877    
  0.281860431258128    0.2866439224329446    0.29427777753382467    0.3042509790748044    0.3158601168630335    
  0.32824563392988526    0.3404581651611386    0.351564334756349    0.3607799282086851    0.3675767947827772    
  0.37169857913768073    0.373074284013281    0.3716985791376805    0.3675767947827769    0.3607799282086848    
  0.35156433475634874    0.34045816516113847    0.3282456339298855    0.31586011686303395    0.30425097907480503    
  0.3246012056335782    0.3158601168630339    0.3086355029406756    0.3035013056335448    0.3008409518751968    
  0.30084095187519666    0.3035013056335442    0.30863550294067493    0.31586011686303317    0.3246012056335775    
  0.334140179824777    0.3436971822731324    0.35253381498544595    0.36005139826603394    0.3658546364878982    
  0.3697529385894709    0.3716985791376808    0.3716985791376806    0.36975293858947056    0.3658546364878978    
  0.3600513982660335    0.3525338149854455    0.34369718227313234    0.3341401798247774    0.3246012056335782    
  0.34073149015764137    0.33414017982477756    0.3282456339298856    0.32361690025022843    0.3206773017929727    
  0.319671576232179    0.32067730179297227    0.32361690025022777    0.3282456339298847    0.3341401798247767    
  0.34073149015764076    0.34739431970811024    0.3535623166473578    0.35882078095580594    0.36294176930557803    
  0.36585463648789823    0.3675767947827773    0.36814540254660505    0.3675767947827771    0.36585463648789784    
  0.3629417693055775    0.3588207809558054    0.3535623166473573    0.34739431970811047    0.34073149015764137    
  0.3510827172010009    0.34739431970811063    0.3436971822731327    0.3404581651611389    0.33808045723143143    
  0.33683036825314333    0.3368303682531432    0.33808045723143093    0.3404581651611382    0.3436971822731318    
  0.3473943197081099    0.3510827172010007    0.3543514918970192    0.3569499078974917    0.358820780955806    
  0.3600513982660342    0.36077992820868526    0.3611171558226045    0.36111715582260434    0.3607799282086849    
  0.3600513982660335    0.3588207809558053    0.35694990789749115    0.3543514918970189    0.3510827172010009    
  0.35464783605255673    0.35435149189701914    0.3535623166473579    0.35253381498544617    0.35156433475634946    
  0.35089322168056913    0.3506559182660974    0.35089322168056886    0.3515643347563489    0.3525338149854453    
  0.35356231664735704    0.3543514918970187    0.3546478360525567    0.35435149189701926    0.35356231664735793    
  0.35253381498544617    0.35156433475634935    0.35089322168056886    0.3506559182660971    0.35089322168056863    
  0.3515643347563487    0.3525338149854453    0.3535623166473571    0.35435149189701876    0.35464783605255673    
  0.3510827172010006    0.3543514918970189    0.3569499078974917    0.3588207809558061    0.3600513982660344    
  0.36077992820868576    0.36111715582260506    0.36111715582260495    0.3607799282086854    0.3600513982660337    
  0.35882078095580533    0.356949907897491    0.35435149189701887    0.35108271720100087    0.3473943197081106    
  0.34369718227313273    0.34045816516113897    0.3380804572314315    0.3368303682531434    0.3368303682531432    
  0.3380804572314309    0.34045816516113814    0.3436971822731318    0.3473943197081099    0.3510827172010006    
  0.3407314901576406    0.34739431970811    0.3535623166473576    0.358820780955806    0.3629417693055784    
  0.3658546364878989    0.36757679478277816    0.3681454025466059    0.36757679478277794    0.36585463648789845    
  0.36294176930557787    0.3588207809558054    0.3535623166473573    0.34739431970811013    0.3407314901576411    
  0.3341401798247774    0.3282456339298856    0.3236169002502285    0.3206773017929728    0.31967157623217907    
  0.3206773017929725    0.3236169002502279    0.3282456339298847    0.33414017982477656    0.3407314901576406    
  0.32460120563357725    0.3341401798247767    0.3436971822731322    0.3525338149854459    0.3600513982660344    
  0.36585463648789895    0.3697529385894718    0.37169857913768184    0.3716985791376818    0.3697529385894715    
  0.3658546364878985    0.3600513982660339    0.35253381498544556    0.34369718227313206    0.33414017982477695    
  0.3246012056335779    0.31586011686303384    0.3086355029406756    0.3035013056335449    0.300840951875197    
  0.3008409518751969    0.3035013056335443    0.3086355029406749    0.31586011686303306    0.32460120563357725    
  0.304250979074804    0.31586011686303306    0.32824563392988493    0.3404581651611386    0.3515643347563494    
  0.36077992820868593    0.3675767947827783    0.37169857913768195    0.3730742840132825    0.3716985791376818    
  0.36757679478277805    0.36077992820868554    0.35156433475634913    0.34045816516113847    0.32824563392988504    
  0.3158601168630335    0.3042509790748047    0.2942777775338251    0.2866439224329452    0.2818604312581283    
  0.28023238235817877    0.281860431258128    0.2866439224329446    0.29427777753382445    0.304250979074804    
  0.2815559491476068    0.29427777753382434    0.30863550294067493    0.323616900250228    0.3380804572314313    
  0.35089322168056925    0.36111715582260534    0.3681454025466062    0.3716985791376821    0.37169857913768195    
  0.3681454025466061    0.3611171558226051    0.35089322168056913    0.3380804572314313    0.3236169002502281    
  0.3086355029406752    0.2942777775338249    0.2815559491476074    0.27129231603979737    0.26410541597265835    
  0.26040851705995954    0.2604085170599593    0.264105415972658    0.27129231603979687    0.2815559491476068    
  0.25839825294575997    0.2712923160397968    0.2866439224329445    0.3035013056335442    0.32067730179297255    
  0.3368303682531436    0.3506559182660978    0.3611171558226054    0.36757679478277844    0.369752938589472    
  0.36757679478277844    0.36111715582260534    0.3506559182660978    0.33683036825314355    0.32067730179297266    
  0.3035013056335445    0.2866439224329449    0.2712923160397972    0.25839825294576035    0.24867988586179304    
  0.24264452488558794    0.24059842840104462    0.24264452488558785    0.24867988586179277    0.25839825294575997    
  0.2364125924146512    0.24867988586179263    0.26410541597265785    0.28186043125812776    0.30084095187519666    
  0.31967157623217907    0.33683036825314366    0.35089322168056947    0.36077992820868615    0.3658546364878991    
  0.3658546364878993    0.3607799282086861    0.35089322168056947    0.33683036825314366    0.31967157623217923    
  0.3008409518751969    0.28186043125812804    0.26410541597265824    0.24867988586179304    0.23641259241465154    
  0.22790152439852726    0.22354486101363633    0.22354486101363624    0.227901524398527    0.2364125924146512    
  0.21687823229392938    0.22790152439852693    0.24264452488558771    0.26040851705995904    0.28023238235817854    
  0.3008409518751967    0.32067730179297266    0.33808045723143154    0.3515643347563497    0.3600513982660347    
  0.36294176930557875    0.3600513982660347    0.3515643347563498    0.3380804572314317    0.3206773017929728    
  0.300840951875197    0.28023238235817877    0.2604085170599594    0.24264452488558794    0.22790152439852734    
  0.21687823229392977    0.21006444364534002    0.20775926347336282    0.21006444364533983    0.21687823229392938    
  0.20074502033168923    0.21006444364533974    0.2235448610136361    0.24059842840104448    0.2604085170599592    
  0.28186043125812793    0.3035013056335445    0.32361690025022827    0.34045816516113886    0.3525338149854463    
  0.3588207809558063    0.35882078095580633    0.35253381498544645    0.34045816516113914    0.32361690025022855    
  0.30350130563354477    0.2818604312581281    0.26040851705995943    0.24059842840104462    0.22354486101363633    
  0.21006444364534008    0.2007450203316894    0.1959830843568433    0.19598308435684325    0.20074502033168923    
  0.18871157118236173    0.1959830843568432    0.20775926347336293    0.2235448610136362    0.2426445248855878    
  0.2641054159726581    0.2866439224329447    0.30863550294067515    0.32824563392988515    0.34369718227313245    
  0.35356231664735793    0.35694990789749187    0.35356231664735804    0.34369718227313284    0.3282456339298856    
  0.30863550294067554    0.28664392243294506    0.2641054159726583    0.24264452488558802    0.22354486101363646    
  0.2077592634733631    0.19598308435684347    0.18871157118236181    0.18625246409161816    0.18871157118236173    
  0.18128067819048055    0.18625246409161816    0.1959830843568433    0.2100644436453399    0.22790152439852726    
  0.24867988586179285    0.27129231603979703    0.2942777775338247    0.3158601168630334    0.33414017982477695    
  0.3473943197081103    0.3543514918970192    0.3543514918970193    0.3473943197081107    0.33414017982477745    
  0.31586011686303395    0.2942777775338251    0.27129231603979737    0.24867988586179313    0.22790152439852748    
  0.21006444364534027    0.1959830843568436    0.18625246409161836    0.18128067819048058    0.18128067819048055    
  0.17876743847646315    0.18128067819048047    0.18871157118236181    0.20074502033168942    0.21687823229392977    
  0.23641259241465154    0.25839825294576024    0.2815559491476071    0.3042509790748043    0.3246012056335775    
  0.34073149015764076    0.35108271720100065    0.3546478360525567    0.35108271720100087    0.3407314901576411    
  0.32460120563357797    0.30425097907480475    0.2815559491476074    0.25839825294576046    0.23641259241465176    
  0.21687823229393005    0.20074502033168973    0.18871157118236206    0.18128067819048074    0.17876743847646315    
  0.18219405282691842    0.18470893022559207    0.19215285333896492    0.2042269730890779    0.22043563242988842    
  0.24006666834379928    0.2621398404431733    0.28534536914610675    0.3080357487936996    0.32834035072520584    
  0.3444111855860758    0.35471601372904427    0.35826403650713046    0.3547160137290446    0.3444111855860761    
  0.32834035072520645    0.30803574879370005    0.2853453691461071    0.26213984044317357    0.24006666834379956    
  0.2204356324298887    0.20422697308907822    0.19215285333896515    0.18470893022559234    0.18219405282691842    
  0.18470893022559243    0.1847089302255922    0.18954997686250144    0.19900087678182685    0.2126329806248959    
  0.22984790057101118    0.2498552874934354    0.2715977395295341    0.2936817058154204    0.3144077010191647    
  0.33195494280019555    0.3446720493589075    0.3513448379129825    0.35134483791298254    0.3446720493589079    
  0.331954942800196    0.31440770101916515    0.29368170581542097    0.2715977395295344    0.2498552874934357    
  0.22984790057101148    0.21263298062489625    0.19900087678182712    0.18954997686250166    0.18470893022559243    
  0.1921528533389654    0.18982641477735804    0.1921528533389652    0.19900087678182699    0.21001014026525633    
  0.22465741855767252    0.24228339466866183    0.2620380248903793    0.28278068210724533    0.3030379462775178    
  0.32111512787124263    0.3353589127748676    0.3444475181079866    0.34756665937682907    0.3444475181079867    
  0.335358912774868    0.321115127871243    0.3030379462775183    0.2827806821072456    0.2620380248903796    
  0.2422833946686621    0.22465741855767285    0.21001014026525666    0.19900087678182732    0.1921528533389654    
  0.20422697308907847    0.19989226864001566    0.19989226864001555    0.20422697308907822    0.21263298062489616    
  0.22465741855767263    0.2397302883309972    0.2571551657508771    0.27601348035428447    0.2950728867828689    
  0.3128239164867075    0.3276942331347958    0.3383460304928128    0.34388298150882385    0.34388298150882396    
  0.33834603049281303    0.327694233134796    0.3128239164867079    0.2950728867828693    0.2760134803542847    
  0.2571551657508774    0.23973028833099752    0.2246574185576729    0.21263298062489638    0.20422697308907847    
  0.22043563242988898    0.21454284425117345    0.2125329525329194    0.21454284425117337    0.2204356324298887    
  0.2298479005710114    0.24228339466866192    0.2571551657508771    0.2737246418256915    0.2909922882915603    
  0.30766893053043376    0.32232356636188536    0.33366483920012685    0.3407823347351458    0.34320037008078197    
  0.34078233473514585    0.33366483920012696    0.3223235663618855    0.30766893053043387    0.2909922882915605    
  0.2737246418256918    0.25715516575087743    0.2422833946686623    0.22984790057101162    0.22043563242988898    
  0.24006666834379983    0.23317810589546917    0.22960833367058886    0.22960833367058883    0.23317810589546892    
  0.24006666834379944    0.2498552874934356    0.26203802489037936    0.2760134803542846    0.2909922882915604    
  0.3059263440007936    0.319581323408094    0.3307690566043554    0.3386046847156687    0.34260799397592895    
  0.342607993975929    0.3386046847156687    0.3307690566043554    0.31958132340809403    0.3059263440007937    
  0.29099228829156054    0.2760134803542848    0.26203802489037975    0.24985528749343608    0.24006666834379983    
  0.26213984044317395    0.2549112263217517    0.25035132255786874    0.24878950698113655    0.2503513225578685    
  0.2549112263217513    0.2621398404431734    0.27159773952953425    0.28278068210724544    0.2950728867828693    
  0.307668930530434    0.31958132340809414    0.32979561166474475    0.33750052960058036    0.34222980345334764    
  0.3438154632468324    0.34222980345334764    0.3375005296005803    0.3297956116647446    0.3195813234080941    
  0.30766893053043404    0.29507288678286947    0.2827806821072458    0.27159773952953475    0.26213984044317395    
  0.2853453691461075    0.27851940523300805    0.27364319369669476    0.2710915169024031    0.27109151690240296    
  0.2736431936966944    0.2785194052330075    0.28534536914610686    0.2936817058154207    0.3030379462775182    
  0.31282391648670804    0.32232356636188586    0.3307690566043558    0.33750052960058063    0.3421030950152473    
  0.3444154340680635    0.34441543406806335    0.34210309501524716    0.33750052960058036    0.33076905660435557    
  0.32232356636188575    0.31282391648670804    0.30303794627751857    0.29368170581542125    0.2853453691461075    
  0.3080357487937003    0.30242804649927907    0.29799778691501394    0.2951362639131226    0.2941440754273551    
  0.2951362639131223    0.2979977869150133    0.30242804649927846    0.3080357487936997    0.31440770101916504    
  0.32111512787124336    0.3276942331347965    0.33366483920012757    0.33860468471566924    0.3422298034533481    
  0.34441543406806363    0.3451420388059714    0.34441543406806346    0.34222980345334775    0.3386046847156689    
  0.33366483920012724    0.3276942331347963    0.32111512787124336    0.3144077010191655    0.3080357487937003    
  0.3283403507252067    0.3247847003563911    0.32161724886058496    0.3192071217952324    0.3178963806795584    
  0.3178963806795582    0.31920712179523186    0.32161724886058424    0.3247847003563904    0.328340350725206    
  0.331954942800196    0.3353589127748684    0.3383460304928138    0.3407823347351467    0.34260799397592967    
  0.343815463246833    0.3444154340680637    0.3444154340680636    0.3438154632468326    0.3426079939759292    
  0.34078233473514613    0.33834603049281325    0.33535891277486823    0.3319549428001963    0.3283403507252067    
  0.34441118558607636    0.34365702758655625    0.34255791487205317    0.3413945565321042    0.34050606370392245    
  0.34017339866844676    0.34050606370392206    0.3413945565321035    0.3425579148720523    0.3436570275865555    
  0.34441118558607586    0.34467204935890805    0.34444751810798757    0.3438829815088249    0.343200370080783    
  0.3426079939759298    0.3422298034533482    0.34210309501524755    0.34222980345334797    0.3426079939759293    
  0.34320037008078225    0.34388298150882424    0.344447518107987    0.34467204935890816    0.34441118558607636    
  0.35471601372904465    0.35731215087521306    0.35898946182884456    0.3598415382572918    0.36013451659920276    
  0.36017837901598615    0.360178379015986    0.36013451659920226    0.3598415382572911    0.35898946182884367    
  0.3573121508752125    0.35471601372904443    0.3513448379129831    0.34756665937683007    0.34388298150882496    
  0.34078233473514696    0.3386046847156694    0.3375005296005809    0.3375005296005807    0.33860468471566896    
  0.34078233473514613    0.34388298150882424    0.34756665937682935    0.3513448379129827    0.35471601372904465    
  0.35826403650713046    0.3644730491470069    0.3694565328117224    0.37300893574569044    0.37522079824668864    
  0.3763623212571775    0.376705400907997    0.3763623212571772    0.375220798246688    0.37300893574568966    
  0.36945653281172164    0.3644730491470066    0.35826403650713057    0.35134483791298315    0.3444475181079876    
  0.33834603049281403    0.3336648392001279    0.33076905660435607    0.3297956116647451    0.3307690566043558    
  0.3336648392001272    0.3383460304928131    0.34444751810798674    0.35134483791298254    0.35826403650713046    
  0.3547160137290442    0.3644730491470068    0.3730477358011267    0.37984918629926023    0.3846701370484954    
  0.3876312711948134    0.3890064519736617    0.38900645197366157    0.38763127119481305    0.38467013704849473    
  0.37984918629925946    0.37304773580112605    0.36447304914700673    0.35471601372904465    0.3446720493589084    
  0.3353589127748688    0.32769423313479684    0.3223235663618863    0.31958132340809453    0.3195813234080943    
  0.3223235663618857    0.327694233134796    0.33535891277486773    0.3446720493589076    0.3547160137290442    
  0.3444111855860756    0.3573121508752125    0.3694565328117221    0.3798491862992601    0.38788135050334643    
  0.3933829307213581    0.39651041907469503    0.39751449438877    0.3965104190746948    0.39338293072135766    
  0.387881350503346    0.3798491862992595    0.3694565328117219    0.3573121508752127    0.3444111855860762    
  0.33195494280019633    0.32111512787124363    0.3128239164867083    0.3076689305304343    0.3059263440007939    
  0.3076689305304339    0.3128239164867077    0.3211151278712427    0.3319549428001955    0.3444111855860756    
  0.3283403507252056    0.3436570275865553    0.35898946182884395    0.37300893574569016    0.38467013704849534    
  0.3933829307213581    0.3990222320732832    0.4017513635626805    0.4017513635626804    0.3990222320732829    
  0.3933829307213577    0.3846701370484949    0.37300893574568994    0.35898946182884395    0.3436570275865558    
  0.3283403507252064    0.3144077010191654    0.3030379462775186    0.2950728867828696    0.29099228829156054    
  0.2909922882915605    0.2950728867828691    0.3030379462775178    0.31440770101916454    0.3283403507252056    
  0.30803574879369927    0.3247847003563902    0.3425579148720524    0.3598415382572914    0.37522079824668847    
  0.3876312711948135    0.39651041907469514    0.4017513635626806    0.4034723510673084    0.4017513635626804    
  0.3965104190746949    0.38763127119481317    0.3752207982466882    0.35984153825729137    0.3425579148720526    
  0.32478470035639073    0.30803574879370005    0.29368170581542097    0.2827806821072457    0.2760134803542847    
  0.2737246418256915    0.2760134803542843    0.28278068210724505    0.2936817058154202    0.30803574879369927    
  0.2853453691461065    0.3024280464992781    0.3216172488605841    0.3413945565321036    0.36013451659920254    
  0.37636232125717756    0.38900645197366196    0.3975144943887704    0.40175136356268065    0.4017513635626806    
  0.39751449438877023    0.3890064519736617    0.3763623212571775    0.3601345165992026    0.3413945565321038    
  0.3216172488605845    0.30242804649927874    0.2853453691461071    0.27159773952953425    0.2620380248903793    
  0.2571551657508771    0.2571551657508769    0.26203802489037903    0.2715977395295338    0.2853453691461065    
  0.262139840443173    0.27851940523300717    0.2979977869150131    0.31920712179523175    0.3405060637039221    
  0.36017837901598626    0.3767054009079974    0.38900645197366196    0.3965104190746953    0.39902223207328336    
  0.3965104190746953    0.38900645197366196    0.3767054009079975    0.3601783790159863    0.3405060637039224    
  0.31920712179523214    0.2979977869150135    0.27851940523300756    0.26213984044317334    0.2498552874934354    
  0.24228339466866164    0.23973028833099697    0.24228339466866156    0.24985528749343514    0.262139840443173    
  0.240066668343799    0.2549112263217508    0.273643193696694    0.29513626391312203    0.3178963806795582    
  0.3401733986684467    0.3601783790159864    0.3763623212571778    0.3876312711948137    0.3933829307213583    
  0.3933829307213585    0.3876312711948137    0.37636232125717783    0.36017837901598654    0.3401733986684469    
  0.3178963806795585    0.29513626391312237    0.2736431936966944    0.2549112263217512    0.24006666834379928    
  0.22984790057101107    0.2246574185576723    0.22465741855767224    0.2298479005710108    0.240066668343799    
  0.22043563242988806    0.2331781058954683    0.250351322557868    0.2710915169024026    0.2941440754273547    
  0.3178963806795583    0.3405060637039222    0.36013451659920276    0.37522079824668875    0.3846701370484957    
  0.3878813505033469    0.38467013704849573    0.3752207982466889    0.36013451659920304    0.3405060637039226    
  0.3178963806795586    0.29414407542735505    0.2710915169024029    0.2503513225578683    0.23317810589546875    
  0.22043563242988842    0.21263298062489583    0.21001014026525597    0.21263298062489563    0.22043563242988806    
  0.20422697308907772    0.2145428442511727    0.22960833367058817    0.24878950698113594    0.27109151690240263    
  0.29513626391312214    0.31920712179523203    0.3413945565321039    0.3598415382572917    0.37300893574569055    
  0.3798491862992604    0.3798491862992604    0.3730089357456908    0.35984153825729204    0.3413945565321043    
  0.31920712179523236    0.2951362639131225    0.27109151690240296    0.24878950698113614    0.22960833367058842    
  0.21454284425117304    0.20422697308907786    0.19900087678182665    0.19900087678182657    0.20422697308907772    
  0.19215285333896484    0.199892268640015    0.2125329525329188    0.22960833367058825    0.25035132255786813    
  0.27364319369669415    0.29799778691501333    0.3216172488605844    0.34255791487205267    0.3589894618288442    
  0.3694565328117224    0.3730477358011268    0.36945653281172264    0.35898946182884467    0.34255791487205317    
  0.32161724886058485    0.29799778691501383    0.2736431936966945    0.2503513225578684    0.22960833367058855    
  0.21253295253291904    0.19989226864001527    0.19215285333896492    0.1895499768625012    0.19215285333896484    
  0.18470893022559212    0.18982641477735765    0.1998922686400151    0.2145428442511729    0.23317810589546864    
  0.254911226321751    0.2785194052330074    0.30242804649927846    0.32478470035639057    0.34365702758655564    
  0.3573121508752128    0.364473049147007    0.3644730491470071    0.3573121508752131    0.3436570275865562    
  0.3247847003563912    0.30242804649927896    0.2785194052330078    0.2549112263217514    0.2331781058954689    
  0.2145428442511733    0.1998922686400154    0.18982641477735784    0.18470893022559215    0.18470893022559212    
  0.18219405282691842    0.18470893022559207    0.19215285333896492    0.2042269730890779    0.22043563242988842    
  0.24006666834379928    0.2621398404431733    0.28534536914610675    0.3080357487936996    0.32834035072520584    
  0.3444111855860758    0.35471601372904427    0.35826403650713046    0.3547160137290446    0.3444111855860761    
  0.32834035072520645    0.30803574879370005    0.2853453691461071    0.26213984044317357    0.24006666834379956    
  0.2204356324298887    0.20422697308907822    0.19215285333896515    0.18470893022559234    0.18219405282691842    
  0.1922437634983145    0.1947704375328184    0.20226876626592605    0.21447596218889062    0.2309054641879573    
  0.25079911130030486    0.2730878795281156    0.29637604583842536    0.31898198639918846    0.3390732635830603    
  0.3548915909107099    0.36500093970366576    0.36847638221222184    0.36500093970366604    0.3548915909107103    
  0.33907326358306095    0.31898198639918907    0.29637604583842586    0.27308787952811603    0.25079911130030524    