#     DFTpy    
  CRYSTAL 
    
  PRIMVEC    
  1.6728796782890505    -2.8975125977461103    0.0    
  1.6728796782890505    2.8975125977461103    0.0    
  0.0    0.0    5.656144876827591    
  PRIMCOORD    
  2    1    
  Si    1.6728796782890505    0.9658375325820402    1.4140362192069003    
  Si    1.6728796782890505    -0.9658375325820402    4.242108657620691    
  BEGIN_BLOCK_DATAGRID_3D    
  3d_datagrid_density    
  BEGIN_DATAGRID_3D#0    
  33    33    55    
  0.0    0.0    0.0    
  1.6728796845289235    -2.8975126085538876    0.0    
  1.6728796845289235    2.8975126085538876    0.0    
  0.0    0.0    5.656144897925119    
  0.03971829631294544    0.0401014760195923    0.041249643432288194    0.04315722849670206    0.04581300253657277    
  0.0492017301188037    0.05330372921629992    0.0580816690851108    0.06345294287913093    0.06926311332705835    
  0.07528081109783764    0.08121778077737574    0.08675661045104154    0.09156848038375993    0.09532525206985022    
  0.09772703418301067    0.09855474510383916    0.09772703418301068    0.09532525206985025    0.09156848038376002    
  0.08675661045104183    0.08121778077737621    0.07528081109783824    0.06926311332705905    0.06345294287913165    
  0.058081669085111524    0.053303729216300506    0.04920173011880416    0.04581300253657309    0.04315722849670219    
  0.04124964343228833    0.040101476019592304    0.03971829631294544    0.040101476019592304    0.040101476019592304    
  0.040867282509143475    0.04239610987200654    0.04468056266638031    0.047708625554082895    0.051464720627479026    
  0.055923152232054095    0.061026753313932265    0.06665792417535704    0.07262176649192369    0.0786546572202354    
  0.08445029163662625    0.08968302892046474    0.0940209417669897    0.0971436090839627    0.09878314493087673    
  0.09878314493087667    0.09714360908396273    0.09402094176698979    0.0896830289204649    0.08445029163662664    
  0.07865465722023592    0.0726217664919243    0.06665792417535783    0.061026753313933015    0.05592315223205485    
  0.051464720627479574    0.04770862555408323    0.04468056266638055    0.04239610987200668    0.04086728250914354    
  0.040101476019592304    0.041249643432288235    0.04086728250914352    0.04124964343228825    0.04239610987200653    
  0.044303968187363235    0.046967323905332474    0.050376804848078646    0.05451548403104745    0.059343761130671135    
  0.06477374695495342    0.07064664526457407    0.07672938237472313    0.08273273265417433    0.08833623230778276    
  0.09320557720871489    0.09700689833885924    0.09943646445951651    0.10027355629220842    0.09943646445951645    
  0.09700689833885931    0.09320557720871496    0.08833623230778298    0.08273273265417477    0.0767293823747237    
  0.07064664526457475    0.06477374695495419    0.05934376113067188    0.054515484031048125    0.05037680484807906    
  0.04696732390533271    0.04430396818736344    0.042396109872006635    0.041249643432288235    0.04315722849670215    
  0.042396109872006586    0.04239610987200659    0.043157228496702144    0.044680562666380326    0.046967323905332495    
  0.050016984026452785    0.053822487140712756    0.05835824328236643    0.06355945032815341    0.06929964998415324    
  0.07537935939983792    0.08153348401071596    0.08745177736698943    0.09279926998590386    0.09723229397213881    
  0.10042141941904918    0.10209463387777497    0.10209463387777497    0.10042141941904915    0.09723229397213885    
  0.09279926998590401    0.08745177736698978    0.08153348401071646    0.07537935939983853    0.06929964998415397    
  0.06355945032815416    0.05835824328236711    0.05382248714071335    0.050016984026453194    0.04696732390533275    
  0.044680562666380506    0.04315722849670215    0.04581300253657303    0.04468056266638046    0.04430396818736338    
  0.04468056266638045    0.0458130025365729    0.04770862555408303    0.05037680484807872    0.05382248714071279    
  0.05803420395125725    0.06296660712370555    0.0685211355781429    0.07453197309504514    0.08076423585774517    
  0.08692545721805138    0.09268423360184211    0.09768953181836712    0.10159293115166027    0.10408388533532363    
  0.1049411966653764    0.10408388533532363    0.10159293115166017    0.09768953181836725    0.09268423360184229    
  0.08692545721805171    0.08076423585774574    0.07453197309504582    0.06852113557814371    0.06296660712370633    
  0.0580342039512579    0.05382248714071335    0.05037680484807909    0.047708625554083235    0.04581300253657303    
  0.04920173011880402    0.047708625554083166    0.04696732390533261    0.04696732390533255    0.047708625554083006    
  0.049201730118803945    0.051464720627479234    0.0545154840310476    0.05835824328236653    0.0629666071237056    
  0.06826699137117422    0.0741256635386582    0.08034186713412195    0.0866494591793165    0.09272836093471426    
  0.0982242149679043    0.1027738747393956    0.1060383739695724    0.10774702726345203    0.10774702726345207    
  0.10603837396957236    0.10277387473939553    0.09822421496790443    0.09272836093471448    0.0866494591793169    
  0.0803418671341225    0.07412566353865893    0.06826699137117498    0.06296660712370632    0.05835824328236708    
  0.054515484031048084    0.05146472062747951    0.04920173011880402    0.05330372921630041    0.051464720627479435    
  0.05037680484807891    0.05001698402645293    0.050376804848078764    0.05146472062747929    0.0533037292163002    
  0.05592315223205437    0.05934376113067129    0.06355945032815348    0.06852113557814293    0.0741256635386582    
  0.08020804107588787    0.08653600782987703    0.0928114063562306    0.09868458021554899    0.10378224889770762    
  0.10774369904972729    0.11026166627170272    0.11112605507999387    0.11026166627170272    0.10774369904972726    
  0.1037822488977077    0.09868458021554906    0.09281140635623082    0.08653600782987743    0.0802080410758885    
  0.07412566353865893    0.06852113557814364    0.06355945032815413    0.05934376113067183    0.05592315223205478    
  0.05330372921630041    0.058081669085111455    0.05592315223205466    0.05451548403104783    0.05382248714071307    
  0.053822487140712964    0.05451548403104775    0.055923152232054484    0.05808166908511115    0.06102675331393256    
  0.06477374695495358    0.0692996499841533    0.0745319730950451    0.08034186713412182    0.086536007829877    
  0.09284918818363856    0.09894883277936056    0.10445990510323841    0.10900540711557503    0.11225024192863639    
  0.11394127635980827    0.11394127635980832    0.11225024192863639    0.10900540711557506    0.10445990510323838    
  0.09894883277936073    0.09284918818363887    0.0865360078298775    0.08034186713412249    0.07453197309504574    
  0.06929964998415394    0.06477374695495415    0.061026753313932966    0.058081669085111455    0.06345294287913161    
  0.06102675331393283    0.059343761130671545    0.05835824328236675    0.0580342039512575    0.05835824328236672    
  0.05934376113067144    0.061026753313932654    0.06345294287913128    0.0666579241753573    0.0706466452645742    
  0.07537935939983786    0.08076423585774505    0.08664945917931635    0.09281140635623052    0.0989488327793605    
  0.10469865426351185    0.10967610479455113    0.11352441786018189    0.11595736008432014    0.11678974284273551    
  0.11595736008432019    0.11352441786018196    0.10967610479455116    0.10469865426351194    0.09894883277936069    
  0.09281140635623086    0.08664945917931682    0.08076423585774561    0.07537935939983847    0.07064664526457472    
  0.06665792417535774    0.06345294287913161    0.06926311332705902    0.06665792417535758    0.06477374695495387    
  0.06355945032815381    0.06296660712370589    0.0629666071237059    0.06355945032815376    0.06477374695495378    
  0.06665792417535739    0.06926311332705871    0.07262176649192385    0.07672938237472315    0.08153348401071582    
  0.08692545721805121    0.09272836093471411    0.09868458021554878    0.10445990510323824    0.10967610479455106    
  0.11396307112032401    0.11700808997809273    0.11858832978538275    0.11858832978538278    0.11700808997809274    
  0.11396307112032404    0.10967610479455116    0.10445990510323835    0.09868458021554909    0.09272836093471444    
  0.08692545721805166    0.08153348401071638    0.07672938237472365    0.07262176649192428    0.06926311332705902    
  0.07528081109783813    0.07262176649192412    0.07064664526457448    0.06929964998415357    0.0685211355781432    
  0.06826699137117459    0.06852113557814322    0.06929964998415357    0.07064664526457441    0.07262176649192398    
  0.07528081109783799    0.07865465722023554    0.08273273265417427    0.08745177736698927    0.09268423360184186    
  0.09822421496790412    0.10378224889770739    0.10900540711557488    0.11352441786018175    0.11700808997809273    
  0.11920285762622569    0.1199520475404507    0.11920285762622579    0.11700808997809273    0.11352441786018184    
  0.10900540711557492    0.1037822488977076    0.09822421496790436    0.09268423360184219    0.08745177736698966    
  0.08273273265417472    0.07865465722023586    0.07528081109783813    0.0812177807773761    0.07865465722023571    
  0.07672938237472342    0.07537935939983814    0.0745319730950453    0.07412566353865853    0.07412566353865851    
  0.07453197309504543    0.07537935939983822    0.07672938237472342    0.07865465722023568    0.08121778077737599    
  0.08445029163662632    0.08833623230778265    0.09279926998590368    0.09768953181836691    0.1027738747393953    
  0.10774369904972701    0.11225024192863615    0.11595736008432    0.11858832978538267    0.11995204754045065    
  0.1199520475404507    0.11858832978538271    0.11595736008432007    0.11225024192863628    0.10774369904972719    
  0.10277387473939549    0.09768953181836712    0.09279926998590393    0.08833623230778298    0.08445029163662653    
  0.0812177807773761    0.08675661045104185    0.08445029163662646    0.0827327326541745    0.08153348401071608    
  0.08076423585774525    0.0803418671341221    0.0802080410758881    0.08034186713412214    0.0807642358577454    
  0.08153348401071617    0.08273273265417458    0.08445029163662647    0.08675661045104174    0.08968302892046476    
  0.09320557720871477    0.09723229397213863    0.10159293115165997    0.10603837396957208    0.11026166627170239    
  0.11394127635980811    0.11678974284273527    0.11858832978538267    0.11920285762622573    0.11858832978538268    
  0.11678974284273541    0.11394127635980825    0.11026166627170263    0.1060383739695723    0.10159293115166008    
  0.09723229397213883    0.09320557720871499    0.08968302892046488    0.08675661045104185    0.09156848038376    
  0.0896830289204648    0.08833623230778279    0.08745177736698938    0.08692545721805132    0.0866494591793165    
  0.08653600782987715    0.08653600782987719    0.08664945917931667    0.08692545721805155    0.08745177736698961    
  0.0883362323077829    0.08968302892046484    0.09156848038375999    0.09402094176698969    0.09700689833885918    
  0.10042141941904897    0.10408388533532333    0.10774702726345173    0.11112605507999351    0.11394127635980808    
  0.11595736008431998    0.11700808997809273    0.11700808997809273    0.11595736008432009    0.1139412763598082    
  0.11112605507999375    0.10774702726345195    0.10408388533532352    0.1004214194190491    0.09700689833885935    
  0.09402094176698976    0.09156848038376    0.09532525206985025    0.0940209417669897    0.0932055772087148    
  0.09279926998590368    0.09268423360184186    0.09272836093471411    0.0928114063562305    0.09284918818363859    
  0.09281140635623066    0.0927283609347143    0.09268423360184222    0.0927992699859039    0.0932055772087149    
  0.0940209417669897    0.09532525206985025    0.09714360908396269    0.09943646445951636    0.10209463387777479    
  0.1049411966653761    0.1077470272634517    0.11026166627170235    0.11225024192863615    0.11352441786018175    
  0.11396307112032399    0.11352441786018179    0.11225024192863628    0.11026166627170263    0.10774702726345198    
  0.10494119666537631    0.10209463387777493    0.09943646445951644    0.09714360908396275    0.09532525206985025    
  0.09772703418301074    0.09714360908396269    0.09700689833885914    0.09723229397213855    0.09768953181836681    
  0.09822421496790394    0.09868458021554864    0.0989488327793603    0.0989488327793604    0.09868458021554884    
  0.09822421496790429    0.09768953181836712    0.09723229397213881    0.09700689833885932    0.0971436090839627    
  0.09772703418301071    0.09878314493087667    0.10027355629220831    0.10209463387777475    0.10408388533532331    
  0.10603837396957208    0.10774369904972701    0.10900540711557485    0.10967610479455102    0.10967610479455106    
  0.10900540711557496    0.10774369904972726    0.10603837396957233    0.10408388533532356    0.10209463387777495    
  0.10027355629220844    0.09878314493087674    0.09772703418301074    0.09855474510383914    0.09878314493087666    
  0.09943646445951625    0.10042141941904884    0.1015929311516597    0.10277387473939499    0.10378224889770707    
  0.10445990510323783    0.10469865426351135    0.10445990510323794    0.1037822488977073    0.10277387473939534    
  0.10159293115166004    0.10042141941904911    0.09943646445951641    0.09878314493087667    0.09855474510383916    
  0.09878314493087664    0.09943646445951629    0.10042141941904892    0.10159293115165986    0.10277387473939528    
  0.10378224889770737    0.10445990510323815    0.1046986542635118    0.10445990510323831    0.10378224889770758    
  0.10277387473939553    0.10159293115166015    0.10042141941904913    0.09943646445951645    0.09878314493087664    
  0.09855474510383914    0.0977270341830107    0.09878314493087667    0.10027355629220827    0.1020946338777747    
  0.1040838853353231    0.10603837396957175    0.10774369904972651    0.10900540711557422    0.10967610479455037    
  0.10967610479455041    0.10900540711557441    0.10774369904972678    0.10603837396957205    0.10408388533532342    
  0.10209463387777488    0.1002735562922084    0.0987831449308767    0.09772703418301068    0.09714360908396265    
  0.0970068983388591    0.09723229397213855    0.09768953181836691    0.0982242149679041    0.09868458021554874    
  0.0989488327793605    0.09894883277936053    0.09868458021554898    0.0982242149679043    0.09768953181836712    
  0.09723229397213881    0.09700689833885932    0.0971436090839627    0.0977270341830107    0.09532525206985012    
  0.09714360908396263    0.09943646445951632    0.10209463387777472    0.10494119666537592    0.10774702726345137    
  0.11026166627170186    0.11225024192863536    0.11352441786018083    0.11396307112032306    0.11352441786018096    
  0.11225024192863557    0.11026166627170204    0.10774702726345163    0.10494119666537621    0.10209463387777487    
  0.09943646445951641    0.09714360908396268    0.0953252520698502    0.09402094176698966    0.09320557720871467    
  0.09279926998590364    0.09268423360184185    0.09272836093471402    0.09281140635623047    0.09284918818363853    
  0.09281140635623059    0.09272836093471425    0.0926842336018421    0.09279926998590386    0.09320557720871486    
  0.09402094176698966    0.09532525206985012    0.09156848038375984    0.09402094176698957    0.09700689833885913    
  0.10042141941904886    0.10408388533532312    0.1077470272634514    0.11112605507999292    0.11394127635980726    
  0.11595736008431895    0.1170080899780915    0.1170080899780916    0.11595736008431909    0.11394127635980743    
  0.11112605507999317    0.10774702726345166    0.10408388533532345    0.10042141941904906    0.09700689833885923    
  0.09402094176698969    0.09156848038375996    0.08968302892046463    0.0883362323077826    0.08745177736698925    
  0.0869254572180512    0.08664945917931631    0.08653600782987696    0.08653600782987703    0.08664945917931646    
  0.08692545721805141    0.0874517773669894    0.08833623230778276    0.08968302892046467    0.09156848038375984    
  0.08675661045104155    0.08968302892046459    0.09320557720871471    0.09723229397213859    0.10159293115165975    
  0.10603837396957179    0.11026166627170184    0.11394127635980723    0.1167897428427342    0.11858832978538139    
  0.1192028576262244    0.11858832978538149    0.11678974284273429    0.11394127635980747    0.11026166627170207    
  0.10603837396957203    0.10159293115166004    0.09723229397213869    0.09320557720871486    0.08968302892046474    
  0.08675661045104166    0.08445029163662628    0.08273273265417425    0.08153348401071582    0.08076423585774505    
  0.08034186713412182    0.08020804107588786    0.0803418671341219    0.08076423585774514    0.08153348401071597    
  0.08273273265417434    0.08445029163662622    0.08675661045104155    0.0812177807773757    0.08445029163662612    
  0.08833623230778252    0.09279926998590357    0.09768953181836677    0.10277387473939503    0.10774369904972657    
  0.11225024192863536    0.1159573600843189    0.11858832978538135    0.11995204754044929    0.11995204754044932    
  0.11858832978538142    0.11595736008431903    0.11225024192863554    0.10774369904972673    0.10277387473939528    
  0.09768953181836705    0.09279926998590383    0.08833623230778284    0.08445029163662637    0.08121778077737592    
  0.07865465722023549    0.07672938237472308    0.07537935939983784    0.07453197309504504    0.07412566353865818    
  0.07412566353865815    0.07453197309504514    0.07537935939983786    0.07672938237472315    0.07865465722023537    
  0.0812177807773757    0.07528081109783766    0.07865465722023526    0.08273273265417411    0.08745177736698913    
  0.09268423360184176    0.09822421496790393    0.10378224889770708    0.10900540711557417    0.11352441786018082    
  0.11700808997809148    0.11920285762622439    0.11995204754044925    0.1192028576262244    0.1170080899780915    
  0.11352441786018089    0.10900540711557434    0.10378224889770724    0.09822421496790419    0.09268423360184212    
  0.08745177736698954    0.0827327326541745    0.07865465722023564    0.07528081109783792    0.07262176649192381    
  0.07064664526457415    0.06929964998415325    0.06852113557814289    0.06826699137117422    0.06852113557814289    
  0.06929964998415324    0.07064664526457413    0.07262176649192371    0.07528081109783766    0.0692631133270584    
  0.07262176649192352    0.07672938237472288    0.08153348401071565    0.08692545721805103    0.09272836093471393    
  0.09868458021554855    0.10445990510323772    0.1096761047945503    0.11396307112032295    0.1170080899780915    
  0.11858832978538138    0.11858832978538131    0.1170080899780915    0.11396307112032295    0.10967610479455031    
  0.10445990510323788    0.09868458021554873    0.09272836093471426    0.08692545721805155    0.08153348401071617    
  0.07672938237472342    0.07262176649192398    0.06926311332705871    0.06665792417535732    0.06477374695495354    
  0.0635594503281535    0.06296660712370564    0.06296660712370555    0.06355945032815342    0.0647737469549535    
  0.06665792417535715    0.0692631133270584    0.06345294287913097    0.06665792417535699    0.07064664526457384    
  0.07537935939983754    0.08076423585774478    0.08664945917931613    0.09281140635623028    0.09894883277936015    
  0.10469865426351123    0.10967610479455031    0.11352441786018076    0.11595736008431895    0.11678974284273413    
  0.1159573600843189    0.11352441786018076    0.10967610479455027    0.10469865426351133    0.09894883277936035    
  0.09281140635623059    0.08664945917931662    0.08076423585774542    0.07537935939983824    0.07064664526457444    
  0.06665792417535739    0.06345294287913128    0.06102675331393251    0.05934376113067128    0.05835824328236647    
  0.058034203951257246    0.05835824328236648    0.059343761130671184    0.06102675331393236    0.06345294287913097    
  0.058081669085110886    0.061026753313932244    0.0647737469549532    0.06929964998415289    0.0745319730950447    
  0.08034186713412152    0.08653600782987672    0.09284918818363824    0.09894883277936015    0.10445990510323773    
  0.10900540711557424    0.11225024192863531    0.11394127635980715    0.11394127635980722    0.1122502419286353    
  0.10900540711557415    0.10445990510323776    0.09894883277936026    0.09284918818363862    0.08653600782987718    
  0.08034186713412222    0.07453197309504547    0.06929964998415357    0.06477374695495376    0.06102675331393264    
  0.05808166908511118    0.0559231522320544    0.05451548403104765    0.05382248714071281    0.053822487140712826    
  0.054515484031047556    0.05592315223205425    0.058081669085110886    0.05330372921629995    0.05592315223205415    
  0.05934376113067094    0.06355945032815304    0.06852113557814243    0.07412566353865777    0.08020804107588747    
  0.08653600782987668    0.09281140635623025    0.0986845802155485    0.10378224889770703    0.1077436990497265    
  0.1102616662717018    0.11112605507999282    0.11026166627170177    0.10774369904972644    0.10378224889770701    
  0.09868458021554861    0.09281140635623053    0.08653600782987715    0.08020804107588814    0.07412566353865853    
  0.06852113557814324    0.06355945032815373    0.05934376113067144    0.05592315223205444    0.05330372921630022    
  0.05146472062747926    0.050376804848078736    0.050016984026452826    0.050376804848078764    0.05146472062747913    
  0.05330372921629995    0.04920173011880376    0.05146472062747903    0.054515484031047355    0.05835824328236609    
  0.0629666071237051    0.06826699137117377    0.07412566353865774    0.08034186713412148    0.08664945917931612    
  0.09272836093471386    0.09822421496790391    0.10277387473939502    0.10603837396957178    0.10774702726345128    
  0.10774702726345128    0.10603837396957168    0.10277387473939498    0.09822421496790393    0.0927283609347141    
  0.0866494591793165    0.08034186713412209    0.07412566353865849    0.06826699137117459    0.06296660712370589    
  0.05835824328236669    0.05451548403104775    0.051464720627479296    0.049201730118803966    0.04770862555408305    
  0.04696732390533254    0.046967323905332536    0.047708625554083    0.04920173011880376    0.0458130025365729    
  0.04770862555408293    0.05037680484807857    0.053822487140712555    0.058034203951256844    0.06296660712370512    
  0.06852113557814243    0.07453197309504465    0.08076423585774475    0.08692545721805099    0.09268423360184175    
  0.0976895318183668    0.10159293115165972    0.10408388533532312    0.10494119666537592    0.10408388533532308    
  0.10159293115165974    0.09768953181836677    0.09268423360184189    0.08692545721805137    0.0807642358577453    
  0.07453197309504543    0.06852113557814327    0.0629666071237059    0.05803420395125759    0.053822487140713034    
  0.05037680484807887    0.04770862555408311    0.045813002536572944    0.04468056266638048    0.044303968187363346    
  0.0446805626663804    0.0458130025365729    0.04315722849670211    0.04468056266638034    0.04696732390533239    
  0.050016984026452604    0.053822487140712465    0.05835824328236607    0.06355945032815301    0.06929964998415279    
  0.07537935939983752    0.08153348401071556    0.0874517773669891    0.09279926998590353    0.0972322939721385    
  0.10042141941904885    0.10209463387777468    0.10209463387777462    0.10042141941904885    0.09723229397213852    
  0.09279926998590364    0.08745177736698938    0.08153348401071603    0.07537935939983818    0.06929964998415367    
  0.06355945032815379    0.0583582432823668    0.05382248714071306    0.05001698402645297    0.04696732390533262    
  0.044680562666380465    0.043157228496702185    0.042396109872006635    0.04239610987200661    0.04315722849670211    
  0.04124964343228824    0.042396109872006586    0.04430396818736324    0.04696732390533233    0.05037680484807846    
  0.054515484031047286    0.05934376113067086    0.0647737469549531    0.0706466452645738    0.07672938237472277    
  0.08273273265417407    0.08833623230778248    0.09320557720871463    0.09700689833885912    0.09943646445951629    
  0.1002735562922082    0.09943646445951627    0.09700689833885912    0.09320557720871474    0.08833623230778274    
  0.08273273265417447    0.07672938237472343    0.07064664526457451    0.06477374695495391    0.05934376113067157    
  0.05451548403104788    0.05037680484807897    0.04696732390533267    0.04430396818736336    0.04239610987200662    
  0.04124964343228829    0.04086728250914354    0.04124964343228824    0.040101476019592304    0.040867282509143524    
  0.04239610987200653    0.044680562666380305    0.04770862555408282    0.051464720627478935    0.05592315223205403    
  0.06102675331393209    0.06665792417535685    0.07262176649192348    0.07865465722023522    0.08445029163662614    
  0.08968302892046459    0.09402094176698961    0.09714360908396262    0.09878314493087663    0.09878314493087664    
  0.09714360908396263    0.09402094176698964    0.0896830289204648    0.08445029163662646    0.07865465722023576    
  0.07262176649192416    0.06665792417535762    0.06102675331393291    0.05592315223205468    0.0514647206274795    
  0.04770862555408325    0.04468056266638046    0.04239610987200665    0.04086728250914355    0.04010147601959231    
  0.040101476019592304    0.03971829631294544    0.0401014760195923    0.041249643432288194    0.04315722849670206    
  0.04581300253657277    0.0492017301188037    0.05330372921629992    0.0580816690851108    0.06345294287913093    
  0.06926311332705835    0.07528081109783764    0.08121778077737574    0.08675661045104154    0.09156848038375993    
  0.09532525206985022    0.09772703418301067    0.09855474510383916    0.09772703418301068    0.09532525206985025    
  0.09156848038376002    0.08675661045104183    0.08121778077737621    0.07528081109783824    0.06926311332705905    
  0.06345294287913165    0.058081669085111524    0.053303729216300506    0.04920173011880416    0.04581300253657309    
  0.04315722849670219    0.04124964343228833    0.040101476019592304    0.03971829631294544    0.04015074172658022    
  0.04054079716341583    0.0417097585533116    0.04365330667125903    0.04636354995068248    0.04982978644168807    
  0.05403516416439595    0.05894106129304467    0.06445981122612023    0.07043049560745934    0.07661524041612915    
  0.0827183129226299    0.08841246053166618    0.09335746053453721    0.09721510372809576    0.09967913413129798    
  0.10052779066328107    0.09967913413129799    0.09721510372809582    0.09335746053453733    0.08841246053166647    
  0.08271831292263034    0.07661524041612974    0.07043049560746005    0.06445981122612097    0.058941061293045376    
  0.05403516416439652    0.04982978644168854    0.04636354995068279    0.043653306671259176    0.04170975855331174    
  0.040540797163415854    0.04015074172658022    0.04054079716341584    0.040540797163415854    0.04128661652856205    
  0.04277666010261377    0.04500497896013859    0.04796007989977796    0.05162553149342528    0.055974207693936344    
  0.06094854974351454    0.06643305169389502    0.07223803392186022    0.07810804588651324    0.08374708173685227    
  0.08884046497207271    0.0930660549767771    0.09611056120194444    0.09771018284043326    0.0977101828404332    
  0.09611056120194444    0.09306605497677717    0.08884046497207286    0.08374708173685265    0.07810804588651375    
  0.07223803392186087    0.06643305169389578    0.0609485497435153    0.05597420769393708    0.05162553149342582    
  0.047960079899778275    0.04500497896013883    0.0427766601026139    0.04128661652856212    0.04054079716341584    
  0.04170975855331165    0.041354276844648895    0.04170975855331165    0.042776660102613766    0.044553799861463336    
  0.04703413609011703    0.05020368804627069    0.054040704538861666    0.05850540176000567    0.06351695394079314    
  0.06893031227595542    0.07453162870548706    0.0800564153030196    0.08521406659500987    0.0897017680263282    
  0.09321286363794408    0.09546211029542385    0.09623820417725477    0.09546211029542388    0.09321286363794419    
  0.0897017680263283    0.08521406659501013    0.08005641530302006    0.07453162870548763    0.06893031227595614    
  0.06351695394079396    0.05850540176000641    0.054040704538862346    0.05020368804627111    0.04703413609011727    
  0.04455379986146355    0.042776660102613884    0.04170975855331165    0.04365330667125914    0.04297879499322455    
  0.04297879499322455    0.0436533066712591    0.045004978960138595    0.04703413609011704    0.04973412796434923    
  0.053089615718763056    0.05707210434571662    0.06162491135763952    0.06664047724318135    0.07194583992532495    
  0.07730941436719392    0.08246334844405204    0.08712273223225461    0.0909940206593844    0.09378811950737924    
  0.09525825216310613    0.09525825216310616    0.09378811950737928    0.0909940206593845    0.08712273223225486    
  0.08246334844405245    0.07730941436719448    0.0719458399253256    0.06664047724318209    0.06162491135764031    
  0.05707210434571735    0.05308961571876364    0.04973412796434965    0.0470341360901173    0.04500497896013879    
  0.04365330667125914    0.04636354995068276    0.04541038075731329    0.04509376011136081    0.045410380757313275    
  0.0463635499506826    0.04796007989977807    0.05020368804627074    0.05308961571876307    0.05660048134777786    
  0.0606973948194117    0.0653026200550918    0.07028130935503699    0.07543684104360546    0.08052519974228207    
  0.08527678343036299    0.08941073855985388    0.09264414716078857    0.09471500546421102    0.09542946645277933    
  0.09471500546421104    0.09264414716078853    0.08941073855985403    0.08527678343036324    0.08052519974228246    