#     DFTpy    
  CRYSTAL 
    
  PRIMVEC    
  1.5901548590330004    -2.7542290077476803    0.0    
  1.5901548590330004    2.7542290077476803    0.0    
  0.0    0.0    5.376445404896551    
  PRIMCOORD    
  2    1    
  Si    1.5901548590330004    0.9180763359158903    1.3441113512241403    
  Si    1.5901548590330004    -0.9180763359158903    4.032334053672411    
  BEGIN_BLOCK_DATAGRID_3D    
  3d_datagrid_density    
  BEGIN_DATAGRID_3D#0    
  31    31    55    
  0.0    0.0    0.0    
  1.5901548649643085    -2.7542290180210074    0.0    
  1.5901548649643085    2.7542290180210074    0.0    
  0.0    0.0    5.376445424950795    
  0.0520384497729089    0.05259219647287095    0.054254173348915545    0.05702758278797377    0.06091507041803964    
  0.06590297243535426    0.07193547776160383    0.07889049165288908    0.08656308118625819    0.09465257315508033    
  0.10275454955723345    0.11037445020339041    0.11697905237449624    0.122076053278633    0.12528660314354104    
  0.126381825380701    0.125286603143541    0.12207605327863293    0.11697905237449609    0.11037445020339016    
  0.102754549557233    0.09465257315507976    0.08656308118625754    0.07889049165288842    0.07193547776160329    
  0.06590297243535385    0.06091507041803939    0.05702758278797358    0.0542541733489154    0.0525921964728709    
  0.0520384497729089    0.05259219647287095    0.052592196472870986    0.053700196561433725    0.055919178205675865    
  0.05925453182283648    0.0637041933221845    0.06923614644854185    0.07576227663285831    0.08311888858011886    
  0.09105349406353819    0.0992137169306843    0.1071471309994991    0.11433201612457983    0.12024523017014566    
  0.12444301951207819    0.12661807654881785    0.12661807654881774    0.12444301951207815    0.12024523017014556    
  0.11433201612457966    0.10714713099949877    0.09921371693068375    0.0910534940635376    0.08311888858011811    
  0.07576227663285767    0.06923614644854137    0.0637041933221842    0.05925453182283626    0.05591917820567573    
  0.05370019656143362    0.05259219647287095    0.054254173348915496    0.05370019656143369    0.054254173348915545    
  0.05591917820567585    0.05870361828290481    0.06261427053150523    0.06763745836760092    0.07371286422535382    
  0.08071150587856558    0.08842242088209544    0.0965426017218952    0.10466975480925354    0.11231357683356509    
  0.11894316492800902    0.12406415906616984    0.12729249116250727    0.12839429905100022    0.12729249116250724    
  0.12406415906616988    0.11894316492800894    0.11231357683356485    0.10466975480925313    0.09654260172189462    
  0.08842242088209477    0.08071150587856483    0.07371286422535324    0.06763745836760048    0.0626142705315049    
  0.058703618282904636    0.05591917820567578    0.054254173348915496    0.05702758278797368    0.05591917820567584    
  0.055919178205675886    0.05702758278797375    0.059254531822836465    0.06261427053150516    0.06710884863092614    
  0.07270269556668527    0.07929806256628125    0.08672004385988785    0.09470874103736944    0.10291189273110896    
  0.11088369585875896    0.11810927818712239    0.12406573885056127    0.1283017011848512    0.13049935859241316    
  0.13049935859241316    0.12830170118485118    0.12406573885056127    0.11810927818712229    0.11088369585875868    
  0.10291189273110846    0.09470874103736876    0.08672004385988714    0.07929806256628052    0.07270269556668474    
  0.0671088486309257    0.06261427053150492    0.05925453182283634    0.05702758278797368    0.06091507041803945    
  0.05925453182283643    0.058703618282904775    0.059254531822836465    0.06091507041803957    0.06370419332218444    
  0.06763745836760085    0.07270269556668527    0.07883326897863507    0.0858892806050919    0.09364949880511504    
  0.10180701129407599    0.1099646246538137    0.11764184585919715    0.1243130430413937    0.1294786622350588    
  0.13274191285838682    0.13385693111861421    0.13274191285838682    0.12947866223505877    0.12431304304139365    
  0.11764184585919697    0.10996462465381332    0.10180701129407539    0.09364949880511429    0.08588928060509121    
  0.07883326897863444    0.07270269556668474    0.06763745836760045    0.06370419332218422    0.06091507041803945    
  0.065902972435354    0.0637041933221843    0.06261427053150505    0.06261427053150508    0.06370419332218438    
  0.06590297243535412    0.0692361464485417    0.07371286422535374    0.07929806256628118    0.08588928060509192    
  0.09330467872305137    0.10127961526807006    0.10946395987410697    0.11742115326592681    0.12464572891609424    
  0.13061581883475007    0.13487133586667233    0.13708259514813742    0.13708259514813745    0.13487133586667233    
  0.1306158188347501    0.12464572891609414    0.1174211532659266    0.10946395987410645    0.10127961526806942    
  0.09330467872305061    0.08588928060509127    0.07929806256628052    0.07371286422535328    0.06923614644854145    
  0.065902972435354    0.07193547776160339    0.0692361464485415    0.06763745836760059    0.06710884863092587    
  0.06763745836760063    0.06923614644854158    0.07193547776160358    0.07576227663285813    0.08071150587856543    
  0.08672004385988785    0.09364949880511506    0.10127961526807008    0.10930669046230486    0.11734156158647607    
  0.12491459442196691    0.1315075869184668    0.13662136856328233    0.13985545719397802    0.14096103592660536    
  0.139855457193978    0.13662136856328236    0.1315075869184667    0.1249145944219667    0.1173415615864758    
  0.10930669046230435    0.10127961526806945    0.09364949880511442    0.08672004385988721    0.08071150587856492    
  0.07576227663285778    0.07193547776160339    0.07889049165288857    0.0757622766328578    0.0737128642253534    
  0.07270269556668482    0.07270269556668486    0.07371286422535346    0.07576227663285792    0.07889049165288876    
  0.08311888858011864    0.08842242088209537    0.09470874103736945    0.10180701129407606    0.10946395987410704    
  0.11734156158647614    0.1250163738318294    0.13199534842201122    0.1377668339447819    0.14188032114522184    
  0.14401658893282301    0.14401658893282301    0.14188032114522178    0.13776683394478184    0.13199534842201116    
  0.12501637383182918    0.11734156158647577    0.10946395987410655    0.10180701129407545    0.09470874103736886    
  0.08842242088209486    0.08311888858011826    0.07889049165288857    0.08656308118625762    0.0831188885801182    
  0.08071150587856496    0.07929806256628057    0.07883326897863449    0.0792980625662806    0.08071150587856503    
  0.08311888858011834    0.08656308118625786    0.09105349406353799    0.0965426017218952    0.10291189273110911    
  0.10996462465381386    0.11742115326592699    0.12491459442196698    0.1319953484220113    0.13816459800318515    
  0.14294530281986434    0.14596316090108094    0.14699331761446705    0.14596316090108097    0.14294530281986428    
  0.138164598003185    0.13199534842201116    0.12491459442196673    0.11742115326592667    0.10996462465381339    
  0.10291189273110853    0.09654260172189473    0.09105349406353765    0.08656308118625762    0.09465257315507988    
  0.09105349406353762    0.08842242088209479    0.0867200438598871    0.08588928060509113    0.08588928060509109    
  0.0867200438598871    0.08842242088209476    0.09105349406353769    0.09465257315508004    0.09921371693068422    
  0.10466975480925364    0.11088369585875917    0.11764184585919742    0.12464572891609449    0.131507586918467    
  0.13776683394478206    0.14294530281986437    0.14663016110373525    0.14853974644322634    0.14853974644322637    
  0.1466301611037352    0.14294530281986428    0.1377668339447819    0.13150758691846676    0.12464572891609424    
  0.11764184585919707    0.11088369585875875    0.1046697548092532    0.09921371693068388    0.09465257315507988    
  0.1027545495572331    0.09921371693068375    0.09654260172189447    0.0947087410373686    0.09364949880511408    
  0.09330467872305029    0.093649498805114    0.09470874103736847    0.09654260172189442    0.09921371693068372    
  0.10275454955723316    0.10714713099949907    0.11231357683356523    0.11810927818712262    0.12431304304139403    
  0.13061581883475037    0.13662136856328266    0.14188032114522203    0.1459631609010811    0.14853974644322643    
  0.1494185870316666    0.14853974644322634    0.14596316090108102    0.14188032114522187    0.13662136856328239    
  0.1306158188347501    0.12431304304139375    0.11810927818712233    0.112313576833565    0.10714713099949884    
  0.1027545495572331    0.11037445020339023    0.10714713099949857    0.10466975480925288    0.10291189273110807    
  0.10180701129407489    0.10127961526806886    0.1012796152680688    0.10180701129407477    0.10291189273110787    
  0.10466975480925265    0.10714713099949853    0.11037445020339023    0.11433201612457985    0.11894316492800922    
  0.1240657388505616    0.12947866223505913    0.13487133586667266    0.13985545719397835    0.14401658893282335    
  0.14699331761446716    0.1485397464432265    0.14853974644322643    0.14699331761446705    0.1440165889328231    
  0.13985545719397807    0.1348713358666724    0.1294786622350589    0.12406573885056132    0.11894316492800895    
  0.11433201612457972    0.11037445020339023    0.11697905237449611    0.11433201612457941    0.11231357683356448    
  0.11088369585875804    0.1099646246538126    0.10946395987410566    0.10930669046230339    0.10946395987410552    
  0.10996462465381236    0.11088369585875774    0.11231357683356417    0.11433201612457927    0.11697905237449609    
  0.12024523017014571    0.12406415906617015    0.12830170118485154    0.13274191285838727    0.1370825951481378    
  0.14096103592660572    0.14401658893282326    0.14596316090108116    0.14663016110373533    0.14596316090108108    
  0.14401658893282315    0.1409610359266055    0.1370825951481375    0.132741912858387    0.1283017011848513    
  0.12406415906616994    0.12024523017014566    0.11697905237449611    0.12207605327863297    0.12024523017014518    
  0.11894316492800834    0.1181092781871214    0.11764184585919599    0.11742115326592548    0.11734156158647455    
  0.11734156158647453    0.11742115326592531    0.11764184585919567    0.11810927818712107    0.11894316492800805    
  0.120245230170145    0.12207605327863294    0.12444301951207824    0.1272924911625074    0.13049935859241352    
  0.13385693111861466    0.13708259514813786    0.13985545719397838    0.14188032114522206    0.14294530281986448    
  0.14294530281986448    0.14188032114522192    0.13985545719397813    0.13708259514813753    0.13385693111861438    
  0.13049935859241318    0.12729249116250727    0.12444301951207822    0.12207605327863297    0.12528660314354106    
  0.12444301951207773    0.12406415906616916    0.12406573885056021    0.12431304304139253    0.12464572891609285    
  0.12491459442196531    0.1250163738318277    0.1249145944219652    0.12464572891609257    0.12431304304139215    
  0.1240657388505599    0.12406415906616886    0.12444301951207756    0.12528660314354104    0.12661807654881796    
  0.12839429905100053    0.13049935859241352    0.13274191285838727    0.13487133586667274    0.13662136856328272    
  0.13776683394478215    0.13816459800318523    0.13776683394478204    0.1366213685632824    0.13487133586667246    
  0.13274191285838693    0.13049935859241318    0.12839429905100028    0.12661807654881785    0.12528660314354106    
  0.12638182538070103    0.1266180765488173    0.12729249116250635    0.1283017011848501    0.12947866223505744    
  0.13061581883474863    0.1315075869184652    0.13199534842200958    0.13199534842200952    0.131507586918465    
  0.13061581883474835    0.12947866223505713    0.1283017011848497    0.12729249116250613    0.1266180765488173    
  0.126381825380701    0.126618076548818    0.12729249116250752    0.12830170118485154    0.12947866223505922    
  0.13061581883475049    0.13150758691846706    0.13199534842201138    0.13199534842201135    0.13150758691846687    
  0.13061581883475018    0.12947866223505883    0.1283017011848512    0.12729249116250724    0.1266180765488179    
  0.12638182538070103    0.12528660314354106    0.1266180765488173    0.12839429905099933    0.13049935859241196    
  0.13274191285838552    0.13487133586667083    0.13662136856328086    0.1377668339447803    0.13816459800318337    
  0.13776683394478018    0.13662136856328058    0.13487133586667052    0.13274191285838516    0.1304993585924116    
  0.12839429905099914    0.12661807654881727    0.12528660314354106    0.12444301951207833    0.12406415906617024    
  0.12406573885056174    0.12431304304139416    0.12464572891609459    0.12491459442196705    0.12501637383182948    
  0.12491459442196698    0.12464572891609431    0.12431304304139382    0.1240657388505613    0.12406415906616991    
  0.12444301951207815    0.12528660314354106    0.12207605327863297    0.1244430195120777    0.1272924911625063    
  0.13049935859241196    0.1338569311186129    0.13708259514813587    0.13985545719397643    0.14188032114522023    
  0.14294530281986265    0.14294530281986256    0.14188032114522015    0.13985545719397624    0.13708259514813562    
  0.13385693111861244    0.13049935859241166    0.1272924911625061    0.1244430195120776    0.122076053278633    
  0.12024523017014582    0.11894316492800933    0.11810927818712277    0.11764184585919749    0.11742115326592711    
  0.11734156158647621    0.11734156158647614    0.11742115326592692    0.11764184585919725    0.11810927818712241    
  0.11894316492800902    0.12024523017014566    0.12207605327863297    0.11697905237449618    0.12024523017014524    
  0.12406415906616912    0.12830170118485    0.1327419128583855    0.1370825951481359    0.14096103592660386    
  0.1440165889328215    0.14596316090107933    0.1466301611037335    0.1459631609010793    0.14401658893282132    
  0.14096103592660358    0.1370825951481356    0.13274191285838519    0.1283017011848498    0.12406415906616888    
  0.12024523017014517    0.11697905237449618    0.11433201612457997    0.11231357683356537    0.11088369585875929    
  0.10996462465381396    0.1094639598741071    0.10930669046230489    0.10946395987410702    0.10996462465381375    
  0.11088369585875901    0.11231357683356506    0.11433201612457985    0.11697905237449618    0.11037445020339039    
  0.11433201612457948    0.11894316492800837    0.12406573885056021    0.12947866223505747    0.13487133586667086    
  0.13985545719397652    0.1440165889328215    0.14699331761446544    0.1485397464432247    0.1485397464432247    
  0.14699331761446535    0.14401658893282132    0.13985545719397632    0.13487133586667058    0.12947866223505716    
  0.12406573885055998    0.11894316492800813    0.11433201612457934    0.11037445020339035    0.10714713099949912    
  0.10466975480925371    0.10291189273110911    0.10180701129407606    0.10127961526807013    0.10127961526807011    
  0.101807011294076    0.10291189273110897    0.10466975480925349    0.10714713099949907    0.11037445020339039    
  0.10275454955723337    0.10714713099949877    0.11231357683356455    0.1181092781871215    0.12431304304139253    
  0.13061581883474865    0.13662136856328086    0.14188032114522028    0.14596316090107944    0.14853974644322476    
  0.14941858703166497    0.1485397464432247    0.1459631609010793    0.14188032114522017    0.13662136856328067    
  0.13061581883474846    0.12431304304139225    0.11810927818712114    0.11231357683356422    0.10714713099949857    
  0.10275454955723327    0.09921371693068425    0.09654260172189524    0.0947087410373695    0.09364949880511507    
  0.09330467872305136    0.09364949880511503    0.09470874103736938    0.09654260172189517    0.09921371693068426    
  0.10275454955723337    0.09465257315508029    0.09921371693068409    0.10466975480925313    0.11088369585875828    
  0.11764184585919613    0.12464572891609292    0.1315075869184653    0.1377668339447804    0.1429453028198628    
  0.14663016110373367    0.14853974644322485    0.1485397464432248    0.14663016110373364    0.1429453028198627    
  0.13776683394478031    0.13150758691846515    0.12464572891609271    0.1176418458591958    0.11088369585875783    
  0.10466975480925275    0.09921371693068379    0.09465257315508008    0.09105349406353805    0.08842242088209538    
  0.08672004385988785    0.08588928060509195    0.08588928060509193    0.08672004385988785    0.08842242088209538    
  0.09105349406353817    0.09465257315508029    0.08656308118625812    0.09105349406353809    0.0965426017218949    
  0.10291189273110847    0.10996462465381293    0.11742115326592571    0.12491459442196554    0.13199534842200972    
  0.1381645980031836    0.1429453028198628    0.14596316090107947    0.14699331761446555    0.14596316090107947    
  0.1429453028198627    0.1381645980031835    0.1319953484220096    0.12491459442196527    0.11742115326592541    
  0.10996462465381243    0.10291189273110794    0.09654260172189445    0.0910534940635377    0.08656308118625783    
  0.08311888858011861    0.08071150587856538    0.07929806256628112    0.07883326897863506    0.0792980625662811    
  0.08071150587856549    0.08311888858011872    0.08656308118625812    0.07889049165288901    0.08311888858011872    
  0.0884224208820953    0.09470874103736916    0.10180701129407546    0.10946395987410608    0.11734156158647491    
  0.12501637383182798    0.13199534842200975    0.13776683394478043    0.14188032114522037    0.1440165889328216    
  0.1440165889328216    0.1418803211452203    0.1377668339447804    0.13199534842200972    0.1250163738318278    
  0.11734156158647457    0.10946395987410562    0.1018070112940748    0.09470874103736851    0.08842242088209479    
  0.08311888858011834    0.0788904916528887    0.07576227663285812    0.07371286422535374    0.07270269556668524    
  0.07270269556668521    0.07371286422535375    0.07576227663285828    0.07889049165288901    0.07193547776160376    
  0.07576227663285826    0.08071150587856549    0.08672004385988773    0.09364949880511474    0.10127961526806946    
  0.10930669046230387    0.11734156158647495    0.12491459442196558    0.13150758691846534    0.13662136856328091    
  0.13985545719397657    0.14096103592660397    0.13985545719397657    0.13662136856328094    0.13150758691846534    
  0.12491459442196541    0.11734156158647467    0.10930669046230346    0.10127961526806882    0.09364949880511404    
  0.0867200438598871    0.08071150587856497    0.07576227663285788    0.07193547776160354    0.06923614644854165    
  0.06763745836760078    0.06710884863092603    0.06763745836760078    0.06923614644854177    0.07193547776160376    
  0.06590297243535422    0.06923614644854181    0.07371286422535385    0.07929806256628116    0.0858892806050918    
  0.09330467872305097    0.10127961526806947    0.10946395987410608    0.11742115326592585    0.124645728916093    
  0.13061581883474874    0.13487133586667097    0.137082595148136    0.13708259514813603    0.13487133586667097    
  0.13061581883474874    0.12464572891609291    0.11742115326592552    0.1094639598741057    0.10127961526806883    
  0.0933046787230503    0.08588928060509111    0.07929806256628064    0.07371286422535336    0.06923614644854151    
  0.06590297243535405    0.06370419332218435    0.06261427053150508    0.06261427053150509    0.06370419332218444    
  0.06590297243535422    0.06091507041803958    0.06370419332218447    0.06763745836760088    0.07270269556668532    
  0.07883326897863507    0.0858892806050918    0.09364949880511472    0.10180701129407543    0.109964624653813    
  0.11764184585919618    0.12431304304139262    0.1294786622350575    0.13274191285838555    0.13385693111861294    
  0.1327419128583856    0.12947866223505752    0.12431304304139255    0.11764184585919601    0.10996462465381257    
  0.10180701129407489    0.09364949880511407    0.08588928060509109    0.07883326897863442    0.0727026955666848    
  0.06763745836760054    0.06370419332218429    0.06091507041803947    0.05925453182283634    0.058703618282904685    
  0.059254531822836395    0.06091507041803958    0.05702758278797372    0.05925453182283649    0.06261427053150523    
  0.06710884863092619    0.07270269556668536    0.07929806256628118    0.08672004385988775    0.09470874103736919    
  0.10291189273110854    0.11088369585875833    0.11810927818712161    0.12406573885056028    0.1283017011848501    
  0.130499358592412    0.13049935859241196    0.12830170118485015    0.12406573885056027    0.11810927818712143    
  0.11088369585875803    0.10291189273110804    0.09470874103736857    0.08672004385988707    0.0792980625662805    
  0.07270269556668474    0.06710884863092577    0.06261427053150496    0.05925453182283634    0.05702758278797358    
  0.055919178205675754    0.05591917820567582    0.05702758278797372    0.054254173348915496    0.055919178205675865    
  0.058703618282904824    0.06261427053150524    0.06763745836760093    0.07371286422535385    0.08071150587856553    
  0.0884224208820954    0.09654260172189501    0.10466975480925322    0.11231357683356469    0.11894316492800847    
  0.12406415906616912    0.12729249116250635    0.12839429905099936    0.12729249116250635    0.12406415906616916    
  0.11894316492800833    0.11231357683356442    0.10466975480925282    0.09654260172189442    0.08842242088209468    
  0.08071150587856485    0.07371286422535331    0.06763745836760042    0.0626142705315049    0.05870361828290464    
  0.0559191782056757    0.05425417334891543    0.05370019656143362    0.054254173348915496    0.05259219647287093    
  0.05370019656143369    0.05591917820567591    0.05925453182283651    0.06370419332218458    0.06923614644854185    
  0.07576227663285832    0.08311888858011882    0.09105349406353816    0.09921371693068416    0.10714713099949891    
  0.11433201612457958    0.12024523017014528    0.12444301951207773    0.12661807654881735    0.12661807654881732    
  0.12444301951207773    0.12024523017014524    0.11433201612457941    0.10714713099949853    0.09921371693068372    
  0.09105349406353755    0.08311888858011818    0.07576227663285767    0.06923614644854136    0.06370419332218417    
  0.05925453182283634    0.05591917820567572    0.05370019656143359    0.05259219647287091    0.05259219647287093    
  0.0520384497729089    0.05259219647287095    0.054254173348915545    0.05702758278797377    0.06091507041803964    
  0.06590297243535426    0.07193547776160383    0.07889049165288908    0.08656308118625819    0.09465257315508033    
  0.10275454955723345    0.11037445020339041    0.11697905237449624    0.122076053278633    0.12528660314354104    
  0.126381825380701    0.125286603143541    0.12207605327863293    0.11697905237449609    0.11037445020339016    
  0.102754549557233    0.09465257315507976    0.08656308118625754    0.07889049165288842    0.07193547776160329    
  0.06590297243535385    0.06091507041803939    0.05702758278797358    0.0542541733489154    0.0525921964728709    
  0.0520384497729089    0.05260046385755678    0.053163875578402665    0.054856351750131385    0.05768445022082762    
  0.06165358084389634    0.06675043116313328    0.07291672311390203    0.08002551521563682    0.08786536021904422    
  0.09612839788302335    0.10440324609038676    0.11218830653054356    0.11894158677118018    0.12415914312641346    
  0.12744911340784815    0.12857214881437315    0.12744911340784812    0.12415914312641346    0.11894158677118007    
  0.1121883065305433    0.10440324609038633    0.09612839788302281    0.08786536021904359    0.08002551521563617    
  0.07291672311390147    0.06675043116313288    0.06165358084389609    0.057684450220827445    0.05485635175013123    
  0.05316387557840262    0.05260046385755678    0.05316387557840265    0.0531638755784027    0.054246559985027816    
  0.05641268469937126    0.05966438236634915    0.0639968717302827    0.06937721072290953    0.07571910283668466    
  0.08286428060679848    0.0905696529920124    0.09849535984555399    0.10620277225024839    0.11318371740563753    
  0.11892797147652122    0.12300404805062165    0.1251151140272078    0.12511511402720774    0.12300404805062161    
  0.11892797147652115    0.11318371740563736    0.10620277225024805    0.09849535984555344    0.09056965299201176    
  0.08286428060679771    0.07571910283668404    0.06937721072290903    0.06399687173028243    0.05966438236634891    
  0.05641268469937114    0.05424655998502771    0.05316387557840265    0.054856351750131344    0.05433740143989186    
  0.054856351750131385    0.056412684699371274    0.05900634278630987    0.06263587790304972    0.06728411983904467    
  0.0728943702858927    0.07934953805056028    0.08645933225477581    0.09394904460390832    0.1014491961230081    
  0.10850392707274231    0.11461780021919812    0.11933304806009332    0.12230038591879622    0.12331195192249565    
  0.12230038591879618    0.11933304806009322    0.11461780021919799    0.10850392707274202    0.10144919612300768    
  0.09394904460390771    0.08645933225477515    0.07934953805055953    0.07289437028589209    0.06728411983904421    
  0.0626358779030494    0.05900634278630968    0.05641268469937119    0.054856351750131344    0.05768445022082755    
  0.05669470357296772    0.056694703572967756    0.05768445022082762    0.05966438236634912    0.06263587790304968    
  0.06659300246615762    0.07150206183763214    0.0772788050572138    0.08377413015005676    0.09076604575523707    
  0.09794986238310112    0.10493324160689366    0.11125844362900318    0.11646264300720713    0.12015404124734277    
  0.12206491265368467    0.12206491265368465    0.12015404124734273    0.1164626430072071    0.11125844362900301    
  0.10493324160689332    0.09794986238310058    0.09076604575523635    0.083774130150056    0.0772788050572131    
  0.07150206183763157    0.0665930024661572    0.06263587790304943    0.059664382366348995    0.05768445022082755    
  0.06165358084389616    0.060250633706780916    0.05978345158035368    0.06025063370678093    0.061653580843896265    
  0.06399687173028266    0.0672841198390446    0.07150206183763211    0.0765968585743199    0.08245551560315591    
  0.08889814508461251    0.09567337203531708    0.10245143431117112    0.10882809119986614    0.11436023733992216    
  0.11863251085888778    0.12132387773389991    0.12224184509024133    0.12132387773389994    0.1186325108588877    
  0.11436023733992208    0.10882809119986589    0.10245143431117061    0.09567337203531648    0.08889814508461175    
  0.08245551560315513    0.07659685857431925    0.07150206183763157    0.0672841198390442    0.06399687173028244    
  0.06165358084389616    0.06675043116313302    0.06500890460065135    0.06414139894147913    0.06414139894147915    
  0.06500890460065145    0.06675043116313316    0.06937721072290941    0.07289437028589259    0.07727880505721377    
  0.08245551560315591    0.08828462045959787    0.0945590697575787    0.1010029599126729    0.10726929962386487    
  0.11295414587852307    0.11764280299819191    0.12097643260856578    0.12270491783316005    0.12270491783316005    
  0.12097643260856576    0.11764280299819187    0.11295414587852286    0.10726929962386454    0.10100295991267239    
  0.09455906975757802    0.08828462045959708    0.0824555156031552    0.07727880505721312    0.07289437028589213    
  0.06937721072290913    0.06675043116313302    0.0729167231139016    0.0709365335646003    0.06975888841856033    
  0.06936815065328303    0.06975888841856034    0.07093653356460042    0.07291672311390182    0.07571910283668452    
  0.07934953805056014    0.08377413015005675    0.08889814508461255    0.09455906975757875    0.10052861825667461    
  0.10651339395115049    0.11215821006401397    0.1170709099833617    0.12087665599962473    0.12327975150197601    
  0.12410037616820413    0.123279751501976    0.12087665599962472    0.11707090998336159    0.11215821006401369    
  0.10651339395115016    0.10052861825667403    0.09455906975757804    0.08889814508461182    0.08377413015005607    
  0.07934953805055958    0.07571910283668415    0.0729167231139016    0.0800255152156363    0.07793710599341143    
  0.07656951422825746    0.07589374041614536    0.07589374041614538    0.07656951422825756    0.07793710599341157    
  0.08002551521563654    0.08286428060679829    0.0864593322547758    0.09076604575523713    0.0956733720353172    
  0.101002959912673    0.10651339395115057    0.11190198527994835    0.11681489750750064    0.1208837586002025    
  0.12378509764243024    0.12529174928861575    0.12529174928861575    0.12378509764243022    0.12088375860020244    
  0.11681489750750053    0.11190198527994802    0.10651339395115013    0.10100295991267244    0.09567337203531653    
  0.09076604575523645    0.08645933225477523    0.08286428060679785    0.0800255152156363    0.0878653602190437    
  0.08583121118144815    0.08442728040232991    0.08360706757943624    0.08333750200649229    0.08360706757943624    
  0.08442728040233    0.08583121118144832    0.08786536021904397    0.09056965299201221    0.09394904460390836    
  0.09794986238310131    0.10245143431117126    0.10726929962386506    0.11215821006401411    0.11681489750750074    
  0.12089802804209768    0.12407671808481256    0.12608901467873904    0.12677682794474787    0.12608901467873904    
  0.1240767180848125    0.12089802804209751    0.11681489750750053    0.11215821006401373    0.10726929962386461    
  0.10245143431117075    0.09794986238310066    0.09394904460390781    0.09056965299201185    0.0878653602190437    
  0.09612839788302294    0.09434378184726198    0.09309176897897672    0.09230546387626162    0.09192788540582782    
  0.09192788540582779    0.09230546387626164    0.0930917689789767    0.0943437818472621    0.09612839788302312    