#     DFTpy    
  CRYSTAL 
    
  PRIMVEC    
  1.3971302807688801    -2.4199006310846705    0.0    
  1.3971302807688801    2.4199006310846705    0.0    
  0.0    0.0    4.72381330372414    
  PRIMCOORD    
  2    1    
  Si    1.3971302807688801    0.8066335436948903    1.1809533259310303    
  Si    1.3971302807688801    -0.8066335436948903    3.5428599777931007    
  BEGIN_BLOCK_DATAGRID_3D    
  3d_datagrid_density    
  BEGIN_DATAGRID_3D#0    
  28    28    49    
  0.0    0.0    0.0    
  1.3971302859802028    -2.4199006401109457    0.0    
  1.3971302859802028    2.4199006401109457    0.0    
  0.0    0.0    4.723813321344054    
  0.10267512460371868    0.1039934668164065    0.10793892032590272    0.11446718488908843    0.12346249597768175    
  0.1346994292873978    0.14781327932702062    0.1622752371681235    0.17737355154533593    0.19222136880711782    
  0.20581410401882913    0.21713255484780142    0.2252639759398712    0.22951698398629597    0.22951698398629597    
  0.2252639759398714    0.21713255484780175    0.20581410401882957    0.19222136880711815    0.17737355154533638    
  0.16227523716812384    0.14781327932702093    0.13469942928739803    0.12346249597768195    0.11446718488908852    
  0.10793892032590276    0.10399346681640652    0.10267512460371868    0.10399346681640645    0.10399346681640652    
  0.10662567158301402    0.11186475719632184    0.11963303734252471    0.1297622662118428    0.1419601206743413    
  0.1557837221689963    0.1706167269636618    0.18566057485086432    0.1999645329662298    0.21250648835243094    
  0.22230754934899935    0.2285525219558749    0.23069797897016062    0.2285525219558749    0.22230754934899963    
  0.2125064883524314    0.19996453296623012    0.18566057485086473    0.17061672696366226    0.15578372216899658    
  0.14196012067434166    0.12976226621184297    0.11963303734252474    0.11186475719632188    0.10662567158301407    
  0.10399346681640645    0.10793892032590266    0.106625671583014    0.10793892032590273    0.1118647571963218    
  0.11834894247136091    0.12726638972375795    0.13838706769388776    0.15134705334070256    0.16562408001160348    
  0.18052024074695686    0.19516908062787527    0.20858706870255442    0.21976951931134522    0.2278096659161206    
  0.23201711509325207    0.23201711509325207    0.22780966591612078    0.21976951931134567    0.20858706870255467    
  0.19516908062787566    0.18052024074695727    0.1656240800116039    0.15134705334070273    0.13838706769388795    
  0.12726638972375795    0.11834894247136095    0.11186475719632194    0.10793892032590266    0.1144671848890885    
  0.11186475719632188    0.11186475719632191    0.1144671848890885    0.11963303734252474    0.127266389723758    
  0.13718614282820538    0.1490966838099468    0.1625619812571295    0.1769849021102498    0.1916004152162145    
  0.20550005964610243    0.21769988107488067    0.2272455405590808    0.23333376591377447    0.23542641121529229    
  0.2333337659137746    0.22724554055908094    0.21769988107488095    0.2055000596461026    0.19160041521621485    
  0.17698490211024995    0.16256198125712978    0.1490966838099469    0.13718614282820552    0.127266389723758    
  0.11963303734252469    0.1144671848890885    0.12346249597768179    0.11963303734252471    0.11834894247136094    
  0.11963303734252467    0.12346249597768189    0.1297622662118429    0.1383870676938878    0.14909668380994684    
  0.16153021686096208    0.17518377420310657    0.1893969446651325    0.20335889466669033    0.21614837876289372    
  0.22681455142710508    0.23448920525776795    0.23850717585452716    0.23850717585452735    0.2344892052577681    
  0.22681455142710522    0.2161483787628939    0.20335889466669047    0.18939694466513263    0.17518377420310682    
  0.16153021686096214    0.1490966838099468    0.13838706769388778    0.12976226621184284    0.12346249597768179    
  0.1346994292873978    0.12976226621184284    0.12726638972375798    0.127266389723758    0.12976226621184295    
  0.13469942928739795    0.1419601206743415    0.15134705334070267    0.1625619812571297    0.17518377420310668    
  0.1886514731355637    0.20225968356588403    0.21517762247154998    0.2265039815437512    0.23536002215364432    
  0.24100496683922767    0.24294444155015843    0.2410049668392277    0.2353600221536444    0.22650398154375134    
  0.21517762247155017    0.20225968356588403    0.18865147313556382    0.17518377420310677    0.16256198125712956    
  0.1513470533407026    0.14196012067434144    0.1346994292873978    0.1478132793270207    0.14196012067434147    
  0.13838706769388787    0.13718614282820554    0.13838706769388792    0.14196012067434166    0.1478132793270209    
  0.15578372216899655    0.1656240800116038    0.17698490211024995    0.1893969446651326    0.20225968356588409    
  0.21484595177967108    0.2263355864733328    0.2358870335373181    0.24273954851676752    0.24631926623248693    
  0.2463192662324869    0.24273954851676754    0.23588703353731816    0.22633558647333282    0.21484595177967108    
  0.20225968356588406    0.1893969446651326    0.1769849021102499    0.16562408001160367    0.1557837221689963    
  0.1478132793270207    0.1622752371681235    0.15578372216899644    0.15134705334070264    0.14909668380994687    
  0.14909668380994698    0.15134705334070278    0.15578372216899658    0.16227523716812386    0.1706167269636621    
  0.18052024074695713    0.1916004152162148    0.20335889466669038    0.21517762247154995    0.2263355864733328    
  0.23606145817630983    0.24362073695264283    0.24841436427760372    0.25005634154786527    0.24841436427760366    
  0.24362073695264297    0.23606145817630989    0.22633558647333274    0.2151776224715501    0.2033588946666903    
  0.1916004152162145    0.18052024074695694    0.17061672696366192    0.1622752371681235    0.177373551545336    
  0.17061672696366198    0.16562408001160372    0.16256198125712973    0.16153021686096233    0.1625619812571299    
  0.16562408001160395    0.1706167269636623    0.17737355154533635    0.18566057485086468    0.19516908062787564    
  0.20550005964610257    0.21614837876289386    0.22650398154375126    0.2358870335373181    0.2436207369526429    
  0.24912250938155675    0.25197841687722733    0.2519784168772272    0.24912250938155667    0.243620736952643    
  0.23588703353731807    0.2265039815437512    0.2161483787628938    0.20550005964610238    0.19516908062787533    
  0.1856605748508644    0.177373551545336    0.19222136880711785    0.18566057485086454    0.18052024074695713    
  0.1769849021102501    0.175183774203107    0.17518377420310713    0.17698490211025028    0.18052024074695744    
  0.18566057485086485    0.19222136880711813    0.19996453296623012    0.20858706870255467    0.21769988107488092    
  0.2268145514271052    0.2353600221536444    0.24273954851676754    0.2484143642776036    0.2519784168772272    
  0.2531921462230234    0.2519784168772272    0.24841436427760366    0.24273954851676752    0.23536002215364435    
  0.22681455142710508    0.21769988107488072    0.20858706870255445    0.19996453296622974    0.19222136880711785    
  0.20581410401882913    0.19996453296622999    0.19516908062787566    0.19160041521621493    0.1893969446651331    
  0.18865147313556427    0.18939694466513302    0.1916004152162153    0.195169080627876    0.19996453296623026    
  0.20581410401882955    0.2125064883524313    0.21976951931134553    0.22724554055908094    0.23448920525776798    
  0.2410049668392277    0.24631926623248684    0.2500563415478652    0.2519784168772272    0.2519784168772272    
  0.25005634154786516    0.24631926623248684    0.2410049668392277    0.23448920525776795    0.2272455405590808    
  0.21976951931134536    0.212506488352431    0.20581410401882913    0.21713255484780133    0.21250648835243122    
  0.2085870687025548    0.20550005964610285    0.20335889466669083    0.2022596835658847    0.20225968356588475    
  0.2033588946666911    0.2055000596461031    0.20858706870255517    0.21250648835243155    0.21713255484780175    
  0.22230754934899954    0.22780966591612073    0.23333376591377442    0.23850717585452721    0.24294444155015837    
  0.24631926623248684    0.24841436427760366    0.24912250938155667    0.24841436427760372    0.2463192662324869    
  0.24294444155015837    0.23850717585452727    0.23333376591377442    0.2278096659161206    0.22230754934899943    
  0.21713255484780133    0.22526397593987113    0.22230754934899963    0.21976951931134586    0.21769988107488136    
  0.2161483787628945    0.21517762247155092    0.21484595177967192    0.21517762247155098    0.2161483787628946    
  0.2176998810748817    0.21976951931134606    0.22230754934900002    0.2252639759398715    0.22855252195587494    
  0.2320171150932522    0.23542641121529223    0.23850717585452721    0.24100496683922762    0.24273954851676752    
  0.2436207369526429    0.2436207369526429    0.24273954851676746    0.24100496683922776    0.2385071758545273    
  0.23542641121529229    0.23201711509325212    0.2285525219558748    0.22526397593987113    0.22951698398629583    
  0.22855252195587508    0.2278096659161212    0.2272455405590815    0.22681455142710602    0.2265039815437522    
  0.22633558647333374    0.2263355864733339    0.2265039815437523    0.2268145514271061    0.2272455405590817    
  0.2278096659161214    0.22855252195587528    0.22951698398629602    0.23069797897016062    0.23201711509325207    
  0.23333376591377442    0.2344892052577679    0.2353600221536442    0.23588703353731796    0.23606145817630983    
  0.23588703353731807    0.23536002215364446    0.2344892052577681    0.23333376591377453    0.23201711509325215    
  0.23069797897016067    0.22951698398629583    0.22951698398629594    0.23069797897016103    0.23201711509325273    
  0.23333376591377522    0.23448920525776898    0.2353600221536455    0.23588703353731924    0.23606145817631116    
  0.23588703353731938    0.23536002215364557    0.23448920525776906    0.2333337659137755    0.23201711509325276    
  0.23069797897016103    0.22951698398629589    0.2285525219558748    0.2278096659161206    0.22724554055908067    
  0.2268145514271049    0.22650398154375112    0.22633558647333268    0.22633558647333274    0.2265039815437513    
  0.22681455142710522    0.22724554055908094    0.22780966591612073    0.22855252195587483    0.22951698398629594    
  0.2252639759398714    0.22855252195587528    0.2320171150932529    0.23542641121529312    0.23850717585452838    
  0.24100496683922898    0.24273954851676885    0.24362073695264436    0.24362073695264433    0.24273954851676885    
  0.24100496683922892    0.23850717585452844    0.2354264112152932    0.23201711509325282    0.22855252195587517    
  0.22526397593987119    0.2223075493489994    0.2197695193113453    0.21769988107488067    0.2161483787628936    
  0.21517762247154998    0.21484595177967108    0.21517762247155012    0.21614837876289386    0.21769988107488092    
  0.21976951931134564    0.2223075493489996    0.2252639759398714    0.21713255484780167    0.2223075493489999    
  0.22780966591612134    0.23333376591377536    0.23850717585452844    0.24294444155015962    0.2463192662324882    
  0.24841436427760516    0.24912250938155817    0.24841436427760516    0.24631926623248826    0.24294444155015973    
  0.23850717585452824    0.23333376591377528    0.2278096659161212    0.2223075493489996    0.21713255484780142    
  0.21250648835243094    0.20858706870255436    0.20550005964610224    0.20335889466669022    0.20225968356588395    
  0.20225968356588403    0.20335889466669038    0.2055000596461025    0.20858706870255467    0.2125064883524313    
  0.21713255484780167    0.20581410401882946    0.21250648835243155    0.219769519311346    0.22724554055908172    
  0.23448920525776912    0.24100496683922892    0.24631926623248815    0.25005634154786666    0.25197841687722866    
  0.2519784168772287    0.25005634154786666    0.2463192662324883    0.24100496683922892    0.23448920525776892    
  0.22724554055908155    0.21976951931134578    0.21250648835243122    0.20581410401882919    0.1999645329662297    
  0.19516908062787525    0.19160041521621446    0.18939694466513254    0.1886514731355637    0.1893969446651327    
  0.19160041521621474    0.19516908062787566    0.19996453296623012    0.20581410401882946    0.19222136880711813    
  0.19996453296623032    0.2085870687025551    0.2176998810748816    0.22681455142710608    0.23536002215364563    
  0.24273954851676882    0.2484143642776051    0.25197841687722866    0.25319214622302494    0.25197841687722866    
  0.24841436427760516    0.24273954851676882    0.23536002215364557    0.22681455142710596    0.21769988107488142    
  0.2085870687025549    0.19996453296622999    0.1922213688071178    0.18566057485086435    0.18052024074695686    
  0.1769849021102498    0.17518377420310668    0.17518377420310674    0.17698490211024995    0.1805202407469572    
  0.1856605748508647    0.19222136880711813    0.1773735515453363    0.18566057485086487    0.19516908062787597    
  0.20550005964610307    0.2161483787628947    0.22650398154375234    0.2358870335373193    0.24362073695264433    
  0.24912250938155817    0.25197841687722866    0.2519784168772287    0.24912250938155817    0.24362073695264422    
  0.23588703353731943    0.2265039815437522    0.21614837876289447    0.20550005964610293    0.19516908062787572    
  0.18566057485086443    0.17737355154533593    0.17061672696366184    0.16562408001160359    0.1625619812571296    
  0.16153021686096206    0.16256198125712973    0.16562408001160384    0.17061672696366217    0.1773735515453363    
  0.16227523716812378    0.17061672696366226    0.18052024074695736    0.19160041521621513    0.20335889466669096    
  0.21517762247155092    0.22633558647333382    0.2360614581763111    0.24362073695264422    0.24841436427760508    
  0.25005634154786666    0.24841436427760522    0.24362073695264422    0.23606145817631116    0.22633558647333368    
  0.2151776224715507    0.20335889466669088    0.19160041521621504    0.1805202407469571    0.1706167269636619    
  0.16227523716812356    0.15578372216899627    0.15134705334070256    0.14909668380994684    0.1490966838099468    
  0.15134705334070267    0.15578372216899658    0.16227523716812378    0.14781327932702087    0.1557837221689966    
  0.16562408001160397    0.17698490211025025    0.18939694466513307    0.20225968356588467    0.21484595177967178    
  0.22633558647333374    0.2358870335373193    0.24273954851676882    0.24631926623248815    0.2463192662324883    
  0.24273954851676882    0.23588703353731938    0.22633558647333382    0.21484595177967186    0.20225968356588467    
  0.18939694466513304    0.17698490211025011    0.1656240800116037    0.1557837221689964    0.14781327932702062    
  0.14196012067434147    0.13838706769388778    0.13718614282820546    0.1383870676938879    0.1419601206743416    
  0.14781327932702087    0.13469942928739798    0.14196012067434163    0.15134705334070275    0.16256198125712976    
  0.17518377420310702    0.18865147313556416    0.20225968356588456    0.21517762247155084    0.22650398154375215    
  0.23536002215364543    0.24100496683922878    0.24294444155015968    0.24100496683922887    0.23536002215364557    
  0.22650398154375223    0.21517762247155087    0.20225968356588472    0.18865147313556427    0.17518377420310682    
  0.1625619812571297    0.15134705334070256    0.14196012067434138    0.1346994292873978    0.1297622662118429    
  0.12726638972375792    0.12726638972375798    0.1297622662118429    0.13469942928739798    0.12346249597768186    
  0.1297622662118429    0.13838706769388787    0.1490966838099469    0.16153021686096228    0.17518377420310688    
  0.1893969446651329    0.20335889466669083    0.21614837876289447    0.22681455142710594    0.23448920525776887    
  0.23850717585452832    0.23850717585452832    0.23448920525776915    0.2268145514271061    0.2161483787628946    
  0.20335889466669105    0.18939694466513307    0.175183774203107    0.16153021686096233    0.14909668380994692    
  0.13838706769388776    0.12976226621184286    0.12346249597768189    0.11963303734252465    0.11834894247136095    
  0.11963303734252471    0.12346249597768186    0.11446718488908852    0.11963303734252469    0.12726638972375806    
  0.13718614282820552    0.14909668380994684    0.1625619812571297    0.17698490211025003    0.19160041521621493    
  0.2055000596461028    0.21769988107488136    0.22724554055908144    0.2333337659137753    0.23542641121529312    
  0.23333376591377544    0.22724554055908172    0.2176998810748816    0.2055000596461032    0.19160041521621524    
  0.17698490211025025    0.16256198125712987    0.14909668380994692    0.13718614282820557    0.12726638972375806    
  0.11963303734252471    0.11446718488908852    0.11186475719632188    0.11186475719632191    0.11446718488908852    
  0.10793892032590269    0.11186475719632188    0.11834894247136094    0.12726638972375798    0.1383870676938878    
  0.15134705334070256    0.16562408001160367    0.18052024074695708    0.19516908062787555    0.2085870687025548    
  0.21976951931134583    0.2278096659161212    0.23201711509325262    0.23201711509325276    0.22780966591612128    
  0.21976951931134597    0.2085870687025551    0.195169080627876    0.18052024074695738    0.16562408001160395    
  0.15134705334070278    0.1383870676938879    0.12726638972375803    0.11834894247136098    0.1118647571963218    
  0.10793892032590269    0.10662567158301409    0.10793892032590269    0.10399346681640645    0.10662567158301409    
  0.1118647571963218    0.11963303734252469    0.12976226621184286    0.14196012067434147    0.15578372216899627    
  0.1706167269636619    0.18566057485086443    0.1999645329662299    0.21250648835243122    0.22230754934899974    
  0.2285525219558751    0.23069797897016095    0.22855252195587522    0.22230754934899988    0.2125064883524316    
  0.19996453296623043    0.18566057485086485    0.17061672696366234    0.15578372216899666    0.14196012067434158    
  0.12976226621184292    0.11963303734252483    0.11186475719632184    0.10662567158301409    0.1039934668164065    
  0.10399346681640645    0.10267512460371868    0.1039934668164065    0.10793892032590272    0.11446718488908843    
  0.12346249597768175    0.1346994292873978    0.14781327932702062    0.1622752371681235    0.17737355154533593    
  0.19222136880711782    0.20581410401882913    0.21713255484780142    0.2252639759398712    0.22951698398629597    
  0.22951698398629597    0.2252639759398714    0.21713255484780175    0.20581410401882957    0.19222136880711815    
  0.17737355154533638    0.16227523716812384    0.14781327932702093    0.13469942928739803    0.12346249597768195    
  0.11446718488908852    0.10793892032590276    0.10399346681640652    0.10267512460371868    0.104069471189793    
  0.10541090958693058    0.10942165957093937    0.11604807751913286    0.12516512774052146    0.13654179954163226    
  0.149811391974986    0.16444452698983145    0.1797278007830042    0.19476868811722214    0.20855018624184382    
  0.22003437754005722    0.22828861154502061    0.2326066241928761    0.23260662419287603    0.22828861154502086    
  0.22003437754005756    0.2085501862418443    0.1947686881172226    0.17972780078300468    0.1644445269898318    
  0.14981139197498633    0.13654179954163248    0.12516512774052163    0.116048077519133    0.10942165957093941    
  0.10541090958693064    0.104069471189793    0.10541090958693056    0.10541090958693061    0.10796281400111088    
  0.11304669830857456    0.12059172059184478    0.13043355696125133    0.14228031393062548    0.15569110197886712    
  0.17006178836482758    0.18462295675621723    0.1984681947470041    0.21062249108597694    0.22014039902568883    
  0.22621830028431095    0.22830929540542938    0.22621830028431109    0.2201403990256891    0.21062249108597736    
  0.19846819474700442    0.18462295675621765    0.17006178836482802    0.15569110197886737    0.1422803139306259    
  0.1304335569612515    0.12059172059184478    0.11304669830857465    0.10796281400111093    0.10541090958693056    
  0.10942165957093931    0.10821188455294713    0.10942165957093938    0.11304669830857453    0.11905491017061279    
  0.12734187674869574    0.13768793375114743    0.14973343227972502    0.1629698418057223    0.17674060315110368    
  0.19025715276389166    0.20263993823160847    0.21298484520843114    0.22045125243163458    0.2243719841824357    
  0.2243719841824357    0.2204512524316348    0.2129848452084316    0.20263993823160883    0.19025715276389196    
  0.17674060315110413    0.16296984180572271    0.14973343227972524    0.13768793375114763    0.12734187674869576    
  0.1190549101706128    0.11304669830857467    0.10942165957093931    0.1160480775191329    0.1137702415001104    
  0.11377024150011045    0.11604807751913294    0.12059172059184481    0.1273418767486958    0.13614498026879013    
  0.14671989567013574    0.15864647862529807    0.1713694207769605    0.18421230841211242    0.19640406584689007    
  0.20712009899690878    0.21554118803818298    0.22094071732111759    0.22280334039881172    0.22094071732111764    
  0.21554118803818317    0.20712009899690906    0.19640406584689038    0.18421230841211272    0.17136942077696066    
  0.15864647862529838    0.14671989567013582    0.1361449802687902    0.1273418767486958    0.12059172059184475    
  0.1160480775191329    0.12516512774052146    0.12198368093077823    0.12092158731339539    0.1219836809307782    
  0.12516512774052158    0.13043355696125142    0.13768793375114752    0.14671989567013582    0.1571947381719469    
  0.16865226378609496    0.18052018997680264    0.19213545272064575    0.20277160175565456    0.2116746504207228    
  0.21812127493535444    0.2215162935903449    0.22151629359034497    0.21812127493535458    0.21167465042072287    
  0.20277160175565478    0.19213545272064592    0.1805201899768028    0.16865226378609516    0.157194738171947    
  0.14671989567013574    0.13768793375114752    0.1304335569612514    0.12516512774052146    0.13654179954163223    
  0.13266596028709596    0.13071847639465942    0.13071847639465944    0.13266596028709615    0.1365417995416324    
  0.1422803139306257    0.1497334322797252    0.15864647862529824    0.16865226378609502    0.17927941961652757    
  0.18996949930034962    0.2000985696010728    0.20900141014790505    0.2160071973289938    0.22050721364877202    
  0.222061373149903    0.22050721364877213    0.21600719732899393    0.20900141014790516    0.20009856960107303    
  0.18996949930034968    0.1792794196165277    0.16865226378609519    0.15864647862529813    0.1497334322797251    
  0.14228031393062562    0.13654179954163223    0.14981139197498605    0.14551673029527137    0.14291107511251389    
  0.1420388885573348    0.1429110751125139    0.14551673029527154    0.14981139197498622    0.1556911019788674    
  0.1629698418057226    0.17136942077696066    0.18052018997680278    0.18996949930034968    0.19919683919268222    
  0.207633682455336    0.21468933946379307    0.21979551761767346    0.22248377230067276    0.22248377230067276    
  0.21979551761767346    0.21468933946379304    0.207633682455336    0.19919683919268227    0.1899694993003497    
  0.18052018997680275    0.1713694207769606    0.1629698418057225    0.15569110197886715    0.14981139197498605    
  0.16444452698983145    0.16008741866598022    0.1571229186816143    0.15562534196080133    0.15562534196080144    
  0.15712291868161443    0.16008741866598045    0.16444452698983184    0.17006178836482788    0.17674060315110393    
  0.18421230841211264    0.19213545272064586    0.20009856960107283    0.20763368245533592    0.21424053699473294    
  0.2194224203901067    0.22274006723151288    0.22388354877859346    0.22274006723151285    0.21942242039010684    
  0.214240536994733    0.207633682455336    0.20009856960107295    0.19213545272064575    0.18421230841211245    
  0.17674060315110374    0.1700617883648277    0.16444452698983145    0.1797278007830043    0.17574558423169867    
  0.17280880344099567    0.17101085443616712    0.17040576981872801    0.17101085443616734    0.17280880344099586    
  0.17574558423169903    0.17972780078300463    0.1846229567562176    0.1902571527638919    0.19640406584689032    
  0.20277160175565476    0.20900141014790516    0.21468933946379304    0.2194224203901068    0.2228244874516874    
  0.22460519817343355    0.2246051981734335    0.22282448745168734    0.21942242039010684    0.21468933946379298    
  0.2090014101479051    0.2027716017556547    0.19640406584689002    0.1902571527638917    0.18462295675621726    
  0.1797278007830043    0.19476868811722217    0.19165493047807106    0.18921744800062762    0.18753682040917638    
  0.1866781187988072    0.1866781187988073    0.18753682040917657    0.189217448000628    0.19165493047807144    
  0.19476868811722253    0.19846819474700442    0.20263993823160872    0.20712009899690897    0.21167465042072292    
  0.21600719732899393    0.21979551761767344    0.22274006723151285    0.22460519817343347    0.22524349424088894    
  0.2246051981734335    0.22274006723151285    0.21979551761767344    0.21600719732899384    0.21167465042072278    
  0.2071200989969088    0.20263993823160847    0.19846819474700408    0.19476868811722217    0.2085501862418438    
  0.20680166274695988    0.205386714665702    0.20432639100575226    0.20366140607345837    0.20343380428799065    
  0.20366140607345834    0.20432639100575262    0.20538671466570235    0.20680166274696016    0.20855018624184424    
  0.21062249108597725    0.21298484520843142    0.21554118803818312    0.21812127493535444    0.22050721364877213    
  0.22248377230067273    0.2238835487785934    0.22460519817343347    0.2246051981734335    0.22388354877859337    
  0.22248377230067273    0.22050721364877207    0.21812127493535444    0.21554118803818298    0.21298484520843133    
  0.210622491085977    0.2085501862418438    0.22003437754005717    0.22008513617126146    0.22020266548492162    
  0.2203066940440475    0.22036294419764352    0.2203809138049761    0.22038091380497618    0.22036294419764377    
  0.2203066940440477    0.2202026654849219    0.22008513617126185    0.2200343775400575    0.22014039902568902    
  0.22045125243163477    0.22094071732111745    0.22151629359034483    0.22206137314990293    0.22248377230067273    
  0.22274006723151288    0.22282448745168734    0.22274006723151288    0.22248377230067276    0.22206137314990299    
  0.22151629359034497    0.22094071732111753    0.22045125243163463    0.2201403990256889    0.22003437754005717    
  0.22828861154502053    0.23045481075913588    0.2325274413719761    0.2343053003196756    0.23563485484005142    
  0.23644083096542726    0.23670861262025197    0.2364408309654273    0.2356348548400515    0.23430530031967592    
  0.23252744137197634    0.2304548107591363    0.2282886115450209    0.22621830028431109    0.22437198418243584    
  0.22280334039881158    0.2215162935903449    0.220507213648772    0.21979551761767338    0.2194224203901068    
  0.21942242039010684    0.21979551761767344    0.22050721364877213    0.22151629359034497    0.22280334039881167    
  0.22437198418243573    0.22621830028431084    0.22828861154502053    0.23260662419287595    0.23705097505043599    
  0.24135865613273108    0.245208619407867    0.24830684370085584    0.25044803179735775    0.25153275640433115    
  0.2515327564043313    0.2504480317973579    0.24830684370085593    0.24520861940786726    0.24135865613273136    
  0.23705097505043615    0.2326066241928761    0.22830929540542938    0.22437198418243565    0.2209407173211175    
  0.21812127493535433    0.21600719732899365    0.21468933946379293    0.21424053699473294    0.21468933946379304    
  0.21600719732899393    0.21812127493535458    0.22094071732111759    0.22437198418243579    0.22830929540542938    
  0.23260662419287595    0.23260662419287603    0.23931423430413742    0.24596476224536945    0.2521251332582436    
  0.257360241409392    0.2613105019179875    0.2637472877491509    0.2645678583573104    0.26374728774915107    
  0.2613105019179876    0.2573602414093921    0.25212513325824376    0.2459647622453695    0.23931423430413748    
  0.23260662419287595    0.2262183002843108    0.22045125243163452    0.21554118803818292    0.2116746504207226    
  0.209001410147905    0.20763368245533595    0.20763368245533595    0.2090014101479052    0.21167465042072295    
  0.21554118803818317    0.22045125243163471    0.22621830028431097    0.23260662419287603    0.22828861154502075    
  0.23705097505043615    0.2459647622453696    0.2544937208019038    0.26207025627579006    0.26817443064740415    
  0.27241866343999754    0.2745831941334887    0.27458319413348864    0.2724186634399977    0.26817443064740415    
  0.2620702562757901    0.2544937208019038    0.24596476224536956    0.23705097505043604    0.22828861154502061    
  0.22014039902568877    0.21298484520843125    0.20712009899690875    0.20277160175565448    0.20009856960107283    
  0.19919683919268222    0.20009856960107297    0.20277160175565478    0.20712009899690903    0.21298484520843156    
  0.22014039902568902    0.22828861154502075    0.22003437754005745    0.2304548107591362    0.24135865613273128    
  0.2521251332582437    0.2620702562757901    0.27051943686938545    0.27690912700049003    0.28086409753235886    
  0.28219923826582577    0.28086409753235886    0.27690912700049003    0.27051943686938545    0.2620702562757899    
  0.2521251332582436    0.24135865613273108    0.23045481075913582    0.22003437754005728    0.21062249108597697    
  0.2026399382316084    0.19640406584688988    0.19213545272064567    0.18996949930034954    0.18996949930034962    