#     DFTpy    
  CRYSTAL 
    
  PRIMVEC    
  1.7831794372971204    -3.0885573844106906    0.0    
  1.7831794372971204    3.0885573844106906    0.0    
  0.0    0.0    6.029077506068971    
  PRIMCOORD    
  2    1    
  Si    1.7831794372971204    1.0295191281369003    1.5072693765172402    
  Si    1.7831794372971204    -1.0295191281369003    4.521808129551721    
  BEGIN_BLOCK_DATAGRID_3D    
  3d_datagrid_density    
  BEGIN_DATAGRID_3D#0    
  37    37    61    
  0.0    0.0    0.0    
  1.7831794439484137    -3.0885573959310686    0.0    
  1.7831794439484137    3.0885573959310686    0.0    
  0.0    0.0    6.029077528557544    
  0.028326277077190962    0.02853198273830003    0.029152332725016702    0.03019538106976725    0.0316701226666365    
  0.03358194544262761    0.03592754833842031    0.038689266635254474    0.04183073541162196    0.04529619100057869    
  0.04901185630642581    0.052884011997210364    0.05679107424988803    0.06057554973732381    0.06404703764949934    
  0.06700216611248591    0.06925499426785231    0.07066353036702072    0.07114236989322453    0.07066353036702072    
  0.06925499426785232    0.06700216611248601    0.06404703764949952    0.060575549737324125    0.05679107424988842    
  0.052884011997210836    0.04901185630642639    0.04529619100057927    0.041830735411622556    0.03868926663525502    
  0.03592754833842075    0.03358194544262783    0.031670122666636706    0.030195381069767373    0.029152332725016737    
  0.028531982738300054    0.028326277077190962    0.028531982738300012    0.028531982738300023    0.028945057966804032    
  0.029777098053748133    0.03103701994281755    0.03273260035967193    0.034865851898932716    0.037427619727820174    
  0.04039215746893172    0.04371416377736171    0.047329101553412224    0.05115319058686185    0.055078446608911466    
  0.0589641221531174    0.06263359624793315    0.06588601480350906    0.06852254579161982    0.07037610924141241    
  0.0713314588902826    0.07133145889028253    0.07037610924141242    0.0685225457916199    0.06588601480350921    
  0.06263359624793335    0.05896412215311776    0.05507844660891191    0.05115319058686236    0.04732910155341284    
  0.04371416377736232    0.04039215746893225    0.037427619727820695    0.03486585189893309    0.032732600359672105    
  0.031037019942817764    0.02977709805374822    0.028945057966804032    0.028531982738300012    0.02915233272501672    
  0.028945057966804005    0.029152332725016713    0.029777098053748167    0.0308268005771343    0.03231010704548527    
  0.03423292397419147    0.036593708163128624    0.03937787941495705    0.042552824609424854    0.046065458113492136    
  0.049841489265324196    0.05378270690200849    0.05776070421629121    0.06161189107206906    0.06514246328712521    
  0.06814769017532421    0.07044009533575657    0.07187470463254367    0.07236273725410201    0.07187470463254368    
  0.07044009533575663    0.0681476901753243    0.06514246328712534    0.061611891072069366    0.057760704216291585    
  0.053782706902008925    0.04984148926532473    0.04606545811349278    0.04255282460942546    0.03937787941495763    
  0.0365937081631291    0.03423292397419178    0.03231010704548544    0.030826800577134418    0.029777098053748216    
  0.02915233272501672    0.03019538106976731    0.029777098053748178    0.029777098053748174    0.03019538106976726    
  0.03103701994281759    0.03231010704548528    0.03402264705051966    0.036178807592599296    0.03877402937762247    
  0.04178920308007129    0.04518548565947443    0.048900783812753895    0.05284670622433821    0.05690433371558749    
  0.06092036133430139    0.06470906130234931    0.06806520424380047    0.07078732365492481    0.07270388563016168    
  0.07369321496462668    0.0736932149646267    0.07270388563016164    0.07078732365492488    0.06806520424380061    
  0.06470906130234949    0.06092036133430172    0.05690433371558798    0.05284670622433871    0.04890078381275452    
  0.0451854856594751    0.04178920308007188    0.038774029377622955    0.03617880759259969    0.03402264705051995    
  0.032310107045485405    0.03103701994281773    0.03019538106976731    0.03167012266663668    0.03103701994281767    
  0.03082680057713437    0.03103701994281767    0.0316701226666366    0.03273260035967201    0.03423292397419155    
  0.036178807592599345    0.03857344482442202    0.0414100804555998    0.04466533122183684    0.04829259026318137    
  0.052216427958406274    0.05632815743428806    0.06048333274965801    0.06450361753244356    0.06818612069904126    
  0.07132130174592666    0.07371646108247555    0.0752185106109779    0.0757302409445422    0.07521851061097795    
  0.07371646108247552    0.07132130174592674    0.06818612069904141    0.06450361753244374    0.06048333274965842    
  0.05632815743428859    0.05221642795840683    0.048292590263182035    0.04466533122183752    0.041410080455600386    
  0.03857344482442251    0.03617880759259973    0.03423292397419176    0.0327326003596721    0.03167012266663668    
  0.033581945442627825    0.032732600359672036    0.03231010704548535    0.032310107045485315    0.032732600359671966    
  0.03358194544262776    0.03486585189893288    0.03659370816312874    0.03877402937762254    0.04141008045559986    
  0.04449306164519754    0.04799349981116409    0.05185254881025127    0.05597525104303407    0.06022766209943887    
  0.06443922530204943    0.06841104861227008    0.07193011179168786    0.07478862769095444    0.07680610555903757    
  0.07784986100866616    0.07784986100866619    0.07680610555903757    0.07478862769095446    0.07193011179168796    
  0.06841104861227024    0.0644392253020497    0.06022766209943933    0.0559752510430347    0.0518525488102519    
  0.047993499811164804    0.04449306164519823    0.04141008045560039    0.03877402937762301    0.036593708163129075    
  0.03486585189893307    0.033581945442627825    0.03592754833842068    0.03486585189893302    0.03423292397419169    
  0.034022647050519814    0.03423292397419162    0.03486585189893298    0.035927548338420524    0.037427619727820376    
  0.039377879414957205    0.04178920308007134    0.04466533122183684    0.04799349981116411    0.05173344228771858    
  0.05580771438729802    0.06009669068808654    0.06444030177958361    0.06864609651266668    0.0725016731111863    
  0.07579032574504524    0.07831004978825393    0.07989503879174585    0.08043607973019717    0.07989503879174585    
  0.078310049788254    0.07579032574504528    0.07250167311118637    0.06864609651266687    0.06444030177958389    
  0.06009669068808701    0.0558077143872987    0.05173344228771924    0.047993499811164776    0.04466533122183751    
  0.041789203080071884    0.039377879414957594    0.03742761972782067    0.03592754833842068    0.038689266635254994    
  0.037427619727820584    0.036593708163128964    0.03617880759259955    0.03617880759259952    0.03659370816312897    
  0.03742761972782045    0.03868926663525476    0.04039215746893191    0.04255282460942498    0.04518548565947447    
  0.04829259026318136    0.05185254881025123    0.055807714387298    0.060056666527307276    0.06445396352785515    
  0.06881740713449477    0.07293970867175449    0.07660164971766051    0.0795871971756459    0.08170288532117725    
  0.0828009479978994    0.08280094799789935    0.08170288532117724    0.07958719717564595    0.0766016497176605    
  0.07293970867175459    0.06881740713449502    0.0644539635278555    0.06005666652730784    0.05580771438729868    
  0.051852548810251906    0.048292590263182    0.0451854856594751    0.042552824609425444    0.040392157468932245    
  0.038689266635254994    0.04183073541162257    0.04039215746893217    0.039377879414957476    0.038774029377622816    
  0.0385734448244223    0.038774029377622844    0.039377879414957365    0.040392157468931954    0.04183073541162227    
  0.04371416377736192    0.0460654581134922    0.048900783812753874    0.05221642795840618    0.05597525104303402    
  0.060096690688086436    0.06445396352785512    0.0688795342442761    0.0731760038132046    0.07712800082855316    
  0.08051395666617561    0.08312135454119397    0.08476886205548341    0.08533273585924876    0.08476886205548338    
  0.08312135454119401    0.08051395666617563    0.07712800082855319    0.0731760038132048    0.06887953424427636    
  0.06445396352785548    0.06009669068808701    0.05597525104303467    0.05221642795840683    0.048900783812754534    
  0.04606545811349277    0.043714163777362286    0.04183073541162257    0.045296191000579265    0.04371416377736221    
  0.042552824609425305    0.04178920308007168    0.04141008045560019    0.04141008045560023    0.04178920308007161    
  0.04255282460942516    0.043714163777361995    0.045296191000578974    0.047329101553412384    0.049841489265324196    
  0.05284670622433814    0.05632815743428793    0.06022766209943876    0.06444030177958353    0.0688174071344947    
  0.07317600381320462    0.07731011061234128    0.08100066953922805    0.08402652308203677    0.0861823821624649    
  0.08730570790424831    0.08730570790424833    0.08618238216246493    0.0840265230820368    0.08100066953922805    
  0.0773101106123413    0.07317600381320476    0.06881740713449502    0.06444030177958388    0.060227662099439284    
  0.056328157434288574    0.05284670622433877    0.04984148926532476    0.04732910155341283    0.045296191000579265    
  0.049011856306426446    0.04732910155341277    0.046065458113492656    0.04518548565947492    0.0446653312218373    
  0.044493061645198055    0.04466533122183725    0.0451854856594748    0.04606545811349248    0.04732910155341255    
  0.04901185630642608    0.051153190586861956    0.053782706902008454    0.05690433371558736    0.06048333274965788    
  0.06443922530204932    0.06864609651266658    0.07293970867175437    0.07712800082855308    0.08100066953922805    
  0.08433758342611268    0.0869216466140909    0.0885618995239496    0.08912474623929169    0.08856189952394959    
  0.08692164661409088    0.08433758342611267    0.0810006695392281    0.07712800082855316    0.07293970867175452    
  0.06864609651266686    0.06443922530204962    0.06048333274965837    0.056904333715588014    0.053782706902008946    
  0.051153190586862414    0.049011856306426446    0.052884011997210906    0.05115319058686236    0.04984148926532466    
  0.04890078381275436    0.04829259026318184    0.047993499811164624    0.047993499811164554    0.0482925902631818    
  0.04890078381275427    0.049841489265324536    0.051153190586862116    0.05288401199721059    0.05507844660891151    
  0.057760704216291134    0.06092036133430126    0.06450361753244342    0.06841104861226995    0.07250167311118616    
  0.07660164971766037    0.08051395666617553    0.0840265230820367    0.08692164661409088    0.08899344945422163    
  0.09007617824673017    0.09007617824673016    0.08899344945422162    0.08692164661409084    0.08402652308203677    
  0.08051395666617561    0.0766016497176605    0.07250167311118635    0.06841104861227017    0.06450361753244373    
  0.060920361334301766    0.057760704216291654    0.05507844660891196    0.052884011997210906    0.05679107424988848    
  0.055078446608911945    0.05378270690200891    0.05284670622433865    0.05221642795840671    0.05185254881025183    
  0.0517334422877191    0.05185254881025178    0.05221642795840668    0.05284670622433863    0.05378270690200875    
  0.05507844660891177    0.0567910742498882    0.05896412215311742    0.06161189107206901    0.06470906130234917    
  0.06818612069904112    0.07193011179168773    0.07579032574504507    0.07958719717564576    0.08312135454119386    
  0.0861823821624648    0.08856189952394951    0.09007617824673016    0.0905964652800707    0.09007617824673013    
  0.08856189952394956    0.08618238216246486    0.08312135454119393    0.07958719717564589    0.07579032574504521    
  0.07193011179168786    0.06818612069904134    0.06470906130234948    0.06161189107206941    0.05896412215311781    
  0.05679107424988848    0.06057554973732419    0.05896412215311786    0.057760704216291675    0.05690433371558799    
  0.05632815743428855    0.055975251043034704    0.055807714387298646    0.05580771438729865    0.055975251043034656    
  0.05632815743428861    0.05690433371558796    0.05776070421629159    0.05896412215311771    0.060575549737323896    
  0.06263359624793317    0.06514246328712518    0.06806520424380039    0.07132130174592653    0.07478862769095428    
  0.0783100497882538    0.08170288532117705    0.08476886205548324    0.08730570790424819    0.08912474623929162    
  0.09007617824673012    0.0900761782467301    0.08912474623929163    0.08730570790424828    0.08476886205548331    
  0.08170288532117721    0.0783100497882539    0.07478862769095437    0.07132130174592671    0.06806520424380064    
  0.06514246328712536    0.06263359624793347    0.06057554973732419    0.06404703764949966    0.06263359624793349    
  0.06161189107206948    0.06092036133430182    0.060483332749658475    0.06022766209943943    0.060096690688087144    
  0.06005666652730794    0.060096690688087144    0.06022766209943944    0.06048333274965858    0.060920361334301856    
  0.06161189107206947    0.06263359624793333    0.06404703764949943    0.06588601480350913    0.06814769017532415    
  0.07078732365492474    0.0737164610824755    0.07680610555903744    0.0798950387917457    0.08280094799789917    
  0.08533273585924862    0.08730570790424824    0.08856189952394954    0.08899344945422158    0.08856189952394955    
  0.08730570790424826    0.08533273585924873    0.0828009479978993    0.07989503879174582    0.07680610555903757    
  0.07371646108247551    0.07078732365492488    0.06814769017532434    0.06588601480350925    0.06404703764949966    
  0.06700216611248601    0.06588601480350934    0.06514246328712556    0.06470906130234964    0.06450361753244391    
  0.0644392253020499    0.06444030177958414    0.06445396352785578    0.06445396352785579    0.06444030177958422    
  0.06443922530205    0.06450361753244409    0.06470906130234973    0.0651424632871255    0.06588601480350922    
  0.06700216611248598    0.0685225457916199    0.07044009533575658    0.07270388563016164    0.07521851061097783    
  0.07784986100866602    0.08043607973019694    0.08280094799789912    0.08476886205548323    0.08618238216246478    
  0.08692164661409083    0.08692164661409084    0.08618238216246486    0.08476886205548333    0.0828009479978993    
  0.0804360797301971    0.07784986100866612    0.07521851061097792    0.07270388563016174    0.07044009533575667    
  0.06852254579161997    0.06700216611248601    0.06925499426785238    0.06852254579162008    0.06814769017532456    
  0.0680652042438009    0.06818612069904162    0.06841104861227058    0.06864609651266723    0.06881740713449534    
  0.06887953424427677    0.06881740713449547    0.06864609651266733    0.06841104861227074    0.06818612069904187    
  0.06806520424380091    0.0681476901753245    0.06852254579162008    0.06925499426785231    0.07037610924141248    
  0.0718747046325437    0.0736932149646267    0.07573024094454209    0.077849861008666    0.07989503879174566    
  0.08170288532117707    0.08312135454119382    0.08402652308203669    0.08433758342611263    0.08402652308203677    
  0.08312135454119393    0.08170288532117725    0.07989503879174585    0.07784986100866613    0.07573024094454218    
  0.07369321496462677    0.0718747046325437    0.0703761092414125    0.06925499426785238    0.07066353036702079    
  0.07037610924141266    0.07044009533575692    0.07078732365492524    0.07132130174592705    0.07193011179168832    
  0.0725016731111868    0.07293970867175503    0.0731760038132052    0.07317600381320531    0.07293970867175514    
  0.07250167311118698    0.07193011179168858    0.07132130174592723    0.0707873236549253    0.07044009533575697    
  0.07037610924141263    0.07066353036702074    0.07133145889028263    0.07236273725410201    0.0736932149646267    
  0.07521851061097784    0.07680610555903744    0.07831004978825384    0.07958719717564575    0.08051395666617552    
  0.081000669539228    0.08100066953922805    0.08051395666617565    0.07958719717564597    0.078310049788254    
  0.07680610555903761    0.07521851061097795    0.07369321496462683    0.07236273725410208    0.07133145889028264    
  0.07066353036702079    0.0711423698932245    0.07133145889028276    0.07187470463254403    0.07270388563016209    
  0.07371646108247595    0.07478862769095491    0.07579032574504567    0.07660164971766095    0.07712800082855366    
  0.07731011061234186    0.07712800082855373    0.0766016497176611    0.07579032574504593    0.07478862769095508    
  0.0737164610824761    0.07270388563016218    0.07187470463254404    0.07133145889028274    0.07114236989322453    
  0.0713314588902826    0.07187470463254365    0.07270388563016164    0.07371646108247537    0.07478862769095429    
  0.07579032574504505    0.07660164971766029    0.07712800082855306    0.07731011061234126    0.07712800082855317    
  0.07660164971766052    0.07579032574504527    0.07478862769095443    0.07371646108247554    0.07270388563016171    
  0.07187470463254368    0.07133145889028258    0.0711423698932245    0.07066353036702075    0.07133145889028274    
  0.07236273725410239    0.0736932149646272    0.07521851061097841    0.0768061055590381    0.07831004978825439    
  0.07958719717564636    0.08051395666617603    0.08100066953922849    0.08100066953922855    0.08051395666617618    
  0.07958719717564655    0.07831004978825458    0.07680610555903825    0.07521851061097856    0.07369321496462726    
  0.07236273725410239    0.07133145889028275    0.07066353036702072    0.07037610924141248    0.07044009533575656    
  0.07078732365492474    0.07132130174592655    0.0719301117916877    0.07250167311118606    0.07293970867175437    
  0.07317600381320463    0.07317600381320462    0.0729397086717545    0.07250167311118634    0.0719301117916879    
  0.07132130174592666    0.07078732365492486    0.07044009533575658    0.07037610924141242    0.07066353036702075    
  0.06925499426785227    0.07037610924141256    0.07187470463254401    0.07369321496462718    0.07573024094454271    
  0.07784986100866668    0.0798950387917463    0.08170288532117757    0.08312135454119429    0.08402652308203713    
  0.08433758342611299    0.0840265230820372    0.08312135454119446    0.08170288532117775    0.07989503879174643    
  0.07784986100866687    0.07573024094454282    0.07369321496462723    0.07187470463254399    0.07037610924141259    
  0.06925499426785232    0.06852254579161987    0.0681476901753242    0.06806520424380039    0.06818612069904112    
  0.0684110486122699    0.06864609651266654    0.06881740713449473    0.06887953424427613    0.06881740713449476    
  0.06864609651266672    0.0684110486122701    0.06818612069904126    0.0680652042438005    0.06814769017532417    
  0.06852254579161977    0.06925499426785227    0.06700216611248581    0.06852254579161994    0.07044009533575687    
  0.0727038856301621    0.07521851061097841    0.0778498610086667    0.08043607973019758    0.08280094799789968    
  0.08476886205548363    0.08618238216246511    0.08692164661409112    0.08692164661409114    0.08618238216246522    
  0.0847688620554837    0.08280094799789983    0.08043607973019783    0.07784986100866682    0.07521851061097852    
  0.0727038856301621    0.07044009533575685    0.06852254579162    0.06700216611248593    0.06588601480350906    
  0.0651424632871252    0.06470906130234919    0.06450361753244335    0.06443922530204925    0.06444030177958347    
  0.06445396352785512    0.06445396352785515    0.06444030177958357    0.0644392253020494    0.06450361753244352    
  0.06470906130234927    0.06514246328712517    0.06588601480350899    0.06700216611248581    0.06404703764949934    
  0.06588601480350906    0.06814769017532439    0.07078732365492518    0.07371646108247601    0.07680610555903816    
  0.07989503879174635    0.08280094799789971    0.08533273585924907    0.08730570790424848    0.08856189952394972    
  0.08899344945422176    0.0885618995239498    0.08730570790424852    0.0853327358592491    0.08280094799789986    
  0.07989503879174649    0.07680610555903825    0.0737164610824761    0.07078732365492525    0.06814769017532453    
  0.06588601480350927    0.0640470376494995    0.06263359624793326    0.06161189107206907    0.06092036133430129    
  0.06048333274965794    0.060227662099438806    0.06009669068808652    0.06005666652730737    0.060096690688086554    
  0.06022766209943887    0.06048333274965801    0.0609203613343014    0.061611891072069    0.06263359624793308    
  0.06404703764949934    0.06057554973732375    0.06263359624793317    0.06514246328712534    0.06806520424380076    
  0.07132130174592705    0.07478862769095497    0.07831004978825447    0.08170288532117763    0.08476886205548363    
  0.08730570790424849    0.08912474623929172    0.09007617824673023    0.09007617824673027    0.08912474623929179    
  0.0873057079042485    0.0847688620554838    0.08170288532117775    0.07831004978825454    0.07478862769095505    
  0.07132130174592721    0.06806520424380096    0.06514246328712556    0.06263359624793337    0.060575549737324014    
  0.058964122153117554    0.057760704216291245    0.05690433371558748    0.056328157434288095    0.055975251043034094    
  0.05580771438729805    0.05580771438729807    0.055975251043034094    0.05632815743428805    0.0569043337155875    
  0.057760704216291175    0.058964122153117346    0.06057554973732375    0.05679107424988796    0.05896412215311737    
  0.06161189107206913    0.06470906130234944    0.06818612069904155    0.07193011179168836    0.07579032574504575    
  0.07958719717564638    0.08312135454119429    0.0861823821624651    0.0885618995239497    0.09007617824673023    
  0.09059646528007086    0.09007617824673023    0.08856189952394972    0.08618238216246522    0.08312135454119438    
  0.07958719717564648    0.07579032574504585    0.07193011179168846    0.06818612069904179    0.06470906130234971    
  0.061611891072069436    0.05896412215311779    0.05679107424988825    0.05507844660891154    0.053782706902008454    
  0.052846706224338194    0.05221642795840619    0.05185254881025124    0.05173344228771856    0.05185254881025122    
  0.05221642795840617    0.05284670622433814    0.05378270690200836    0.05507844660891137    0.05679107424988796    
  0.05288401199721028    0.05507844660891137    0.057760704216291175    0.06092036133430141    0.06450361753244371    
  0.06841104861227047    0.07250167311118677    0.07660164971766097    0.08051395666617606    0.0840265230820371    
  0.08692164661409109    0.08899344945422173    0.09007617824673023    0.09007617824673016    0.08899344945422169    
  0.08692164661409114    0.08402652308203717    0.08051395666617608    0.07660164971766109    0.07250167311118695    
  0.0684110486122707    0.06450361753244409    0.060920361334301856    0.05776070421629164    0.05507844660891179    
  0.05288401199721059    0.05115319058686202    0.04984148926532431    0.048900783812753895    0.048292590263181376    
  0.04799349981116407    0.04799349981116406    0.0482925902631813    0.04890078381275387    0.04984148926532411    
  0.05115319058686179    0.05288401199721028    0.04901185630642581    0.05115319058686173    0.0537827069020083    
  0.05690433371558746    0.06048333274965809    0.06443922530204965    0.06864609651266709    0.07293970867175491    
  0.07712800082855367    0.08100066953922852    0.08433758342611293    0.08692164661409109    0.08856189952394973    
  0.08912474623929167    0.08856189952394967    0.08692164661409113    0.08433758342611296    0.08100066953922848    
  0.07712800082855371    0.07293970867175512    0.06864609651266733    0.06443922530205003    0.06048333274965861    
  0.05690433371558806    0.05378270690200886    0.051153190586862164    0.049011856306426155    0.04732910155341247    
  0.046065458113492254    0.045185485659474466    0.04466533122183685    0.04449306164519755    0.04466533122183681    
  0.04518548565947445    0.04606545811349211    0.0473291015534122    0.04901185630642581    0.045296191000578655    
  0.04732910155341213    0.04984148926532403    0.05284670622433807    0.056328157434288026    0.060227662099438986    
  0.06444030177958379    0.06881740713449519    0.0731760038132051    0.07731011061234178    0.08100066953922848    
  0.08402652308203704    0.08618238216246514    0.08730570790424841    0.0873057079042484    0.08618238216246515    
  0.08402652308203706    0.08100066953922844    0.0773101106123418    0.07317600381320523    0.06881740713449544    
  0.06444030177958429    0.06022766209943952    0.05632815743428871    0.05284670622433872    0.04984148926532456    
  0.04732910155341258    0.045296191000579    0.04371416377736191    0.04255282460942495    0.04178920308007132    
  0.04141008045559982    0.04141008045559979    0.04178920308007128    0.04255282460942482    0.0437141637773617    
  0.045296191000578655    0.041830735411621994    0.04371416377736162    0.04606545811349201    0.04890078381275371    
  0.05221642795840608    0.055975251043034094    0.06009669068808664    0.0644539635278554    0.06887953424427654    
  0.07317600381320512    0.07712800082855358    0.08051395666617606    0.08312135454119428    0.08476886205548359    
  0.08533273585924897    0.08476886205548362    0.08312135454119424    0.08051395666617603    0.07712800082855363    
  0.0731760038132052    0.06887953424427677    0.06445396352785583    0.06009669068808722    0.05597525104303472    
  0.05221642795840676    0.048900783812754284    0.04606545811349253    0.04371416377736202    0.041830735411622265    
  0.04039215746893189    0.03937787941495717    0.038774029377622504    0.03857344482442201    0.03877402937762252    
  0.03937787941495709    0.04039215746893172    0.041830735411621994    0.03868926663525452    0.040392157468931655    
  0.042552824609424694    0.045185485659474264    0.04829259026318115    0.05185254881025115    0.055807714387298014    
  0.06005666652730744    0.0644539635278554    0.06881740713449518    0.07293970867175491    0.07660164971766092    
  0.07958719717564638    0.08170288532117753    0.08280094799789962    0.08280094799789972    0.08170288532117757    
  0.07958719717564634    0.07660164971766098    0.07293970867175502    0.06881740713449541    0.06445396352785579    
  0.06005666652730801    0.05580771438729868    0.05185254881025185    0.04829259026318184    0.045185485659474826    
  0.04255282460942521    0.040392157468931975    0.03868926663525475    0.03742761972782038    0.03659370816312875    
  0.036178807592599345    0.036178807592599345    0.03659370816312866    0.03742761972782026    0.03868926663525452    
  0.03592754833842035    0.037427619727820174    0.039377879414956976    0.041789203080071086    0.044665331221836614    
  0.0479934998111639    0.051733442287718416    0.055807714387298014    0.0600966906880866    0.0644403017795838    
  0.06864609651266701    0.07250167311118674    0.07579032574504571    0.07831004978825441    0.07989503879174628    
  0.08043607973019759    0.0798950387917463    0.0783100497882544    0.07579032574504571    0.07250167311118673    
  0.0686460965126672    0.06444030177958417    0.060096690688087095    0.05580771438729869    0.05173344228771912    
  0.04799349981116455    0.044665331221837266    0.0417892030800716    0.03937787941495733    0.03742761972782043    
  0.035927548338420504    0.03486585189893285    0.03423292397419155    0.03402264705051971    0.03423292397419152    
  0.03486585189893278    0.03592754833842035    0.03358194544262761    0.03486585189893274    0.036593708163128603    
  0.03877402937762234    0.04141008045559958    0.04449306164519737    0.047993499811163846    0.0518525488102511    
  0.05597525104303409    0.06022766209943894    0.06443922530204957    0.06841104861227042    0.07193011179168832    
  0.07478862769095487    0.07680610555903804    0.07784986100866668    0.07784986100866666    0.07680610555903812    
  0.07478862769095493    0.07193011179168832    0.06841104861227056    0.06443922530204989    0.06022766209943937    
  0.055975251043034684    0.051852548810251795    0.04799349981116454    0.04449306164519798    0.04141008045560018    
  0.03877402937762276    0.036593708163128895    0.03486585189893292    0.03358194544262772    0.032732600359671966    
  0.032310107045485294    0.03231010704548525    0.032732600359671946    0.03358194544262761    0.03167012266663657    
  0.03273260035967188    0.03423292397419144    0.036178807592599206    0.038573444824421786    0.041410080455599636    
  0.04466533122183664    0.04829259026318112    0.05221642795840603    0.05632815743428804    0.060483332749658045    
  0.06450361753244374    0.06818612069904159    0.071321301745927    0.07371646108247597    0.07521851061097849    
  0.07573024094454273    0.07521851061097845    0.07371646108247604    0.07132130174592705    0.06818612069904167    
  0.06450361753244394    0.060483332749658475    0.05632815743428856    0.05221642795840674    0.048292590263181785    
  0.044665331221837294    0.04141008045560017    0.0385734448244223    0.03617880759259955    0.03423292397419163    
  0.032732600359671994    0.031670122666636616    0.031037019942817684    0.030826800577134324    0.03103701994281765    
  0.03167012266663657    0.030195381069767258    0.031037019942817583    0.03231010704548519    0.034022647050519564    
  0.03617880759259915    0.03877402937762233    0.04178920308007105    0.04518548565947423    0.04890078381275368    
  0.05284670622433804    0.05690433371558746    0.06092036133430144    0.06470906130234945    0.0680652042438007    
  0.07078732365492517    0.0727038856301621    0.0736932149646272    0.07369321496462719    0.07270388563016213    