#     DFTpy    
  CRYSTAL 
    
  PRIMVEC    
  1.2868305217608103    -2.22885584442009    0.0    
  1.2868305217608103    2.22885584442009    0.0    
  0.0    0.0    4.35088067448276    
  PRIMCOORD    
  2    1    
  Si    1.2868305217608103    0.7429519481400302    1.08772016862069    
  Si    1.2868305217608103    -0.7429519481400302    3.263160505862071    
  BEGIN_BLOCK_DATAGRID_3D    
  3d_datagrid_density    
  BEGIN_DATAGRID_3D#0    
  25    25    49    
  0.0    0.0    0.0    
  1.2868305265607127    -2.228855852733765    0.0    
  1.2868305265607127    2.228855852733765    0.0    
  0.0    0.0    4.350880690711629    
  0.15880944471517494    0.16118084343008632    0.1681873830056401    0.17952732333180543    0.1947373268581351    
  0.2131779593123265    0.23395688300323692    0.25584761232808717    0.2772908926303545    0.2965216104783282    
  0.3117911888420097    0.321618269844023    0.32501044405538626    0.321618269844023    0.3117911888420097    
  0.29652161047832826    0.27729089263035456    0.2558476123280873    0.233956883003237    0.21317795931232658    
  0.19473732685813508    0.17952732333180546    0.16818738300564004    0.16118084343008635    0.15880944471517494    
  0.1611808434300863    0.1611808434300863    0.16586903162827416    0.17503764857496487    0.18830423406223426    
  0.20512593215649463    0.22475116554881883    0.2461307225418175    0.26786935630756875    0.28829059540108004    
  0.3056196718578023    0.3182275258308922    0.3248688549836786    0.3248688549836786    0.31822752583089225    
  0.30561967185780226    0.28829059540108004    0.26786935630756886    0.24613072254181761    0.2247511655488189    
  0.20512593215649466    0.1883042340622343    0.17503764857496487    0.16586903162827407    0.1611808434300863    
  0.16818738300563998    0.1658690316282741    0.16818738300564    0.17503764857496487    0.18612476399392403    
  0.20099256381634337    0.21900870105494394    0.23929067335134221    0.2606287390793126    0.28149211107183086    
  0.30016108432706395    0.3149504662408562    0.32445019470672876    0.3277257745962776    0.32445019470672887    
  0.31495046624085626    0.30016108432706406    0.2814921110718309    0.2606287390793127    0.23929067335134216    
  0.21900870105494383    0.20099256381634337    0.186124763993924    0.1750376485749649    0.16818738300563998    
  0.17952732333180535    0.17503764857496493    0.17503764857496493    0.1795273233318054    0.18830423406223426    
  0.20099256381634337    0.2170560046625468    0.2357541770491586    0.25606137101770166    0.27662630567733093    
  0.2958476300138354    0.31206646727209125    0.3238036692132991    0.3299625559492765    0.3299625559492765    
  0.32380366921329906    0.3120664672720913    0.29584763001383535    0.27662630567733093    0.25606137101770166    
  0.2357541770491586    0.2170560046625467    0.20099256381634337    0.18830423406223423    0.17952732333180535    
  0.19473732685813497    0.18830423406223426    0.186124763993924    0.18830423406223426    0.194737326858135    
  0.20512593215649463    0.21900870105494394    0.23575417704915866    0.25449954812648207    0.2740846197296164    
  0.29307035136213017    0.30988843900785473    0.323072089222682    0.3314649359506402    0.3343438786693278    
  0.3314649359506402    0.3230720892226819    0.3098884390078547    0.2930703513621302    0.2740846197296164    
  0.25449954812648207    0.2357541770491586    0.21900870105494383    0.20512593215649463    0.19473732685813497    
  0.2131779593123265    0.20512593215649463    0.20099256381634342    0.20099256381634337    0.20512593215649466    
  0.21317795931232658    0.2247511655488189    0.23929067335134227    0.2560613710177017    0.27408461972961634    
  0.2921103236108923    0.30870908625509774    0.3224833375973849    0.33229230786905645    0.3373784258689461    
  0.3373784258689461    0.3322923078690565    0.32248333759738484    0.30870908625509774    0.2921103236108921    
  0.2740846197296164    0.25606137101770166    0.23929067335134221    0.22475116554881897    0.2131779593123265    
  0.2339568830032368    0.22475116554881897    0.21900870105494383    0.2170560046625467    0.21900870105494383    
  0.22475116554881885    0.23395688300323697    0.24613072254181756    0.2606287390793128    0.27662630567733093    
  0.29307035136213017    0.30870908625509774    0.3222567116745177    0.3326275008349935    0.33909332502952055    
  0.34128385602865985    0.3390933250295205    0.33262750083499343    0.32225671167451775    0.3087090862550977    
  0.2930703513621301    0.2766263056773309    0.26062873907931267    0.24613072254181756    0.2339568830032368    
  0.2558476123280871    0.2461307225418175    0.23929067335134216    0.2357541770491586    0.2357541770491586    
  0.23929067335134221    0.24613072254181756    0.2558476123280873    0.2678693563075689    0.28149211107183086    
  0.2958476300138354    0.3098884390078546    0.32248333759738484    0.33262750083499343    0.3396381032211646    
  0.34319013633658935    0.3431901363365894    0.3396381032211645    0.3326275008349933    0.3224833375973848    
  0.3098884390078547    0.29584763001383524    0.28149211107183086    0.2678693563075688    0.2558476123280871    
  0.2772908926303544    0.26786935630756875    0.26062873907931267    0.25606137101770154    0.25449954812648207    
  0.2560613710177016    0.2606287390793127    0.26786935630756886    0.2772908926303546    0.28829059540108004    
  0.30016108432706395    0.3120664672720912    0.3230720892226818    0.33229230786905634    0.3390933250295205    
  0.34319013633658935    0.344548659703826    0.3431901363365894    0.3390933250295205    0.33229230786905634    
  0.3230720892226819    0.31206646727209125    0.3001610843270639    0.28829059540108004    0.2772908926303544    
  0.29652161047832815    0.28829059540108    0.28149211107183086    0.2766263056773309    0.2740846197296164    
  0.27408461972961634    0.27662630567733093    0.28149211107183086    0.28829059540108015    0.29652161047832826    
  0.3056196718578023    0.31495046624085615    0.323803669213299    0.3314649359506402    0.337378425868946    
  0.34128385602865985    0.3431901363365894    0.3431901363365894    0.34128385602865985    0.337378425868946    
  0.3314649359506402    0.3238036692132991    0.3149504662408562    0.30561967185780226    0.29652161047832815    
  0.3117911888420095    0.30561967185780226    0.30016108432706395    0.2958476300138353    0.2930703513621301    
  0.2921103236108921    0.2930703513621301    0.2958476300138354    0.30016108432706395    0.30561967185780226    
  0.3117911888420097    0.31822752583089225    0.32445019470672865    0.3299625559492763    0.33434387866932774    
  0.33737842586894595    0.3390933250295205    0.3396381032211645    0.3390933250295205    0.337378425868946    
  0.33434387866932774    0.3299625559492763    0.32445019470672876    0.31822752583089225    0.3117911888420095    
  0.3216182698440229    0.31822752583089225    0.3149504662408561    0.31206646727209114    0.30988843900785457    
  0.3087090862550975    0.3087090862550977    0.30988843900785473    0.3120664672720913    0.31495046624085615    
  0.31822752583089225    0.32161826984402303    0.3248688549836786    0.32772577459627744    0.3299625559492763    
  0.33146493595064    0.33229230786905634    0.33262750083499343    0.33262750083499343    0.33229230786905634    
  0.3314649359506402    0.3299625559492763    0.32772577459627755    0.3248688549836786    0.3216182698440229    
  0.3250104440553862    0.3248688549836787    0.32445019470672865    0.323803669213299    0.32307208922268177    
  0.32248333759738473    0.32225671167451764    0.3224833375973848    0.3230720892226819    0.323803669213299    
  0.3244501947067288    0.3248688549836787    0.32501044405538626    0.32486885498367857    0.32445019470672876    
  0.32380366921329895    0.32307208922268177    0.3224833375973848    0.3222567116745177    0.3224833375973848    
  0.3230720892226818    0.3238036692132991    0.32445019470672876    0.3248688549836787    0.3250104440553862    
  0.321618269844023    0.3248688549836786    0.32772577459627744    0.32996255594927626    0.3314649359506401    
  0.3322923078690563    0.3326275008349933    0.3326275008349934    0.33229230786905634    0.33146493595064    
  0.3299625559492764    0.3277257745962775    0.3248688549836786    0.321618269844023    0.3182275258308922    
  0.3149504662408561    0.31206646727209114    0.30988843900785457    0.30870908625509774    0.3087090862550976    
  0.3098884390078547    0.3120664672720913    0.31495046624085626    0.3182275258308923    0.321618269844023    
  0.3117911888420097    0.31822752583089225    0.32445019470672865    0.3299625559492763    0.33434387866932763    
  0.33737842586894595    0.3390933250295204    0.33963810322116444    0.3390933250295204    0.33737842586894595    
  0.33434387866932774    0.32996255594927637    0.3244501947067287    0.3182275258308922    0.3117911888420097    
  0.30561967185780214    0.30016108432706395    0.2958476300138353    0.2930703513621301    0.29211032361089206    
  0.2930703513621301    0.29584763001383524    0.30016108432706395    0.3056196718578023    0.3117911888420097    
  0.2965216104783283    0.3056196718578023    0.3149504662408562    0.323803669213299    0.33146493595064    
  0.33737842586894595    0.3412838560286598    0.3431901363365893    0.34319013633658935    0.34128385602865974    
  0.33737842586894595    0.33146493595064014    0.32380366921329906    0.3149504662408562    0.3056196718578023    
  0.2965216104783281    0.28829059540108004    0.28149211107183086    0.27662630567733093    0.27408461972961634    
  0.2740846197296164    0.27662630567733093    0.28149211107183086    0.28829059540108015    0.2965216104783283    
  0.2772908926303546    0.2882905954010801    0.30016108432706395    0.3120664672720912    0.32307208922268177    
  0.3322923078690562    0.33909332502952033    0.34319013633658924    0.3445486597038259    0.34319013633658924    
  0.3390933250295205    0.33229230786905634    0.3230720892226818    0.3120664672720912    0.30016108432706395    
  0.28829059540108    0.2772908926303545    0.26786935630756875    0.26062873907931267    0.2560613710177016    
  0.25449954812648207    0.2560613710177017    0.2606287390793128    0.2678693563075689    0.2772908926303546    
  0.2558476123280872    0.26786935630756886    0.2814921110718309    0.29584763001383524    0.30988843900785457    
  0.32248333759738473    0.33262750083499326    0.3396381032211644    0.34319013633658924    0.34319013633658924    
  0.3396381032211644    0.3326275008349933    0.32248333759738473    0.3098884390078547    0.2958476300138353    
  0.28149211107183086    0.2678693563075688    0.2558476123280872    0.24613072254181756    0.23929067335134216    
  0.23575417704915866    0.23575417704915874    0.2392906733513423    0.24613072254181764    0.2558476123280872    
  0.23395688300323692    0.24613072254181761    0.2606287390793128    0.2766263056773309    0.29307035136213005    
  0.3087090862550975    0.3222567116745176    0.3326275008349933    0.33909332502952033    0.3412838560286596    
  0.3390933250295203    0.3326275008349933    0.3222567116745176    0.30870908625509763    0.2930703513621301    
  0.2766263056773309    0.2606287390793127    0.24613072254181756    0.23395688300323686    0.22475116554881885    
  0.21900870105494383    0.21705600466254676    0.21900870105494388    0.224751165548819    0.23395688300323692    
  0.21317795931232658    0.224751165548819    0.2392906733513423    0.25606137101770166    0.2740846197296164    
  0.29211032361089206    0.3087090862550977    0.32248333759738473    0.3322923078690562    0.3373784258689459    
  0.33737842586894595    0.3322923078690562    0.32248333759738473    0.30870908625509763    0.2921103236108922    
  0.2740846197296164    0.25606137101770166    0.23929067335134221    0.22475116554881885    0.21317795931232653    
  0.20512593215649463    0.20099256381634337    0.20099256381634342    0.20512593215649474    0.21317795931232658    
  0.19473732685813502    0.20512593215649472    0.21900870105494394    0.23575417704915871    0.254499548126482    
  0.27408461972961634    0.29307035136213005    0.30988843900785457    0.32307208922268177    0.33146493595063997    
  0.33434387866932763    0.3314649359506401    0.32307208922268177    0.30988843900785457    0.29307035136213005    
  0.27408461972961634    0.25449954812648207    0.23575417704915866    0.21900870105494388    0.2051259321564947    
  0.1947373268581351    0.18830423406223434    0.18612476399392403    0.18830423406223434    0.19473732685813502    
  0.17952732333180546    0.18830423406223437    0.2009925638163434    0.21705600466254676    0.2357541770491586    
  0.2560613710177016    0.2766263056773309    0.2958476300138353    0.31206646727209114    0.3238036692132989    
  0.3299625559492763    0.3299625559492763    0.32380366921329895    0.31206646727209114    0.2958476300138353    
  0.27662630567733093    0.25606137101770166    0.23575417704915866    0.21705600466254676    0.2009925638163434    
  0.18830423406223426    0.1795273233318055    0.17503764857496493    0.175037648574965    0.17952732333180546    
  0.16818738300563998    0.175037648574965    0.18612476399392405    0.20099256381634345    0.2190087010549438    
  0.23929067335134216    0.26062873907931267    0.2814921110718308    0.30016108432706384    0.31495046624085604    
  0.3244501947067287    0.32772577459627733    0.32445019470672865    0.3149504662408561    0.30016108432706395    
  0.28149211107183086    0.2606287390793127    0.23929067335134227    0.21900870105494383    0.20099256381634342    
  0.18612476399392397    0.17503764857496484    0.16818738300564    0.16586903162827416    0.16818738300563998    
  0.16118084343008632    0.1658690316282742    0.17503764857496495    0.18830423406223432    0.20512593215649466    
  0.2247511655488189    0.24613072254181761    0.2678693563075688    0.28829059540108004    0.30561967185780226    
  0.3182275258308922    0.3248688549836786    0.3248688549836786    0.31822752583089225    0.3056196718578023    
  0.28829059540108004    0.26786935630756886    0.24613072254181756    0.224751165548819    0.20512593215649463    
  0.18830423406223426    0.1750376485749649    0.16586903162827404    0.16118084343008632    0.16118084343008632    
  0.15880944471517494    0.16118084343008632    0.1681873830056401    0.17952732333180543    0.1947373268581351    
  0.2131779593123265    0.23395688300323692    0.25584761232808717    0.2772908926303545    0.2965216104783282    
  0.3117911888420097    0.321618269844023    0.32501044405538626    0.321618269844023    0.3117911888420097    
  0.29652161047832826    0.27729089263035456    0.2558476123280873    0.233956883003237    0.21317795931232658    
  0.19473732685813508    0.17952732333180546    0.16818738300564004    0.16118084343008635    0.15880944471517494    
  0.16099846346311467    0.16337232684654754    0.1703921266184337    0.1817690215797538    0.1970488382747569    
  0.21558836559359015    0.23647742880985317    0.25846570231476224    0.27997632192681904    0.2992409446299635    
  0.31452056839267023    0.32434734538036886    0.32773838118179177    0.32434734538036886    0.31452056839267023    
  0.29924094462996353    0.27997632192681904    0.2584657023147623    0.23647742880985323    0.21558836559359015    
  0.19704883827475686    0.1817690215797538    0.17039212661843361    0.16337232684654754    0.16099846346311467    
  0.16337232684654746    0.1633723268465475    0.16794809043423467    0.17687814468196716    0.18976454464948708    
  0.20606377519214053    0.22504881344305497    0.24571736047943082    0.26673053952473275    0.28646651415839114    
  0.30320296002691566    0.3153664853882748    0.3217671706436697    0.3217671706436697    0.31536648538827483    
  0.3032029600269156    0.28646651415839125    0.2667305395247328    0.24571736047943094    0.22504881344305502    
  0.20606377519214056    0.1897645446494871    0.1768781446819671    0.16794809043423464    0.16337232684654746    
  0.1703921266184336    0.16818901834551372    0.17039212661843361    0.1768781446819671    0.1873125937493657    
  0.20121694254508496    0.21798793751003068    0.23683088733719054    0.2566586589429082    0.2760630933184079    
  0.29343018147765376    0.30717296973592195    0.315983695168645    0.31901729335141554    0.3159836951686451    
  0.30717296973592195    0.2934301814776538    0.27606309331840795    0.2566586589429083    0.23683088733719035    
  0.21798793751003068    0.2012169425450849    0.1873125937493657    0.17687814468196714    0.1703921266184336    
  0.1817690215797537    0.17764873579311305    0.17764873579311305    0.18176902157975378    0.18976454464948708    
  0.20121694254508496    0.2156026739772301    0.23227818706969114    0.25038162648580115    0.26874516204436144    
  0.28593135159294264    0.30042341966571584    0.3108838976152748    0.316356784886862    0.316356784886862    
  0.3108838976152747    0.3004234196657159    0.28593135159294264    0.26874516204436144    0.2503816264858011    
  0.23227818706969108    0.21560267397722999    0.20121694254508488    0.18976454464948705    0.1817690215797537    
  0.19704883827475675    0.19140781173363647    0.18948418477023243    0.19140781173363647    0.1970488382747568    
  0.20606377519214053    0.21798793751003068    0.2322781870696912    0.24825215287269486    0.26497650747609197    
  0.2812308507416366    0.2956347127700736    0.3068950301912079    0.31403160830755245    0.3164714011474865    
  0.31403160830755245    0.30689503019120784    0.2956347127700736    0.2812308507416366    0.26497650747609197    
  0.24825215287269492    0.23227818706969108    0.21798793751003062    0.20606377519214053    0.19704883827475675    
  0.2155883655935901    0.2089282828757749    0.2054750878193153    0.20547508781931528    0.20892828287577495    
  0.2155883655935902    0.22504881344305508    0.2368308873371905    0.25038162648580115    0.2649765074760919    
  0.27963179271631844    0.2931549457965732    0.30435488941773364    0.31228739390841825    0.3163765872097694    
  0.3163765872097694    0.31228739390841825    0.3043548894177337    0.29315494579657325    0.2796317927163184    
  0.26497650747609197    0.25038162648580103    0.2368308873371905    0.22504881344305508    0.2155883655935901    
  0.2364774288098531    0.22940858726449925    0.22494198828767425    0.22341044227327564    0.22494198828767425    
  0.22940858726449923    0.23647742880985323    0.24571736047943088    0.25665865894290835    0.26874516204436144    
  0.2812308507416366    0.2931549457965732    0.30348279932728306    0.31134644672708456    0.31620972755866256    
  0.3178474604388615    0.3162097275586625    0.3113464467270845    0.303482799327283    0.29315494579657314    
  0.2812308507416365    0.26874516204436133    0.2566586589429082    0.24571736047943082    0.2364774288098531    
  0.2584657023147621    0.2517060688322467    0.2468696260548423    0.24433407264832965    0.24433407264832965    
  0.24686962605484236    0.2517060688322468    0.2584657023147623    0.26673053952473286    0.2760630933184079    
  0.28593135159294264    0.2956347127700735    0.30435488941773364    0.3113464467270845    0.31613038633673884    
  0.3185290167893174    0.31852901678931744    0.31613038633673884    0.31134644672708445    0.3043548894177336    
  0.2956347127700736    0.28593135159294253    0.2760630933184079    0.2667305395247328    0.2584657023147621    
  0.2799763219268189    0.27432430742050057    0.2698732775606187    0.2669974079445362    0.26599943747731747    
  0.2669974079445362    0.2698732775606188    0.27432430742050057    0.2799763219268192    0.2864665141583912    
  0.2934301814776537    0.30042341966571584    0.30689503019120784    0.31228739390841814    0.3162097275586625    
  0.3185290167893173    0.31928760486651775    0.31852901678931744    0.31620972755866256    0.3122873939084182    
  0.30689503019120784    0.3004234196657158    0.29343018147765365    0.2864665141583912    0.2799763219268189    
  0.2992409446299634    0.2955117760684759    0.29226579415538717    0.2898174713536716    0.28848889986768456    
  0.28848889986768456    0.2898174713536717    0.2922657941553872    0.29551177606847606    0.29924094462996353    
  0.30320296002691566    0.3071729697359219    0.31088389761527463    0.3140316083075524    0.31637658720976936    
  0.3178474604388615    0.3185290167893174    0.3185290167893174    0.3178474604388615    0.31637658720976936    
  0.31403160830755245    0.31088389761527474    0.30717296973592184    0.3032029600269155    0.2992409446299634    
  0.3145205683926701    0.3134524211191371    0.3122236449147199    0.3110164660867725    0.3101126440065048    
  0.3097754866590075    0.3101126440065048    0.31101646608677264    0.31222364491472    0.3134524211191371    
  0.31452056839267023    0.3153664853882747    0.31598369516864494    0.31635678488686186    0.31647140114748634    
  0.31637658720976924    0.3162097275586625    0.31613038633673873    0.31620972755866245    0.31637658720976936    
  0.31647140114748634    0.31635678488686186    0.315983695168645    0.31536648538827483    0.3145205683926701    
  0.3243473453803688    0.3264919587894405    0.32799808017378057    0.32882575402036596    0.3291333860982374    
  0.3291869103060164    0.32918691030601654    0.32913338609823756    0.328825754020366    0.3279980801737806    
  0.3264919587894406    0.3243473453803689    0.32176717064366966    0.3190172933514154    0.31635678488686186    
  0.3140316083075523    0.31228739390841814    0.3113464467270844    0.31134644672708456    0.31228739390841814    
  0.3140316083075524    0.31635678488686186    0.3190172933514155    0.3217671706436697    0.3243473453803688    
  0.32773838118179177    0.33335943483292596    0.3381244055126691    0.34168902745712604    0.3439805836698046    
  0.34517799957117573    0.34553784830029144    0.34517799957117584    0.3439805836698047    0.34168902745712604    
  0.3381244055126692    0.33335943483292596    0.32773838118179177    0.32176717064366966    0.315983695168645    
  0.3108838976152745    0.3068950301912078    0.30435488941773353    0.30348279932728306    0.30435488941773353    
  0.3068950301912078    0.31088389761527474    0.315983695168645    0.3217671706436698    0.32773838118179177    
  0.32434734538036886    0.3333594348329259    0.3416165169015846    0.3484372067693847    0.35341800496897186    
  0.35652055583634584    0.3579632926890379    0.3579632926890379    0.35652055583634595    0.35341800496897186    
  0.3484372067693849    0.3416165169015846    0.3333594348329259    0.32434734538036886    0.3153664853882747    
  0.3071729697359218    0.30042341966571573    0.2956347127700734    0.29315494579657314    0.29315494579657303    
  0.2956347127700735    0.3004234196657159    0.30717296973592195    0.3153664853882749    0.32434734538036886    
  0.3145205683926702    0.32649195878944054    0.3381244055126691    0.3484372067693848    0.3566548050354896    
  0.36239382223380623    0.36568035351187916    0.36673593780269886    0.3656803535118791    0.3623938222338063    
  0.35665480503548963    0.34843720676938483    0.33812440551266915    0.3264919587894405    0.31452056839267023    
  0.30320296002691544    0.29343018147765365    0.28593135159294253    0.2812308507416365    0.2796317927163182    
  0.28123085074163645    0.2859313515929425    0.2934301814776537    0.30320296002691566    0.3145205683926702    
  0.2992409446299636    0.3134524211191371    0.32799808017378074    0.34168902745712615    0.35341800496897186    
  0.36239382223380623    0.3682911921730701    0.37116432163315677    0.37116432163315677    0.3682911921730701    
  0.36239382223380623    0.35341800496897186    0.3416890274571261    0.3279980801737806    0.3134524211191372    
  0.2992409446299634    0.28646651415839114    0.27606309331840784    0.26874516204436144    0.2649765074760919    
  0.26497650747609197    0.2687451620443614    0.27606309331840795    0.28646651415839136    0.2992409446299636    
  0.2799763219268191    0.295511776068476    0.31222364491471993    0.328825754020366    0.3439805836698046    
  0.35652055583634584    0.3656803535118791    0.37116432163315677    0.3729778683328    0.37116432163315677    
  0.3656803535118792    0.35652055583634595    0.3439805836698047    0.3288257540203659    0.31222364491471993    
  0.2955117760684759    0.279976321926819    0.26673053952473275    0.2566586589429082    0.250381626485801    
  0.24825215287269486    0.25038162648580115    0.25665865894290835    0.26673053952473286    0.2799763219268191    
  0.25846570231476235    0.2743243074205006    0.2922657941553872    0.3110164660867725    0.32913338609823745    
  0.34517799957117573    0.3579632926890378    0.36673593780269886    0.37116432163315677    0.37116432163315677    
  0.36673593780269886    0.3579632926890379    0.3451779995711758    0.3291333860982375    0.3110164660867725    
  0.29226579415538717    0.2743243074205006    0.25846570231476224    0.24571736047943082    0.23683088733719038    
  0.23227818706969114    0.23227818706969122    0.23683088733719057    0.24571736047943094    0.25846570231476235    
  0.23647742880985323    0.25170606883224683    0.2698732775606189    0.28981747135367164    0.31011264400650473    
  0.3291869103060164    0.3455378483002914    0.35796329268903787    0.3656803535118791    0.36829119217307005    
  0.3656803535118791    0.3579632926890379    0.3455378483002914    0.3291869103060165    0.3101126440065048    
  0.2898174713536716    0.2698732775606188    0.2517060688322467    0.23647742880985315    0.22504881344305502    
  0.21798793751003057    0.21560267397723004    0.21798793751003068    0.22504881344305516    0.23647742880985323    
  0.2155883655935902    0.22940858726449936    0.24686962605484244    0.2669974079445363    0.28848889986768467    
  0.30977548665900745    0.3291869103060165    0.34517799957117573    0.35652055583634584    0.3623938222338062    
  0.36239382223380623    0.35652055583634584    0.3451779995711758    0.3291869103060165    0.30977548665900756    
  0.2884888998676846    0.26699740794453625    0.24686962605484236    0.22940858726449925    0.2155883655935901    
  0.20606377519214053    0.20121694254508496    0.20121694254508496    0.20606377519214067    0.2155883655935902    
  0.1970488382747568    0.20892828287577497    0.2249419882876744    0.2443340726483297    0.2659994374773174    
  0.28848889986768456    0.3101126440065048    0.3291333860982374    0.3439805836698046    0.35341800496897174    
  0.3566548050354895    0.35341800496897186    0.3439805836698046    0.3291333860982375    0.31011264400650473    
  0.28848889986768456    0.2659994374773174    0.24433407264832974    0.22494198828767437    0.20892828287577495    
  0.1970488382747569    0.18976454464948717    0.1873125937493658    0.18976454464948717    0.1970488382747568    
  0.1817690215797538    0.19140781173363655    0.20547508781931534    0.22341044227327564    0.24433407264832965    
  0.2669974079445362    0.28981747135367164    0.3110164660867725    0.32882575402036596    0.341689027457126    
  0.3484372067693848    0.3484372067693848    0.34168902745712604    0.32882575402036596    0.3110164660867725    
  0.2898174713536717    0.2669974079445362    0.2443340726483297    0.2234104422732757    0.2054750878193153    
  0.19140781173363647    0.1817690215797538    0.17687814468196716    0.17687814468196725    0.1817690215797538    
  0.17039212661843361    0.17764873579311313    0.1894841847702325    0.2054750878193154    0.22494198828767425    
  0.24686962605484225    0.2698732775606188    0.2922657941553872    0.3122236449147199    0.32799808017378057    
  0.33812440551266915    0.3416165169015845    0.3381244055126691    0.3279980801737806    0.31222364491471993    
  0.29226579415538717    0.2698732775606188    0.2468696260548424    0.2249419882876743    0.2054750878193153    
  0.18948418477023238    0.177648735793113    0.17039212661843361    0.16794809043423473    0.17039212661843361    
  0.1633723268465475    0.16818901834551378    0.17764873579311308    0.19140781173363655    0.20892828287577492    
  0.22940858726449923    0.2517060688322468    0.2743243074205006    0.29551177606847595    0.31345242111913707    
  0.32649195878944043    0.3333594348329259    0.3333594348329259    0.3264919587894405    0.3134524211191372    
  0.29551177606847595    0.27432430742050057    0.25170606883224683    0.2294085872644993    0.20892828287577492    
  0.19140781173363644    0.17764873579311302    0.16818901834551367    0.16337232684654757    0.1633723268465475    
  0.16099846346311467    0.16337232684654754    0.1703921266184337    0.1817690215797538    0.1970488382747569    
  0.21558836559359015    0.23647742880985317    0.25846570231476224    0.27997632192681904    0.2992409446299635    
  0.31452056839267023    0.32434734538036886    0.32773838118179177    0.32434734538036886    0.31452056839267023    
  0.29924094462996353    0.27997632192681904    0.2584657023147623    0.23647742880985323    0.21558836559359015    
  0.19704883827475686    0.1817690215797538    0.17039212661843361    0.16337232684654754    0.16099846346311467    
  0.16746263214066764    0.16984767931530123    0.1769165235434677    0.1884131833525279    0.20390339156895573    
  0.22272687195591875    0.24391926946733455    0.2661633322011718    0.28783620669246174    0.30716560120676095    
  0.3224451061001367    0.3322506880981292    0.3356310853742397    0.33225068809812924    0.32244510610013677    
  0.30716560120676106    0.28783620669246174    0.2661633322011719    0.24391926946733455    0.2227268719559188    