#     DFTpy    
  CRYSTAL 
    
  PRIMVEC    
  1.6453047385370305    -2.8497514010799705    0.0    
  1.6453047385370305    2.8497514010799705    0.0    
  0.0    0.0    5.562911719517241    
  PRIMCOORD    
  2    1    
  Si    1.6453047385370305    0.9499171336933201    1.3907279298793103    
  Si    1.6453047385370305    -0.9499171336933201    4.172183789637931    
  BEGIN_BLOCK_DATAGRID_3D    
  3d_datagrid_density    
  BEGIN_DATAGRID_3D#0    
  33    33    55    
  0.0    0.0    0.0    
  1.6453047446740485    -2.8497514117095974    0.0    
  1.6453047446740485    2.8497514117095974    0.0    
  0.0    0.0    5.562911740267008    
  0.043389315117257035    0.04381050747371375    0.04506841939912238    0.047148935171627694    0.05003630398614755    
  0.05371785890671465    0.05817788962973649    0.06337598304423148    0.06921628940198431    0.0755238884026132    
  0.08204292584548446    0.08845753238393023    0.09442152589551811    0.09958145005926645    0.10359330731241599    
  0.10614981376844905    0.10702930036301726    0.10614981376844898    0.10359330731241596    0.09958145005926629    
  0.0944215258955178    0.08845753238392981    0.08204292584548391    0.0755238884026125    0.0692162894019836    
  0.0633759830442308    0.05817788962973593    0.05371785890671427    0.0500363039861473    0.04714893517162755    
  0.04506841939912232    0.04381050747371372    0.043389315117257035    0.0438105074737138    0.043810507473713706    
  0.044650129907908766    0.04631993581709026    0.04880603942291522    0.05209607353592093    0.056178433492855756    
  0.06102777568809509    0.06657778043651495    0.07269306337944656    0.07915623452246474    0.08567813196726676    
  0.0919242713802097    0.09754171489040422    0.10217807237931763    0.10550217479624682    0.10724266741443358    
  0.10724266741443353    0.10550217479624678    0.10217807237931752    0.09754171489040409    0.09192427138020934    
  0.08567813196726634    0.07915623452246412    0.07269306337944584    0.06657778043651424    0.061027775688094456    
  0.05617843349285534    0.05209607353592056    0.04880603942291507    0.046319935817090145    0.04465012990790868    
  0.0438105074737138    0.045068419399122366    0.04465012990790872    0.04506841939912237    0.04631993581709024    
  0.048396882215306594    0.051291540551609505    0.05499700355113378    0.059497469418290344    0.06474652544266297    
  0.07064055772756805    0.07700014526783673    0.0835695746168743    0.09003439036047177    0.09604677655161391    
  0.10124808354732312    0.1052893041084537    0.10786194895531635    0.10874634998743857    0.10786194895531631    
  0.10528930410845366    0.10124808354732305    0.09604677655161366    0.09003439036047133    0.08356957461687371    
  0.07700014526783606    0.07064055772756733    0.06474652544266224    0.05949746941828981    0.05499700355113337    
  0.05129154055160924    0.048396882215306455    0.04631993581709015    0.045068419399122366    0.04714893517162759    
  0.04631993581709021    0.04631993581709023    0.04714893517162766    0.04880603942291523    0.05129154055160951    
  0.05460658236486622    0.05874488422668746    0.06367487277169319    0.06931697590027355    0.07552495982341752    
  0.08207906097819494    0.0886933384326017    0.09503357701927588    0.1007391890717922    0.10544614450370164    
  0.10881592799251959    0.1105775584165973    0.1105775584165973    0.10881592799251952    0.10544614450370159    
  0.10073918907179208    0.0950335770192756    0.08869333843260123    0.0820790609781943    0.0755249598234168    
  0.06931697590027273    0.06367487277169254    0.058744884226686916    0.05460658236486589    0.05129154055160923    
  0.0488060394229151    0.04714893517162759    0.05003630398614743    0.048806039422915115    0.048396882215306546    
  0.04880603942291521    0.050036303986147466    0.052096073535920814    0.05499700355113369    0.058744884226687395    
  0.06332276668876716    0.06867101584420117    0.07467120386722591    0.08113800228124735    0.08781943433860637    
  0.09440476989676386    0.10053994121549147    0.1058503992635383    0.10997184621452584    0.11259028000086826    
  0.11348904700518236    0.11259028000086826    0.10997184621452581    0.10585039926353823    0.10053994121549124    
  0.09440476989676354    0.08781943433860581    0.08113800228124665    0.07467120386722513    0.06867101584420049    
  0.06332276668876652    0.05874488422668698    0.05499700355113342    0.05209607353592059    0.05003630398614743    
  0.053717858906714364    0.05209607353592065    0.05129154055160938    0.05129154055160937    0.052096073535920745    
  0.0537178589067145    0.05617843349285558    0.05949746941829022    0.06367487277169309    0.0686710158442012    
  0.0743924106576152    0.08068519653765963    0.08733297351333077    0.09405649019700675    0.10051904451341247    
  0.1063441516724221    0.11114742508227111    0.11457872991021929    0.11636826887526465    0.11636826887526458    
  0.11457872991021932    0.11114742508227111    0.10634415167242202    0.10051904451341225    0.09405649019700633    
  0.08733297351333015    0.08068519653765888    0.07439241065761448    0.06867101584420048    0.06367487277169255    
  0.05949746941828981    0.05617843349285536    0.053717858906714364    0.058177889629736065    0.05617843349285543    
  0.05499700355113356    0.0546065823648661    0.05499700355113359    0.05617843349285555    0.05817788962973618    
  0.06102777568809487    0.06474652544266284    0.06931697590027347    0.07467120386722598    0.08068519653765964    
  0.08717755064971246    0.0939051814542365    0.10055905659558075    0.10677234660357209    0.11214959234949155    
  0.11631226377142126    0.11894767515177988    0.11985006521355333    0.11894767515177986    0.11631226377142122    
  0.11214959234949153    0.10677234660357199    0.10055905659558044    0.09390518145423606    0.08717755064971176    
  0.0806851965376589    0.07467120386722521    0.06931697590027279    0.06474652544266232    0.061027775688094546    
  0.058177889629736065    0.06337598304423092    0.06102777568809463    0.05949746941828996    0.05874488422668717    
  0.0587448842266872    0.059497469418290067    0.06102777568809475    0.06337598304423113    0.0665777804365147    
  0.07064055772756797    0.07552495982341746    0.08113800228124743    0.08733297351333084    0.09390518145423657    
  0.10058147651128964    0.10701729999822555    0.11281808713988893    0.11758604666839362    0.12097514367382234    
  0.1227347958911487    0.1227347958911487    0.12097514367382235    0.11758604666839365    0.11281808713988886    
  0.10701729999822539    0.10058147651128929    0.09390518145423606    0.08733297351333026    0.0811380022812467    
  0.07552495982341684    0.07064055772756742    0.0665777804365143    0.06337598304423092    0.06921628940198372    
  0.0665777804365144    0.0647465254426625    0.06367487277169279    0.06332276668876675    0.06367487277169281    
  0.06474652544266254    0.06657778043651458    0.06921628940198397    0.07269306337944635    0.07700014526783668    
  0.08207906097819496    0.08781943433860653    0.09405649019700683    0.10055905659558087    0.10701729999822565    
  0.11305213985654178    0.1182577006945996    0.12226247356524779    0.12478106972291873    0.125639780731512    
  0.1247810697229187    0.12226247356524775    0.11825770069459954    0.11305213985654164    0.10701729999822537    
  0.10055905659558047    0.09405649019700638    0.08781943433860587    0.0820790609781944    0.07700014526783613    
  0.07269306337944591    0.06921628940198372    0.07552388840261264    0.07269306337944598    0.07064055772756751    
  0.06931697590027298    0.06867101584420073    0.06867101584420071    0.06931697590027301    0.07064055772756758    
  0.07269306337944613    0.07552388840261287    0.07915623452246451    0.0835695746168743    0.08869333843260178    
  0.09440476989676402    0.10051904451341265    0.10677234660357228    0.11281808713988906    0.11825770069459964    
  0.12270268673247908    0.12583771642929253    0.12745477613631223    0.12745477613631226    0.1258377164292925    
  0.12270268673247903    0.11825770069459954    0.11281808713988892    0.10677234660357202    0.10051904451341233    
  0.09440476989676361    0.0886933384326013    0.08356957461687384    0.0791562345224642    0.07552388840261264    
  0.08204292584548403    0.07915623452246423    0.07700014526783625    0.07552495982341698    0.07467120386722542    
  0.07439241065761464    0.07467120386722537    0.07552495982341696    0.07700014526783629    0.07915623452246437    
  0.08204292584548414    0.0856781319672667    0.0900343903604718    0.09503357701927602    0.1005399412154917    
  0.1063441516724224    0.11214959234949176    0.11758604666839383    0.12226247356524789    0.12583771642929253    
  0.12807046618667028    0.12882823045315814    0.1280704661866702    0.1258377164292925    0.12226247356524776    
  0.11758604666839369    0.11214959234949155    0.10634415167242216    0.10053994121549135    0.0950335770192757    
  0.09003439036047144    0.08567813196726637    0.08204292584548403    0.0884575323839299    0.08567813196726637    
  0.08356957461687382    0.08207906097819444    0.08113800228124676    0.08068519653765906    0.08068519653765895    
  0.08113800228124671    0.08207906097819435    0.08356957461687381    0.08567813196726637    0.08845753238393    
  0.09192427138020969    0.09604677655161396    0.10073918907179243    0.10585039926353858    0.11114742508227142    
  0.1163122637714215    0.12097514367382255    0.1247810697229189    0.12745477613631234    0.12882823045315817    
  0.1288282304531581    0.12745477613631223    0.1247810697229188    0.12097514367382241    0.11631226377142129    
  0.11114742508227118    0.1058503992635383    0.10073918907179215    0.09604677655161373    0.09192427138020944    
  0.0884575323839299    0.09442152589551783    0.09192427138020938    0.0900343903604714    0.08869333843260127    
  0.08781943433860587    0.08733297351333019    0.08717755064971172    0.08733297351333    0.0878194343386057    
  0.0886933384326011    0.09003439036047126    0.09192427138020934    0.09442152589551789    0.09754171489040418    
  0.1012480835473233    0.10544614450370185    0.10997184621452612    0.11457872991021967    0.11894767515178022    
  0.12273479589114901    0.12563978073151225    0.12745477613631234    0.12807046618667028    0.1274547761363123    
  0.1256397807315121    0.12273479589114875    0.11894767515177995    0.11457872991021949    0.10997184621452588    
  0.10544614450370168    0.10124808354732312    0.09754171489040409    0.09442152589551783    0.09958145005926639    
  0.09754171489040402    0.09604677655161363    0.0950335770192755    0.09440476989676345    0.0940564901970062    
  0.0939051814542358    0.0939051814542358    0.09405649019700603    0.09440476989676323    0.09503357701927528    
  0.09604677655161341    0.09754171489040393    0.09958145005926636    0.10217807237931761    0.10528930410845384    
  0.10881592799251982    0.11259028000086857    0.11636826887526495    0.11985006521355367    0.12273479589114901    
  0.12478106972291894    0.1258377164292926    0.12583771642929256    0.1247810697229188    0.12273479589114879    
  0.1198500652135534    0.11636826887526469    0.11259028000086833    0.10881592799251963    0.10528930410845376    
  0.10217807237931757    0.09958145005926639    0.10359330731241596    0.10217807237931745    0.1012480835473229    
  0.1007391890717919    0.10053994121549109    0.10051904451341202    0.10055905659558013    0.1005814765112889    
  0.10055905659558002    0.10051904451341173    0.10053994121549081    0.10073918907179162    0.10124808354732266    
  0.10217807237931732    0.10359330731241596    0.1055021747962468    0.10786194895531649    0.11057755841659753    
  0.11348904700518267    0.11636826887526498    0.11894767515178023    0.12097514367382262    0.12226247356524798    
  0.1227026867324792    0.12226247356524789    0.12097514367382245    0.11894767515177994    0.11636826887526472    
  0.11348904700518243    0.11057755841659735    0.10786194895531635    0.10550217479624682    0.10359330731241596    
  0.10614981376844901    0.10550217479624661    0.10528930410845348    0.10544614450370135    0.10585039926353795    
  0.10634415167242178    0.10677234660357161    0.107017299998225    0.10701729999822497    0.10677234660357143    
  0.10634415167242145    0.10585039926353766    0.10544614450370104    0.10528930410845326    0.10550217479624655    
  0.10614981376844895    0.10724266741443363    0.1087463499874388    0.11057755841659758    0.11259028000086861    
  0.11457872991021972    0.11631226377142159    0.11758604666839392    0.11825770069459976    0.11825770069459964    
  0.11758604666839371    0.11631226377142133    0.11457872991021943    0.11259028000086833    0.11057755841659737    
  0.10874634998743861    0.10724266741443353    0.10614981376844901    0.10702930036301724    0.10724266741443335    
  0.10786194895531605    0.10881592799251925    0.1099718462145255    0.11114742508227084    0.11214959234949119    
  0.11281808713988854    0.11305213985654124    0.11281808713988845    0.11214959234949098    0.1111474250822705    
  0.10997184621452519    0.10881592799251898    0.10786194895531584    0.10724266741443328    0.10702930036301726    
  0.1072426674144336    0.10786194895531649    0.10881592799251982    0.10997184621452619    0.11114742508227149    
  0.11214959234949186    0.11281808713988917    0.11305213985654183    0.112818087139889    0.11214959234949155    
  0.11114742508227116    0.10997184621452584    0.10881592799251959    0.10786194895531635    0.10724266741443353    
  0.10702930036301724    0.10614981376844901    0.10724266741443335    0.10874634998743833    0.110577558416597    
  0.11259028000086793    0.11457872991021908    0.11631226377142101    0.11758604666839344    0.11825770069459926    
  0.11825770069459919    0.11758604666839328    0.1163122637714208    0.11457872991021875    0.11259028000086763    
  0.11057755841659676    0.10874634998743819    0.10724266741443335    0.10614981376844902    0.10550217479624692    
  0.10528930410845393    0.10544614450370195    0.10585039926353865    0.10634415167242246    0.10677234660357235    
  0.10701729999822569    0.10701729999822565    0.10677234660357213    0.1063441516724222    0.10585039926353833    
  0.10544614450370166    0.10528930410845373    0.10550217479624682    0.10614981376844901    0.103593307312416    
  0.10550217479624664    0.10786194895531605    0.11057755841659694    0.11348904700518203    0.11636826887526439    
  0.1189476751517797    0.1209751436738222    0.12226247356524762    0.12270268673247885    0.12226247356524753    
  0.12097514367382203    0.11894767515177944    0.11636826887526407    0.11348904700518175    0.11057755841659674    
  0.10786194895531591    0.10550217479624659    0.10359330731241603    0.10217807237931768    0.10124808354732338    
  0.10073918907179254    0.10053994121549177    0.10051904451341272    0.10055905659558091    0.10058147651128967    
  0.10055905659558073    0.10051904451341247    0.10053994121549147    0.10073918907179222    0.10124808354732318    
  0.10217807237931764    0.103593307312416    0.09958145005926647    0.10217807237931753    0.10528930410845348    
  0.10881592799251924    0.11259028000086793    0.11636826887526434    0.1198500652135532    0.12273479589114861    
  0.12478106972291869    0.1258377164292924    0.1258377164292924    0.12478106972291857    0.12273479589114848    
  0.11985006521355296    0.11636826887526407    0.1125902800008677    0.10881592799251905    0.10528930410845332    
  0.10217807237931745    0.09958145005926644    0.09754171489040434    0.0960467765516141    0.0950335770192761    
  0.09440476989676415    0.09405649019700693    0.09390518145423664    0.09390518145423654    0.09405649019700675    
  0.09440476989676386    0.0950335770192759    0.09604677655161391    0.09754171489040422    0.09958145005926647    
  0.09442152589551805    0.09754171489040413    0.10124808354732297    0.10544614450370138    0.1099718462145255    
  0.11457872991021908    0.1189476751517797    0.12273479589114863    0.12563978073151202    0.12745477613631226    
  0.1280704661866702    0.12745477613631218    0.12563978073151189    0.12273479589114844    0.11894767515177951    
  0.11457872991021881    0.10997184621452526    0.10544614450370114    0.10124808354732279    0.097541714890404    
  0.09442152589551799    0.09192427138020974    0.09003439036047187    0.08869333843260185    0.08781943433860652    
  0.08733297351333089    0.08717755064971243    0.08733297351333082    0.08781943433860633    0.08869333843260165    
  0.09003439036047174    0.09192427138020969    0.09442152589551805    0.08845753238393021    0.09192427138020962    
  0.0960467765516138    0.10073918907179195    0.105850399263538    0.11114742508227084    0.11631226377142098    
  0.1209751436738222    0.1247810697229187    0.12745477613631226    0.1288282304531582    0.1288282304531581    
  0.12745477613631223    0.12478106972291857    0.12097514367382205    0.11631226377142082    0.11114742508227057    
  0.10585039926353776    0.10073918907179172    0.09604677655161346    0.09192427138020944    0.08845753238393005    
  0.08567813196726672    0.08356957461687431    0.08207906097819503    0.08113800228124743    0.08068519653765964    
  0.08068519653765963    0.08113800228124735    0.0820790609781949    0.08356957461687425    0.08567813196726674    
  0.08845753238393021    0.08204292584548446    0.08567813196726679    0.09003439036047171    0.09503357701927573    
  0.10053994121549119    0.10634415167242185    0.11214959234949119    0.11758604666839345    0.12226247356524772    
  0.1258377164292925    0.12807046618667028    0.1288282304531582    0.12807046618667023    0.12583771642929245    
  0.12226247356524761    0.11758604666839334    0.11214959234949104    0.10634415167242155    0.10053994121549088    
  0.09503357701927534    0.09003439036047133    0.08567813196726644    0.08204292584548419    0.07915623452246465    
  0.07700014526783673    0.07552495982341749    0.07467120386722599    0.07439241065761525    0.07467120386722591    
  0.07552495982341746    0.07700014526783673    0.07915623452246467    0.08204292584548446    0.07552388840261315    
  0.0791562345224647    0.08356957461687428    0.08869333843260163    0.09440476989676372    0.10051904451341218    
  0.10677234660357175    0.11281808713988868    0.11825770069459939    0.12270268673247899    0.1258377164292925    
  0.12745477613631237    0.12745477613631237    0.12583771642929242    0.12270268673247892    0.11825770069459932    
  0.11281808713988854    0.1067723466035715    0.10051904451341179    0.09440476989676326    0.08869333843260113    
  0.08356957461687378    0.07915623452246434    0.07552388840261291    0.07269306337944635    0.07064055772756797    
  0.0693169759002734    0.06867101584420122    0.0686710158442012    0.06931697590027348    0.07064055772756805    
  0.07269306337944642    0.07552388840261315    0.06921628940198425    0.07269306337944653    0.07700014526783684    
  0.08207906097819498    0.08781943433860628    0.09405649019700658    0.1005590565955804    0.10701729999822522    
  0.1130521398565414    0.11825770069459943    0.12226247356524775    0.1247810697229188    0.1256397807315121    
  0.12478106972291876    0.12226247356524772    0.11825770069459939    0.1130521398565413    0.10701729999822504    
  0.10055905659558005    0.094056490197006    0.08781943433860571    0.08207906097819438    0.07700014526783629    
  0.07269306337944619    0.06921628940198395    0.0665777804365147    0.06474652544266282    0.06367487277169313    
  0.06332276668876713    0.06367487277169315    0.0647465254426629    0.06657778043651481    0.06921628940198425    
  0.06337598304423141    0.06657778043651492    0.0706405577275681    0.07552495982341763    0.08113800228124743    
  0.08733297351333075    0.09390518145423629    0.10058147651128932    0.10701729999822525    0.1128180871398887    
  0.11758604666839352    0.12097514367382231    0.12273479589114872    0.12273479589114868    0.12097514367382228    
  0.11758604666839348    0.11281808713988863    0.10701729999822507    0.10058147651128897    0.09390518145423582    
  0.08733297351333011    0.08113800228124672    0.07552495982341695    0.07064055772756761    0.06657778043651458    
  0.06337598304423113    0.061027775688094865    0.059497469418290254    0.058744884226687374    0.05874488422668742    
  0.05949746941829029    0.061027775688095004    0.06337598304423141    0.058177889629736454    0.061027775688095094    
  0.06474652544266307    0.06931697590027368    0.07467120386722612    0.08068519653765972    0.08717755064971235    
  0.09390518145423633    0.10055905659558047    0.10677234660357182    0.11214959234949129    0.11631226377142108    
  0.11894767515177981    0.11985006521355329    0.11894767515177981    0.11631226377142108    0.11214959234949122    
  0.10677234660357164    0.10055905659558019    0.09390518145423585    0.08717755064971174    0.08068519653765897    
  0.07467120386722537    0.06931697590027303    0.0647465254426626    0.06102777568809473    0.05817788962973617    
  0.056178433492855596    0.054997003551133655    0.05460658236486617    0.0549970035511337    0.056178433492855666    
  0.058177889629736454    0.053717858906714586    0.05617843349285575    0.059497469418290455    0.06367487277169337    
  0.06867101584420143    0.07439241065761541    0.08068519653765971    0.08733297351333075    0.0940564901970066    
  0.10051904451341226    0.10634415167242188    0.1111474250822709    0.11457872991021915    0.11636826887526447    
  0.11636826887526444    0.11457872991021913    0.1111474250822709    0.10634415167242176    0.100519044513412    
  0.09405649019700617    0.08733297351333015    0.08068519653765897    0.07439241065761464    0.06867101584420071    
  0.0636748727716928    0.05949746941829    0.0561784334928555    0.05371785890671443    0.05209607353592069    
  0.05129154055160938    0.05129154055160938    0.052096073535920794    0.053717858906714586    0.05003630398614755    
  0.05209607353592083    0.05499700355113384    0.058744884226687645    0.06332276668876734    0.06867101584420147    
  0.07467120386722612    0.08113800228124747    0.08781943433860641    0.09440476989676383    0.10053994121549129    
  0.10585039926353804    0.10997184621452556    0.112590280000868    0.11348904700518209    0.112590280000868    
  0.10997184621452556    0.105850399263538    0.10053994121549109    0.09440476989676344    0.0878194343386059    
  0.08113800228124675    0.0746712038672254    0.06867101584420068    0.06332276668876674    0.05874488422668713    
  0.0549970035511335    0.052096073535920696    0.05003630398614738    0.048806039422915164    0.04839688221530651    
  0.048806039422915136    0.05003630398614755    0.04714893517162763    0.04880603942291523    0.05129154055160951    
  0.054606582364866374    0.058744884226687666    0.06367487277169342    0.0693169759002737    0.07552495982341768    
  0.08207906097819505    0.08869333843260171    0.09503357701927583    0.10073918907179208    0.10544614450370142    
  0.10881592799251925    0.11057755841659697    0.11057755841659697    0.10881592799251928    0.10544614450370134    
  0.10073918907179193    0.09503357701927545    0.08869333843260126    0.08207906097819444    0.07552495982341693    
  0.06931697590027297    0.06367487277169272    0.05874488422668712    0.054606582364865985    0.051291540551609324    
  0.04880603942291508    0.04714893517162755    0.04631993581709016    0.04631993581709018    0.04714893517162763    
  0.04506841939912236    0.0463199358170902    0.048396882215306615    0.051291540551609525    0.05499700355113388    
  0.05949746941829051    0.06474652544266313    0.07064055772756822    0.07700014526783694    0.08356957461687435    
  0.09003439036047177    0.09604677655161387    0.10124808354732306    0.10528930410845355    0.10786194895531605    
  0.10874634998743833    0.10786194895531608    0.10528930410845345    0.10124808354732287    0.09604677655161356    
  0.0900343903604714    0.08356957461687381    0.07700014526783619    0.07064055772756749    0.06474652544266245    
  0.0594974694182899    0.05499700355113344    0.05129154055160929    0.04839688221530647    0.04631993581709016    
  0.04506841939912232    0.044650129907908696    0.04506841939912236    0.0438105074737138    0.04465012990790871    
  0.04631993581709025    0.048806039422915275    0.05209607353592087    0.05617843349285587    0.06102777568809516    
  0.06657778043651504    0.07269306337944666    0.07915623452246481    0.08567813196726684    0.09192427138020971    
  0.09754171489040422    0.1021780723793175    0.10550217479624666    0.10724266741443336    0.10724266741443339    
  0.10550217479624666    0.10217807237931745    0.097541714890404    0.09192427138020941    0.08567813196726634    
  0.0791562345224642    0.0726930633794459    0.06657778043651433    0.061027775688094546    0.05617843349285534    
  0.052096073535920606    0.04880603942291508    0.04631993581709018    0.04465012990790869    0.043810507473713685    
  0.0438105074737138    0.043389315117257035    0.04381050747371375    0.04506841939912238    0.047148935171627694    
  0.05003630398614755    0.05371785890671465    0.05817788962973649    0.06337598304423148    0.06921628940198431    
  0.0755238884026132    0.08204292584548446    0.08845753238393023    0.09442152589551811    0.09958145005926645    
  0.10359330731241599    0.10614981376844905    0.10702930036301726    0.10614981376844898    0.10359330731241596    
  0.09958145005926629    0.0944215258955178    0.08845753238392981    0.08204292584548391    0.0755238884026125    
  0.0692162894019836    0.0633759830442308    0.05817788962973593    0.05371785890671427    0.0500363039861473    
  0.04714893517162755    0.04506841939912232    0.04381050747371372    0.043389315117257035    0.04386597408294214    
  0.044293704308431096    0.04557213993066439    0.04768993725193132    0.050635557211005114    0.05440032441115654    
  0.05896989545731533    0.06430122993482783    0.07029273977985899    0.07676285112945473    0.08344932127034081    
  0.09002921104597172    0.09614709070421223    0.1014385558686153    0.10554975529774917    0.10816729830509768    
  0.10906725112573792    0.10816729830509764    0.10554975529774911    0.10143855586861514    0.09614709070421197    
  0.09002921104597134    0.08344932127034028    0.07676285112945404    0.07029273977985831    0.06430122993482716    
  0.05896989545731479    0.054400324411156165    0.050635557211004864    0.04768993725193117    0.04557213993066433    
  0.044293704308431076    0.04386597408294214    0.04429370430843115    0.04429370430843107    0.04511194815201602    
  0.04674023411768801    0.04916605156951339    0.0523771509825986    0.05636036186912821    0.06108841067995693    
  0.06649511048321799    0.07244907441514103    0.07874064786440382    0.08509037287547588    0.0911735042611176    
  0.09664600146473497    0.1011636777891634    0.1044030498202139    0.10609925241009238    0.10609925241009233    
  0.10440304982021384    0.1011636777891633    0.09664600146473483    0.09117350426111723    0.08509037287547545    
  0.07874064786440318    0.07244907441514029    0.06649511048321724    0.06108841067995628    0.05636036186912779    
  0.05237715098259824    0.049166051569513244    0.0467402341176879    0.04511194815201593    0.04429370430843115    
  0.045572139930664377    0.04518180154800059    0.045572139930664377    0.04674023411768799    0.048678376355216095    
  0.05137640006899793    0.0548222003950325    0.058995392548641085    0.06385073713494509    0.0692946877819665    
  0.07516591025506317    0.08123159231274744    0.08720257279107528    0.0927579951786716    0.09756701472823906    
  0.10130676016923074    0.1036897119907278    0.10450940125803972    0.10368971199072773    0.10130676016923065    
  0.09756701472823899    0.0927579951786713    0.0872025727910748    0.08123159231274683    0.07516591025506249    
  0.06929468778196578    0.06385073713494435    0.05899539254864052    0.05482220039503208    0.051376400068997644    
  0.04867837635521594    0.04674023411768791    0.045572139930664377    0.04768993725193122    0.046951182794346145    
  0.046951182794346166    0.04768993725193128    0.049166051569513404    0.05137640006899793    0.054314704978867805    
  0.05796692874783228    0.06230067075322324    0.06724799438626497    0.07268648561255873    0.07842797282098973    
  0.08422262472682776    0.08977709064576095    0.09477680383000259    0.09890516640891477    0.10186509893190264    
  0.10341464285660995    0.10341464285660992    0.10186509893190256    0.0989051664089147    0.09477680383000242    
  0.08977709064576062    0.08422262472682727    0.07842797282098911    0.07268648561255796    0.06724799438626412    
  0.06230067075322255    0.05796692874783175    0.054314704978867465    0.051376400068997644    0.049166051569513265    
  0.04768993725193122    0.050635557211004996    0.049593820264559565    0.04924724023011631    0.049593820264559677    
  0.050635557211005044    0.0523771509825985    0.05482220039503241    0.05796692874783223    0.06179111221942116    
  0.0662457000358951    0.07123801224097963    0.0766188135019961    0.08217816955842946    0.08765436848067384    
  0.09275262610925966    0.09716580464991023    0.10059504122456404    0.10277771199750949    0.10352791917445112    
  0.10277771199750944    0.10059504122456397    0.09716580464991015    0.09275262610925941    0.08765436848067346    