#     DFTpy    
  CRYSTAL 
    
  PRIMVEC    
  1.4522801602729103    -2.5154230244169606    0.0    
  1.4522801602729103    2.5154230244169606    0.0    
  0.0    0.0    4.91027961834483    
  PRIMCOORD    
  2    1    
  Si    1.4522801602729103    0.8384743414723203    1.2275699045862103    
  Si    1.4522801602729103    -0.8384743414723203    3.6827097137586216    
  BEGIN_BLOCK_DATAGRID_3D    
  3d_datagrid_density    
  BEGIN_DATAGRID_3D#0    
  28    28    49    
  0.0    0.0    0.0    
  1.4522801656899431    -2.5154230337995362    0.0    
  1.4522801656899431    2.5154230337995362    0.0    
  0.0    0.0    4.910279636660268    
  0.08375132786216648    0.08485322473571034    0.08814656166998516    0.09359503626709792    0.10113252172389135    
  0.11063185342117887    0.12184098570202084    0.13431649734219678    0.14740952183216033    0.1603255530818098    
  0.17221128388225213    0.18220856187828222    0.18948872105919212    0.19334191916144366    0.1933419191614437    
  0.18948872105919212    0.18220856187828227    0.1722112838822521    0.1603255530818098    0.14740952183216027    
  0.13431649734219678    0.12184098570202087    0.11063185342117897    0.10113252172389142    0.09359503626709795    
  0.0881465616699852    0.08485322473571037    0.08375132786216648    0.08485322473571037    0.08485322473571037    
  0.08705077010095826    0.09142155656969857    0.09791636862373648    0.1064446307588731    0.11682571450456647    
  0.1287180197342512    0.14157304477011026    0.1546596522482977    0.1671451752440322    0.1781700291822985    
  0.18688619322739866    0.1925115450577925    0.19446052362791452    0.19251154505779253    0.18688619322739866    
  0.17817002918229852    0.1671451752440322    0.15465965224829772    0.1415730447701103    0.12871801973425132    
  0.1168257145045665    0.10644463075887312    0.09791636862373652    0.09142155656969862    0.08705077010095824    
  0.08485322473571037    0.08814656166998516    0.08705077010095824    0.08814656166998518    0.09142155656969858    
  0.09683941117889176    0.10433346664858192    0.11377481454298145    0.12490976304637003    0.1372967379225364    
  0.15029310648677732    0.16311063442398183    0.1748983268081462    0.18480020218183768    0.1919981134025171    
  0.19580185907543335    0.19580185907543332    0.1919981134025171    0.18480020218183763    0.1748983268081462    
  0.16311063442398188    0.15029310648677732    0.13729673792253652    0.1249097630463701    0.11377481454298148    
  0.10433346664858195    0.09683941117889183    0.09142155656969855    0.08814656166998516    0.09359503626709789    
  0.09142155656969857    0.09142155656969855    0.09359503626709792    0.09791636862373646    0.10433346664858192    
  0.11275058612424779    0.1229814144371006    0.13468483934142447    0.14732431608373492    0.1601866866325151    
  0.17245114179709814    0.18326221224452122    0.1917833393781287    0.19726397200167678    0.19915849531995983    
  0.19726397200167683    0.19178333937812875    0.1832622122445212    0.17245114179709817    0.16018668663251512    
  0.14732431608373495    0.13468483934142456    0.1229814144371007    0.11275058612424793    0.10433346664858194    
  0.09791636862373646    0.09359503626709789    0.10113252172389138    0.09791636862373646    0.09683941117889175    
  0.09791636862373643    0.10113252172389135    0.1064446307588731    0.11377481454298148    0.12298141443710059    
  0.13380591178601695    0.1458211325341825    0.1584165536009833    0.1708353438325884    0.18224245403977704    
  0.19179346749983492    0.19870313858444755    0.20233874065227644    0.20233874065227644    0.19870313858444746    
  0.19179346749983484    0.18224245403977704    0.17083534383258847    0.15841655360098345    0.1458211325341825    
  0.13380591178601703    0.12298141443710073    0.11377481454298148    0.10644463075887307    0.10113252172389138    
  0.1106318534211789    0.10644463075887307    0.1043334666485819    0.10433346664858188    0.106444630758873    
  0.1106318534211789    0.1168257145045665    0.12490976304637    0.13468483934142447    0.14582113253418247    
  0.1578238205443966    0.17003474593171977    0.181674330935095    0.1919103479209389    0.19993849152305604    
  0.20507187724533207    0.20683933207246197    0.20507187724533205    0.19993849152305596    0.19191034792093883    
  0.181674330935095    0.1700347459317198    0.15782382054439664    0.14582113253418258    0.13468483934142458    
  0.12490976304637011    0.1168257145045665    0.1106318534211789    0.12184098570202087    0.11682571450456647    
  0.11377481454298137    0.1127505861242478    0.11377481454298137    0.11682571450456644    0.12184098570202082    
  0.12871801973425118    0.1372967379225364    0.14732431608373492    0.15841655360098333    0.17003474593171977    
  0.18149366499006933    0.19200913370274272    0.2007802110797137    0.20708760780210328    0.21038780925255826    
  0.2103878092525583    0.20708760780210322    0.20078021107971378    0.19200913370274272    0.18149366499006936    
  0.1700347459317198    0.1584165536009834    0.14732431608373503    0.13729673792253652    0.12871801973425126    
  0.12184098570202087    0.1343164973421968    0.12871801973425123    0.12490976304637    0.12298141443710053    
  0.12298141443710052    0.12490976304637    0.1287180197342512    0.13431649734219678    0.1415730447701102    
  0.1502931064867772    0.16018668663251498    0.17083534383258836    0.181674330935095    0.19200913370274278    
  0.2010796935757743    0.2081605410997998    0.212662529934579    0.21420657661766107    0.21266252993457893    
  0.20816054109979984    0.2010796935757743    0.19200913370274278    0.18167433093509505    0.17083534383258844    
  0.16018668663251512    0.15029310648677738    0.14157304477011026    0.1343164973421968    0.14740952183216036    
  0.14157304477011015    0.13729673792253633    0.1346848393414244    0.13380591178601683    0.1346848393414244    
  0.13729673792253633    0.14157304477011012    0.1474095218321602    0.15465965224829767    0.16311063442398172    
  0.17245114179709803    0.18224245403977707    0.19191034792093886    0.20078021107971378    0.20816054109979978    
  0.21344639224115985    0.21620165966523422    0.21620165966523422    0.21344639224115994    0.20816054109979984    
  0.20078021107971375    0.19191034792093892    0.18224245403977712    0.17245114179709825    0.16311063442398188    
  0.15465965224829772    0.14740952183216036    0.1603255530818098    0.15465965224829759    0.1502931064867771    
  0.14732431608373478    0.14582113253418222    0.14582113253418225    0.14732431608373467    0.1502931064867771    
  0.15465965224829759    0.1603255530818097    0.16714517524403222    0.1748983268081461    0.1832622122445212    
  0.19179346749983478    0.19993849152305593    0.20708760780210314    0.21266252993457893    0.21620165966523416    
  0.2174141728384504    0.21620165966523425    0.21266252993457893    0.20708760780210325    0.199938491523056    
  0.19179346749983484    0.18326221224452122    0.1748983268081462    0.16714517524403222    0.1603255530818098    
  0.1722112838822522    0.16714517524403205    0.16311063442398155    0.16018668663251479    0.15841655360098303    
  0.15782382054439628    0.15841655360098303    0.1601866866325147    0.16311063442398158    0.16714517524403205    
  0.17221128388225213    0.17817002918229846    0.18480020218183763    0.19178333937812872    0.19870313858444744    
  0.20507187724533202    0.21038780925255823    0.21420657661766113    0.21620165966523416    0.21620165966523422    
  0.21420657661766107    0.2103878092525583    0.20507187724533205    0.1987031385844474    0.19178333937812878    
  0.1848002021818377    0.17817002918229852    0.1722112838822522    0.18220856187828227    0.17817002918229832    
  0.17489832680814585    0.1724511417970977    0.1708353438325879    0.1700347459317193    0.17003474593171927    
  0.17083534383258786    0.17245114179709767    0.17489832680814588    0.17817002918229832    0.1822085618782823    
  0.18688619322739866    0.191998113402517    0.19726397200167672    0.2023387406522763    0.2068393320724619    
  0.21038780925255812    0.21266252993457893    0.2134463922411598    0.21266252993457888    0.21038780925255826    
  0.20683933207246194    0.2023387406522764    0.1972639720016768    0.19199811340251707    0.18688619322739863    
  0.18220856187828227    0.18948872105919212    0.18688619322739847    0.1848002021818372    0.18326221224452063    
  0.18224245403977637    0.18167433093509436    0.18149366499006855    0.18167433093509427    0.1822424540397764    
  0.18326221224452063    0.18480020218183724    0.18688619322739838    0.18948872105919212    0.19251154505779247    
  0.19580185907543324    0.19915849531995977    0.2023387406522763    0.20507187724533202    0.2070876078021032    
  0.20816054109979973    0.20816054109979973    0.20708760780210314    0.20507187724533205    0.20233874065227633    
  0.19915849531995986    0.1958018590754333    0.1925115450577925    0.18948872105919212    0.19334191916144366    
  0.19251154505779225    0.19199811340251655    0.191783339378128    0.19179346749983403    0.191910347920938    
  0.19200913370274184    0.19200913370274172    0.19191034792093797    0.19179346749983409    0.19178333937812797    
  0.19199811340251652    0.19251154505779228    0.19334191916144375    0.1944605236279147    0.1958018590754333    
  0.19726397200167672    0.19870313858444738    0.1999384915230559    0.2007802110797137    0.2010796935757742    
  0.20078021107971372    0.19993849152305596    0.1987031385844474    0.19726397200167675    0.19580185907543324    
  0.19446052362791452    0.19334191916144366    0.1933419191614437    0.19446052362791424    0.19580185907543274    
  0.197263972001676    0.1987031385844465    0.19993849152305493    0.20078021107971267    0.20107969357577313    
  0.20078021107971267    0.19993849152305498    0.1987031385844465    0.19726397200167603    0.19580185907543285    
  0.19446052362791438    0.19334191916144375    0.1925115450577925    0.19199811340251702    0.1917833393781287    
  0.1917934674998348    0.19191034792093878    0.1920091337027427    0.19200913370274267    0.1919103479209388    
  0.19179346749983478    0.19178333937812864    0.19199811340251705    0.1925115450577925    0.1933419191614437    
  0.18948872105919212    0.19251154505779225    0.1958018590754327    0.19915849531995902    0.2023387406522754    
  0.2050718772453309    0.20708760780210195    0.20816054109979848    0.2081605410997985    0.20708760780210192    
  0.2050718772453309    0.20233874065227542    0.19915849531995902    0.1958018590754328    0.19251154505779228    
  0.18948872105919215    0.18688619322739858    0.18480020218183763    0.1832622122445212    0.182242454039777    
  0.18167433093509489    0.18149366499006925    0.18167433093509502    0.182242454039777    0.1832622122445212    
  0.18480020218183768    0.18688619322739863    0.18948872105919212    0.18220856187828224    0.18688619322739838    
  0.19199811340251655    0.19726397200167597    0.20233874065227536    0.20683933207246075    0.21038780925255698    
  0.2126625299345775    0.2134463922411585    0.21266252993457752    0.21038780925255698    0.20683933207246075    
  0.20233874065227542    0.197263972001676    0.19199811340251655    0.18688619322739852    0.18220856187828233    
  0.1781700291822985    0.1748983268081461    0.1724511417970982    0.1708353438325884    0.17003474593171972    
  0.17003474593171977    0.17083534383258836    0.17245114179709814    0.17489832680814615    0.1781700291822985    
  0.18220856187828224    0.1722112838822521    0.17817002918229827    0.1848002021818371    0.19178333937812803    
  0.1987031385844465    0.20507187724533085    0.21038780925255693    0.21420657661765963    0.21620165966523266    
  0.21620165966523266    0.21420657661765963    0.21038780925255693    0.2050718772453309    0.19870313858444652    
  0.19178333937812805    0.18480020218183726    0.17817002918229838    0.17221128388225215    0.16714517524403222    
  0.16311063442398183    0.16018668663251512    0.15841655360098336    0.15782382054439667    0.1584165536009833    
  0.16018668663251504    0.1631106344239818    0.16714517524403216    0.1722112838822521    0.16032555308180965    
  0.16714517524403205    0.17489832680814577    0.18326221224452052    0.191793467499834    0.19993849152305493    
  0.20708760780210195    0.2126625299345775    0.21620165966523272    0.21741417283844888    0.2162016596652326    
  0.2126625299345775    0.20708760780210195    0.19993849152305496    0.19179346749983403    0.18326221224452066    
  0.17489832680814585    0.16714517524403205    0.16032555308180982    0.15465965224829775    0.15029310648677732    
  0.14732431608373492    0.14582113253418244    0.14582113253418247    0.14732431608373492    0.1502931064867772    
  0.1546596522482977    0.16032555308180965    0.1474095218321602    0.15465965224829753    0.1631106344239815    
  0.1724511417970977    0.18224245403977632    0.19191034792093795    0.20078021107971258    0.20816054109979842    
  0.21344639224115844    0.21620165966523266    0.21620165966523266    0.21344639224115836    0.20816054109979845    
  0.20078021107971264    0.19191034792093795    0.18224245403977635    0.17245114179709772    0.16311063442398158    
  0.15465965224829764    0.14740952183216033    0.14157304477011023    0.13729673792253647    0.13468483934142453    
  0.13380591178601695    0.13468483934142453    0.13729673792253647    0.14157304477011015    0.1474095218321602    
  0.13431649734219678    0.1415730447701101    0.15029310648677702    0.1601866866325147    0.17083534383258778    
  0.18167433093509427    0.1920091337027418    0.2010796935757731    0.2081605410997984    0.21266252993457752    
  0.21420657661765957    0.2126625299345775    0.2081605410997985    0.20107969357577316    0.19200913370274178    
  0.18167433093509433    0.17083534383258797    0.16018668663251467    0.15029310648677716    0.14157304477011015    
  0.1343164973421968    0.12871801973425132    0.1249097630463701    0.12298141443710066    0.12298141443710066    
  0.12490976304637011    0.12871801973425118    0.13431649734219678    0.12184098570202082    0.12871801973425115    
  0.13729673792253624    0.1473243160837346    0.1584165536009829    0.17003474593171913    0.18149366499006855    
  0.19200913370274167    0.20078021107971253    0.20708760780210192    0.2103878092525569    0.21038780925255685    
  0.20708760780210192    0.20078021107971253    0.19200913370274172    0.18149366499006855    0.17003474593171924    
  0.158416553600983    0.14732431608373472    0.13729673792253633    0.1287180197342512    0.12184098570202087    
  0.11682571450456651    0.11377481454298144    0.11275058612424788    0.11377481454298145    0.11682571450456643    
  0.12184098570202082    0.11063185342117886    0.11682571450456643    0.12490976304636996    0.13468483934142428    
  0.1458211325341822    0.15782382054439617    0.17003474593171913    0.18167433093509422    0.19191034792093786    
  0.19993849152305487    0.20507187724533074    0.20683933207246064    0.2050718772453308    0.19993849152305487    
  0.19191034792093795    0.18167433093509422    0.17003474593171922    0.15782382054439623    0.14582113253418222    
  0.13468483934142436    0.12490976304636997    0.1168257145045665    0.11063185342117893    0.10644463075887312    
  0.10433346664858192    0.10433346664858195    0.10644463075887307    0.11063185342117886    0.10113252172389138    
  0.10644463075887307    0.11377481454298134    0.12298141443710049    0.13380591178601675    0.14582113253418214    
  0.15841655360098295    0.17083534383258778    0.18224245403977626    0.191793467499834    0.19870313858444638    
  0.2023387406522753    0.20233874065227533    0.1987031385844465    0.19179346749983406    0.18224245403977632    
  0.17083534383258792    0.15841655360098297    0.14582113253418222    0.13380591178601686    0.12298141443710059    
  0.11377481454298145    0.10644463075887305    0.10113252172389142    0.09791636862373648    0.09683941117889182    
  0.0979163686237365    0.10113252172389138    0.09359503626709789    0.09791636862373647    0.10433346664858185    
  0.11275058612424779    0.12298141443710049    0.13468483934142433    0.1473243160837346    0.16018668663251476    
  0.17245114179709772    0.18326221224452058    0.191783339378128    0.19726397200167595    0.1991584953199589    
  0.19726397200167592    0.191783339378128    0.1832622122445206    0.17245114179709764    0.16018668663251473    
  0.1473243160837347    0.1346848393414244    0.12298141443710053    0.11275058612424779    0.10433346664858197    
  0.0979163686237365    0.09359503626709798    0.09142155656969864    0.09142155656969858    0.09359503626709789    
  0.08814656166998522    0.09142155656969858    0.09683941117889176    0.10433346664858187    0.11377481454298137    
  0.12490976304636996    0.13729673792253627    0.15029310648677702    0.16311063442398158    0.17489832680814582    
  0.1848002021818372    0.1919981134025165    0.19580185907543274    0.19580185907543274    0.19199811340251652    
  0.18480020218183724    0.1748983268081459    0.16311063442398147    0.1502931064867771    0.1372967379225364    
  0.12490976304637    0.11377481454298144    0.10433346664858195    0.09683941117889179    0.0914215565696986    
  0.08814656166998526    0.0870507701009582    0.08814656166998522    0.08485322473571037    0.08705077010095826    
  0.09142155656969858    0.09791636862373647    0.106444630758873    0.11682571450456643    0.12871801973425118    
  0.1415730447701101    0.1546596522482975    0.16714517524403205    0.17817002918229827    0.1868861932273984    
  0.19251154505779222    0.1944605236279143    0.1925115450577922    0.18688619322739844    0.17817002918229835    
  0.16714517524403205    0.15465965224829756    0.14157304477011015    0.12871801973425123    0.11682571450456647    
  0.1064446307588731    0.09791636862373648    0.09142155656969864    0.0870507701009583    0.08485322473571037    
  0.08485322473571037    0.08375132786216648    0.08485322473571034    0.08814656166998516    0.09359503626709792    
  0.10113252172389135    0.11063185342117887    0.12184098570202084    0.13431649734219678    0.14740952183216033    
  0.1603255530818098    0.17221128388225213    0.18220856187828222    0.18948872105919212    0.19334191916144366    
  0.1933419191614437    0.18948872105919212    0.18220856187828227    0.1722112838822521    0.1603255530818098    
  0.14740952183216027    0.13431649734219678    0.12184098570202087    0.11063185342117897    0.10113252172389142    
  0.09359503626709795    0.0881465616699852    0.08485322473571037    0.08375132786216648    0.08490580023208423    
  0.08603021326502502    0.08938874598016737    0.09493906662665286    0.10260787312476728    0.11226247486968519    
  0.1236485237608428    0.13632216407886533    0.1496310833691787    0.16276891559589118    0.17486174422767548    
  0.18502889937379255    0.1924260870644356    0.19633780605648937    0.19633780605648932    0.1924260870644356    
  0.18502889937379258    0.1748617442276755    0.16276891559589124    0.1496310833691787    0.13632216407886533    
  0.12364852376084287    0.11226247486968526    0.10260787312476734    0.09493906662665288    0.08938874598016743    
  0.08603021326502502    0.08490580023208423    0.08603021326502502    0.08603021326502505    0.08815593792887268    
  0.09238534278467615    0.09867393308133245    0.1069372598158134    0.1170006588699196    0.12852929903755939    
  0.14098624823761483    0.15365973963171503    0.1657429618609021    0.17640524193323973    0.184828837177231    
  0.19026192314121454    0.19214355552416523    0.19026192314121454    0.18482883717723098    0.17640524193323973    
  0.16574296186090207    0.153659739631715    0.1409862482376148    0.12852929903755944    0.1170006588699196    
  0.1069372598158134    0.0986739330813325    0.09238534278467618    0.08815593792887265    0.08603021326502502    
  0.0893887459801674    0.08838727999396535    0.08938874598016738    0.09238534278467615    0.09735376151589421    
  0.1042455301527898    0.11294944211551092    0.12322678463696894    0.13465505798443145    0.1466270576254114    
  0.15841265890018283    0.16923583301761505    0.1783202368136877    0.1849217546496023    0.18840997613615645    
  0.18840997613615643    0.18492175464960237    0.17832023681368764    0.169235833017615    0.1584126589001828    
  0.1466270576254114    0.1346550579844316    0.12322678463696904    0.11294944211551092    0.1042455301527898    
  0.09735376151589428    0.09238534278467614    0.0893887459801674    0.09493906662665283    0.09306651645388085    
  0.09306651645388082    0.09493906662665286    0.09867393308133242    0.10424553015278978    0.11158748019665134    
  0.12053916090075316    0.1307858036363142    0.1418344207992271    0.1530487024162613    0.16371796902178234    
  0.17311294150977685    0.1805180984504499    0.18528338424441962    0.18693130001378236    0.18528338424441967    
  0.18051809845044994    0.1731129415097768    0.16371796902178237    0.1530487024162614    0.14183442079922715    
  0.1307858036363143    0.12053916090075324    0.11158748019665148    0.10424553015278978    0.09867393308133243    
  0.09493906662665283    0.1026078731247673    0.10000124367701808    0.09913115576106866    0.10000124367701804    
  0.10260787312476728    0.1069372598158134    0.11294944211551089    0.12053916090075313    0.12948282467628458    
  0.1394024315453816    0.14977347024388246    0.15997185703804093    0.16932769704336786    0.17716471192286923    
  0.18284251049629419    0.18583404321728428    0.18583404321728428    0.18284251049629413    0.17716471192286917    
  0.16932769704336786    0.15997185703804098    0.1497734702438826    0.13940243154538165    0.1294828246762847    
  0.12053916090075324    0.11294944211551092    0.10693725981581335    0.1026078731247673    0.11226247486968519    
  0.10908302280961124    0.10748902237505172    0.10748902237505172    0.10908302280961116    0.11226247486968516    
  0.11700065886991963    0.12322678463696893    0.1307858036363142    0.1394024315453816    0.14867105687452536    
  0.15807642532201166    0.16703076620122564    0.1749125438412164    0.18110974591540197    0.18508335275435397    
  0.18645387312297007    0.18508335275435392    0.18110974591540197    0.17491254384121632    0.16703076620122564    
  0.15807642532201177    0.14867105687452545    0.1394024315453817    0.1307858036363143    0.12322678463696904    
  0.11700065886991957    0.11226247486968519    0.12364852376084286    0.12011848505348675    0.11798807711104518    
  0.11727632795838785    0.11798807711104516    0.1201184850534867    0.12364852376084279    0.1285292990375593    
  0.1346550579844315    0.1418344207992271    0.1497734702438825    0.15807642532201163    0.1662604950865886    
  0.1737821365907943    0.1800780595731045    0.18462474366683185    0.1870116878505687    0.1870116878505687    
  0.1846247436668318    0.18007805957310455    0.1737821365907943    0.16626049508658872    0.1580764253220117    
  0.14977347024388252    0.14183442079922723    0.13465505798443156    0.1285292990375594    0.12364852376084286    
  0.13632216407886535    0.1327571985046381    0.13035715236452725    0.12915181113340665    0.12915181113340665    
  0.13035715236452725    0.1327571985046381    0.1363221640788653    0.14098624823761474    0.14662705762541134    
  0.15304870241626126    0.15997185703804087    0.16703076620122556    0.1737821365907943    0.17973572857826092    
  0.18440919208323744    0.18739520416575606    0.1884222635139906    0.18739520416575606    0.1844091920832375    
  0.17973572857826098    0.1737821365907943    0.16703076620122564    0.15997185703804095    0.15304870241626142    
  0.14662705762541148    0.14098624823761483    0.13632216407886535    0.14963108336917877    0.146435227012345    
  0.14413129307239117    0.1427444701253363    0.1422818831490036    0.1427444701253363    0.14413129307239114    
  0.14643522701234493    0.14963108336917863    0.15365973963171492    0.1584126589001827    0.16371796902178223    
  0.16932769704336786    0.1749125438412163    0.18007805957310452    0.18440919208323744    0.18753137895551206    
  0.189166000266225    0.18916600026622507    0.18753137895551214    0.18440919208323747    0.18007805957310458    
  0.17491254384121635    0.1693276970433679    0.16371796902178246    0.1584126589001829    0.15365973963171503    
  0.14963108336917877    0.1627689155958912    0.16038576184124487    0.15861840794419674    0.15745988961946647    
  0.1568890393423044    0.15688903934230441    0.1574598896194664    0.1586184079441967    0.16038576184124492    
  0.16276891559589116    0.16574296186090198    0.16923583301761486    0.1731129415097768    0.1771647119228691    
  0.18110974591540188    0.18462474366683174    0.187395204165756    0.18916600026622496    0.18977468913922146    
  0.1891660002662251    0.18739520416575606    0.18462474366683185    0.18110974591540205    0.17716471192286917    
  0.17311294150977688    0.169235833017615    0.1657429618609021    0.1627689155958912    0.17486174422767553    
  0.17371559403619824    0.17294189463000006    0.17247866164744435    0.1722466098090124    0.172178163061712    
  0.17224660980901244    0.17247866164744435    0.17294189463000012    0.1737155940361982    0.17486174422767553    
  0.17640524193323961    0.1783202368136876    0.18051809845044983    0.18284251049629408    0.18508335275435386    
  0.18701168785056874    0.18842226351399058    0.189166000266225    0.189166000266225    0.18842226351399063    
  0.18701168785056874    0.18508335275435395    0.18284251049629408    0.18051809845044997    0.17832023681368775    
  0.17640524193323975    0.17486174422767553    0.1850288993737926    0.1854904052030269    0.18613154620435393    
  0.18682653319286807    0.18742049813867243    0.18776430847257727    0.18776430847257725    0.18742049813867243    
  0.18682653319286802    0.1861315462043539    0.1854904052030269    0.18502889937379258    0.18482883717723098    
  0.18492175464960225    0.18528338424441954    0.18583404321728414    0.18645387312296996    0.1870116878505686    
  0.187395204165756    0.187531378955512    0.18739520416575597    0.1870116878505687    0.18645387312297004    
  0.18583404321728422    0.18528338424441965    0.1849217546496023    0.18482883717723095    0.1850288993737926    
  0.1924260870644356    0.19479219542288057    0.19720680144879493    0.19947399678174538    0.20135992202599126    
  0.20262147288471216    0.20306663217924395    0.2026214728847121    0.20135992202599118    0.1994739967817453    
  0.197206801448795    0.19479219542288048    0.19242608706443556    0.19026192314121446    0.18840997613615634    
  0.18693130001378228    0.18583404321728414    0.18508335275435386    0.18462474366683176    0.1844091920832374    
  0.18440919208323736    0.1846247436668317    0.18508335275435395    0.1858340432172842    0.18693130001378236    
  0.18840997613615637    0.19026192314121454    0.1924260870644356    0.19633780605648937    0.20078781117888453    
  0.2052453513587031    0.209425548919979    0.21300826335135611    0.21565642712339123    0.21707083427751847    
  0.2170708342775184    0.21565642712339123    0.21300826335135611    0.20942554891997892    0.20524535135870306    
  0.20078781117888456    0.1963378060564894    0.19214355552416534    0.18840997613615637    0.18528338424441954    
  0.18284251049629405    0.18110974591540188    0.18007805957310447    0.17973572857826087    0.18007805957310452    
  0.18110974591540197    0.18284251049629405    0.18528338424441962    0.18840997613615637    0.19214355552416523    
  0.19633780605648937    0.19633780605648934    0.20286316071285884    0.20948663998324255    0.21581158978000495    
  0.22140919769644143    0.22583896558024813    0.22869559442883627    0.22968416463654626    0.22869559442883627    
  0.22583896558024819    0.22140919769644138    0.21581158978000495    0.20948663998324263    0.20286316071285895    
  0.1963378060564894    0.19026192314121446    0.18492175464960225    0.18051809845044992    0.17716471192286906    
  0.17491254384121627    0.17378213659079422    0.1737821365907942    0.17491254384121627    0.1771647119228691    
  0.18051809845044986    0.18492175464960228    0.19026192314121454    0.19633780605648934    0.19242608706443556    
  0.20078781117888456    0.20948663998324255    0.21801566015680587    0.2258174304710371    0.23232308933325405    
  0.23700856035410678    0.23946449513880208    0.23946449513880208    0.23700856035410672    0.23232308933325402    
  0.2258174304710371    0.21801566015680582    0.2094866399832426    0.2007878111788845    0.1924260870644356    
  0.18482883717723092    0.17832023681368758    0.17311294150977674    0.16932769704336778    0.16703076620122553    
  0.16626049508658855    0.16703076620122562    0.16932769704336778    0.17311294150977682    0.17832023681368767    
  0.18482883717723092    0.19242608706443556    0.18502889937379255    0.1947921954228805    0.2052453513587031    
  0.21581158978000495    0.2258174304710371    0.23454982478583206    0.24133875043795147    0.24564372126707032    
  0.24711827222765798    0.24564372126707032    0.24133875043795147    0.23454982478583208    0.22581743047103717    
  0.215811589780005    0.20524535135870306    0.19479219542288057    0.1850288993737926    0.17640524193323967    
  0.1692358330176149    0.1637179690217823    0.15997185703804093    0.15807642532201166    0.15807642532201163    