#     DFTpy    
  CRYSTAL 
    
  PRIMVEC    
  1.3419804012648402    -2.3243782377523803    0.0    
  1.3419804012648402    2.3243782377523803    0.0    
  0.0    0.0    4.537346989103451    
  PRIMCOORD    
  2    1    
  Si    1.3419804012648402    0.7747927459174601    1.1343367472758603    
  Si    1.3419804012648402    -0.7747927459174601    3.4030102418275905    
  BEGIN_BLOCK_DATAGRID_3D    
  3d_datagrid_density    
  BEGIN_DATAGRID_3D#0    
  26    26    49    
  0.0    0.0    0.0    
  1.3419804062704528    -2.3243782464223557    0.0    
  1.3419804062704528    2.3243782464223557    0.0    
  0.0    0.0    4.537347006027842    
  0.12689796450032775    0.1287478990983428    0.13425713957698532    0.14328625758950492    0.15555503215630573    
  0.1706013879646035    0.187757733753583    0.2061373503424044    0.2246203116046671    0.24186897620730316    
  0.25643730006045934    0.2669872906671653    0.27252136770257274    0.2725213677025728    0.26698729066716526    
  0.25643730006045934    0.24186897620730313    0.22462031160466714    0.20613735034240435    0.18775773375358304    
  0.1706013879646035    0.15555503215630576    0.14328625758950492    0.13425713957698535    0.1287478990983428    
  0.12689796450032775    0.1287478990983427    0.1287478990983428    0.1324278225368724    0.13969952554292678    
  0.15035606438853452    0.16402903868747484    0.1801564079408557    0.19796596076760795    0.21646154014905397    
  0.23441713405126335    0.25043043354495137    0.26308654101131856    0.2711948444887229    0.27398500362905165    
  0.27119484448872294    0.2630865410113184    0.25043043354495137    0.2344171340512633    0.21646154014905397    
  0.19796596076760806    0.18015640794085563    0.16402903868747487    0.1503560643885346    0.13969952554292678    
  0.1324278225368724    0.1287478990983427    0.1342571395769853    0.13242782253687238    0.13425713957698532    
  0.13969952554292672    0.14860451793487636    0.16068295576204483    0.17547138347952507    0.1923094259465145    
  0.21032716827726142    0.22843437730498647    0.2453354549431531    0.25962672910290185    0.26999474890874053    
  0.2754424217859711    0.27544242178597106    0.26999474890874053    0.2596267291029018    0.24533545494315298    
  0.22843437730498645    0.21032716827726153    0.19230942594651448    0.17547138347952507    0.16068295576204483    
  0.14860451793487636    0.13969952554292678    0.1342571395769853    0.1432862575895049    0.13969952554292678    
  0.13969952554292675    0.14328625758950486    0.15035606438853458    0.16068295576204483    0.1738885701203458    
  0.18941497922655653    0.206509977924671    0.22422008240037117    0.24139145936523615    0.2567133835433795    
  0.2688500575436691    0.27664823435399916    0.27933715423356453    0.2766482343539991    0.26885005754366903    
  0.25671338354337936    0.24139145936523615    0.22422008240037125    0.20650997792467107    0.18941497922655665    
  0.1738885701203458    0.1606829557620449    0.1503560643885346    0.1432862575895049    0.1555550321563057    
  0.1503560643885346    0.14860451793487633    0.15035606438853455    0.15555503215630573    0.1640290386874748    
  0.17547138347952507    0.18941497922655653    0.20521242857893215    0.22203169465048614    0.23886167810407058    
  0.25453204462457596    0.26778312482862676    0.2774157747015343    0.2824891689410172    0.2824891689410171    
  0.2774157747015344    0.2677831248286267    0.2545320446245758    0.2388616781040707    0.2220316946504861    
  0.20521242857893218    0.1894149792265566    0.175471383479525    0.1640290386874749    0.1555550321563057    
  0.17060138796460347    0.16402903868747484    0.16068295576204486    0.16068295576204486    0.16402903868747482    
  0.1706013879646035    0.18015640794085563    0.19230942594651454    0.206509977924671    0.2220316946504861    
  0.23798511256229754    0.2533420977528699    0.26697619179706117    0.27775141564230393    0.2846735583091535    
  0.28706154526283034    0.2846735583091535    0.2777514156423039    0.26697619179706117    0.25334209775286987    
  0.2379851125622976    0.22203169465048606    0.20650997792467107    0.19230942594651457    0.18015640794085572    
  0.17060138796460347    0.18775773375358293    0.18015640794085566    0.17547138347952504    0.17388857012034575    
  0.17547138347952496    0.1801564079408556    0.18775773375358298    0.19796596076760797    0.2103271682772614    
  0.22422008240037117    0.23886167810407058    0.25334209775286987    0.26667002695787245    0.2778324815027837    
  0.28589273801728865    0.2901222107585718    0.29012221075857186    0.2858927380172885    0.2778324815027838    
  0.2666700269578725    0.25334209775286987    0.2388616781040707    0.22422008240037117    0.21032716827726156    
  0.197965960767608    0.18775773375358293    0.20613735034240435    0.197965960767608    0.1923094259465146    
  0.1894149792265567    0.18941497922655678    0.1923094259465145    0.197965960767608    0.20613735034240432    
  0.21646154014905397    0.2284343773049864    0.24139145936523612    0.25453204462457585    0.26697619179706106    
  0.27783248150278367    0.2862749046093155    0.29163183779763807    0.29346754860085605    0.29163183779763796    
  0.2862749046093153    0.27783248150278383    0.26697619179706117    0.2545320446245759    0.2413914593652362    
  0.22843437730498653    0.21646154014905405    0.20613735034240435    0.2246203116046671    0.21646154014905405    
  0.2103271682772617    0.20650997792467124    0.20521242857893246    0.20650997792467118    0.2103271682772617    
  0.21646154014905397    0.22462031160466714    0.23441713405126335    0.24533545494315304    0.2567133835433794    
  0.2677831248286267    0.277751415642304    0.28589273801728854    0.29163183779763807    0.29459100654909365    
  0.29459100654909354    0.29163183779763807    0.2858927380172886    0.2777514156423039    0.2677831248286268    
  0.25671338354337947    0.24533545494315318    0.23441713405126338    0.2246203116046671    0.24186897620730302    
  0.23441713405126355    0.22843437730498686    0.22422008240037145    0.22203169465048653    0.22203169465048647    
  0.22422008240037145    0.22843437730498672    0.23441713405126355    0.24186897620730313    0.25043043354495126    
  0.2596267291029018    0.26885005754366903    0.2774157747015343    0.28467355830915336    0.29012221075857175    
  0.29346754860085605    0.2945910065490935    0.2934675486008559    0.2901222107585718    0.28467355830915336    
  0.2774157747015343    0.26885005754366903    0.2596267291029018    0.25043043354495126    0.24186897620730302    
  0.25643730006045934    0.2504304335449514    0.24533545494315345    0.24139145936523662    0.23886167810407116    
  0.23798511256229812    0.23886167810407125    0.24139145936523668    0.24533545494315337    0.25043043354495154    
  0.2564373000604593    0.2630865410113185    0.26999474890874037    0.27664823435399905    0.2824891689410171    
  0.28706154526283034    0.2901222107585718    0.29163183779763796    0.29163183779763807    0.2901222107585718    
  0.28706154526283034    0.28248916894101717    0.2766482343539991    0.2699947489087406    0.2630865410113185    
  0.25643730006045934    0.2669872906671652    0.2630865410113187    0.25962672910290213    0.2567133835433801    
  0.25453204462457657    0.2533420977528705    0.25334209775287064    0.2545320446245765    0.25671338354338    
  0.25962672910290235    0.2630865410113188    0.26698729066716526    0.27119484448872283    0.275442421785971    
  0.2793371542335645    0.2824891689410171    0.2846735583091534    0.2858927380172885    0.2862749046093153    
  0.2858927380172885    0.28467355830915336    0.2824891689410171    0.2793371542335645    0.2754424217859711    
  0.2711948444887229    0.2669872906671652    0.27252136770257274    0.2711948444887232    0.2699947489087411    
  0.2688500575436698    0.2677831248286276    0.26697619179706217    0.2666700269578734    0.266976191797062    
  0.26778312482862754    0.2688500575436698    0.2699947489087411    0.2711948444887233    0.2725213677025728    
  0.27398500362905154    0.2754424217859711    0.2766482343539991    0.2774157747015342    0.2777514156423038    
  0.2778324815027836    0.27783248150278367    0.2777514156423038    0.27741577470153433    0.27664823435399905    
  0.2754424217859711    0.27398500362905154    0.27252136770257274    0.27252136770257274    0.27398500362905187    
  0.2754424217859716    0.27664823435399993    0.2774157747015353    0.277751415642305    0.2778324815027849    
  0.2778324815027848    0.27775141564230493    0.27741577470153533    0.27664823435399993    0.2754424217859718    
  0.2739850036290519    0.2725213677025728    0.2711948444887229    0.2699947489087404    0.2688500575436691    
  0.26778312482862665    0.26697619179706106    0.26667002695787245    0.26697619179706106    0.26778312482862676    
  0.26885005754366903    0.26999474890874053    0.2711948444887229    0.27252136770257274    0.2669872906671652    
  0.2711948444887231    0.2754424217859715    0.2793371542335652    0.2824891689410181    0.28467355830915453    
  0.2858927380172897    0.28627490460931654    0.2858927380172897    0.2846735583091546    0.2824891689410181    
  0.27933715423356525    0.27544242178597167    0.2711948444887232    0.26698729066716526    0.26308654101131845    
  0.2596267291029018    0.25671338354337936    0.25453204462457574    0.2533420977528698    0.2533420977528698    
  0.2545320446245758    0.25671338354337936    0.25962672910290174    0.2630865410113184    0.2669872906671652    
  0.2564373000604593    0.26308654101131873    0.26999474890874103    0.2766482343539999    0.2824891689410181    
  0.28706154526283145    0.29012221075857303    0.2916318377976394    0.2916318377976393    0.29012221075857314    
  0.2870615452628315    0.2824891689410182    0.27664823435399993    0.2699947489087411    0.2630865410113189    
  0.25643730006045934    0.25043043354495137    0.24533545494315295    0.2413914593652362    0.23886167810407058    
  0.23798511256229754    0.23886167810407058    0.24139145936523615    0.2453354549431531    0.25043043354495126    
  0.2564373000604593    0.24186897620730302    0.2504304335449514    0.25962672910290224    0.2688500575436698    
  0.2774157747015352    0.2846735583091545    0.29012221075857303    0.29346754860085705    0.2945910065490948    
  0.2934675486008573    0.29012221075857303    0.28467355830915453    0.27741577470153533    0.2688500575436698    
  0.25962672910290235    0.2504304335449515    0.24186897620730316    0.2344171340512633    0.22843437730498647    
  0.22422008240037117    0.2220316946504861    0.22203169465048606    0.22422008240037117    0.22843437730498645    
  0.2344171340512633    0.24186897620730302    0.2246203116046671    0.2344171340512635    0.24533545494315345    
  0.25671338354338014    0.2677831248286276    0.27775141564230493    0.28589273801728965    0.2916318377976393    
  0.2945910065490948    0.29459100654909487    0.2916318377976394    0.28589273801728976    0.27775141564230504    
  0.26778312482862765    0.2567133835433802    0.2453354549431534    0.23441713405126358    0.22462031160466725    
  0.216461540149054    0.21032716827726158    0.20650997792467105    0.20521242857893215    0.20650997792467102    
  0.21032716827726144    0.21646154014905386    0.2246203116046671    0.20613735034240435    0.21646154014905397    
  0.22843437730498664    0.2413914593652366    0.25453204462457657    0.266976191797062    0.2778324815027848    
  0.2862749046093164    0.2916318377976393    0.29346754860085716    0.2916318377976393    0.28627490460931665    
  0.2778324815027848    0.26697619179706206    0.25453204462457657    0.24139145936523662    0.22843437730498678    
  0.216461540149054    0.20613735034240435    0.19796596076760806    0.19230942594651454    0.18941497922655662    
  0.18941497922655648    0.19230942594651446    0.19796596076760795    0.20613735034240435    0.18775773375358293    
  0.19796596076760792    0.21032716827726156    0.2242200824003714    0.238861678104071    0.2533420977528705    
  0.2666700269578734    0.2778324815027847    0.28589273801728965    0.2901222107585731    0.2901222107585729    
  0.2858927380172897    0.2778324815027848    0.2666700269578734    0.25334209775287064    0.2388616781040711    
  0.22422008240037153    0.21032716827726164    0.19796596076760806    0.187757733753583    0.18015640794085572    
  0.17547138347952512    0.1738885701203458    0.17547138347952504    0.18015640794085566    0.18775773375358293    
  0.17060138796460342    0.18015640794085563    0.19230942594651454    0.20650997792467116    0.22203169465048642    
  0.237985112562298    0.25334209775287053    0.266976191797062    0.2777514156423049    0.28467355830915453    
  0.28706154526283145    0.28467355830915453    0.27775141564230493    0.26697619179706206    0.2533420977528706    
  0.23798511256229812    0.22203169465048647    0.20650997792467118    0.19230942594651462    0.18015640794085572    
  0.17060138796460356    0.16402903868747487    0.16068295576204483    0.16068295576204483    0.16402903868747484    
  0.17060138796460342    0.1555550321563057    0.16402903868747484    0.17547138347952498    0.18941497922655665    
  0.2052124285789323    0.22203169465048642    0.23886167810407105    0.25453204462457646    0.2677831248286275    
  0.2774157747015352    0.2824891689410181    0.2824891689410181    0.27741577470153517    0.26778312482862754    
  0.25453204462457657    0.2388616781040711    0.22203169465048653    0.20521242857893235    0.18941497922655676    
  0.17547138347952504    0.16402903868747484    0.15555503215630578    0.1503560643885346    0.14860451793487636    
  0.1503560643885346    0.1555550321563057    0.14328625758950495    0.1503560643885346    0.16068295576204483    
  0.17388857012034573    0.18941497922655667    0.20650997792467118    0.2242200824003715    0.2413914593652366    
  0.25671338354337997    0.26885005754366975    0.2766482343539999    0.2793371542335653    0.2766482343539999    
  0.26885005754366975    0.25671338354338014    0.24139145936523662    0.2242200824003714    0.20650997792467116    
  0.18941497922655667    0.17388857012034584    0.16068295576204492    0.15035606438853466    0.14328625758950495    
  0.1396995255429268    0.1396995255429268    0.14328625758950495    0.1342571395769853    0.13969952554292678    
  0.14860451793487636    0.16068295576204483    0.17547138347952512    0.1923094259465146    0.21032716827726167    
  0.22843437730498672    0.24533545494315337    0.25962672910290224    0.26999474890874103    0.27544242178597167    
  0.2754424217859716    0.269994748908741    0.25962672910290224    0.24533545494315337    0.22843437730498672    
  0.21032716827726156    0.19230942594651457    0.17547138347952507    0.16068295576204486    0.14860451793487642    
  0.13969952554292675    0.13425713957698535    0.13242782253687246    0.1342571395769853    0.12874789909834275    
  0.1324278225368724    0.13969952554292675    0.15035606438853455    0.16402903868747487    0.18015640794085566    
  0.197965960767608    0.21646154014905397    0.2344171340512635    0.25043043354495154    0.26308654101131873    
  0.2711948444887232    0.27398500362905187    0.27119484448872316    0.2630865410113188    0.2504304335449514    
  0.23441713405126355    0.21646154014905397    0.19796596076760803    0.18015640794085572    0.16402903868747482    
  0.15035606438853463    0.13969952554292678    0.13242782253687244    0.1287478990983428    0.12874789909834275    
  0.12689796450032775    0.1287478990983428    0.13425713957698532    0.14328625758950492    0.15555503215630573    
  0.1706013879646035    0.187757733753583    0.2061373503424044    0.2246203116046671    0.24186897620730316    
  0.25643730006045934    0.2669872906671653    0.27252136770257274    0.2725213677025728    0.26698729066716526    
  0.25643730006045934    0.24186897620730313    0.22462031160466714    0.20613735034240435    0.18775773375358304    
  0.1706013879646035    0.15555503215630576    0.14328625758950492    0.13425713957698535    0.1287478990983428    
  0.12689796450032775    0.12864765017933685    0.1305135584078918    0.13606936494952074    0.14517365623618908    
  0.1575465616436651    0.17272719701401879    0.1900442070386618    0.2085983176703665    0.2272512709651607    
  0.24464867585310124    0.25933412456228955    0.2699646899015658    0.2755399762334342    0.2755399762334343    
  0.2699646899015658    0.2593341245622895    0.2446486758531012    0.22725127096516068    0.2085983176703665    
  0.19004420703866184    0.17272719701401879    0.15754656164366512    0.14517365623618908    0.13606936494952074    
  0.13051355840789178    0.12864765017933685    0.1305135584078917    0.13051355840789178    0.13409439766812478    
  0.14116556631203198    0.15151676151617113    0.16477921824831715    0.18039946815892569    0.19762729673265297    
  0.2155023313638139    0.2328450229700147    0.24830545358958916    0.26052088952476005    0.2683450694810324    
  0.2710371060480388    0.2683450694810324    0.26052088952476    0.24830545358958905    0.23284502297001455    
  0.2155023313638139    0.197627296732653    0.1803994681589256    0.1647792182483172    0.1515167615161712    
  0.141165566312032    0.13409439766812478    0.1305135584078917    0.13606936494952068    0.13435528186556125    
  0.1360693649495207    0.14116556631203192    0.1494910757181966    0.16075439998092786    0.17450041412755418    
  0.19010296812325223    0.206760246561551    0.22347878170275068    0.23907522928931138    0.2522600022594152    
  0.2618229458364103    0.26684638381549464    0.26684638381549464    0.2618229458364102    0.2522600022594151    
  0.23907522928931127    0.22347878170275068    0.20676024656155112    0.19010296812325223    0.1745004141275542    
  0.16075439998092786    0.1494910757181966    0.14116556631203198    0.13606936494952068    0.14517365623618908    
  0.1419505382216995    0.14195053822169945    0.14517365623618902    0.15151676151617122    0.1607543999809279    
  0.1725171896651374    0.18628401786540508    0.20138445852365916    0.21699235837143338    0.23211151912194664    
  0.24559960595136726    0.25628270404704134    0.2631454572042636    0.2655113480654963    0.2631454572042635    
  0.2562827040470413    0.24559960595136715    0.23211151912194655    0.21699235837143344    0.2013844585236592    
  0.18628401786540513    0.17251718966513738    0.16075439998092797    0.15151676151617122    0.14517365623618908    
  0.1575465616436651    0.15309533657067656    0.1515934918556636    0.1530953365706765    0.1575465616436651    
  0.16477921824831712    0.17450041412755418    0.18628401786540505    0.19957153233373315    0.213674884485277    
  0.22776959686159848    0.24089291095549514    0.25199383679532744    0.26006448198483195    0.26431473257180704    
  0.26431473257180693    0.260064481984832    0.2519938367953274    0.240892910955495    0.22776959686159856    
  0.2136748844852769    0.1995715323337332    0.18628401786540508    0.17450041412755415    0.16477921824831718    
  0.1575465616436651    0.1727271970140187    0.16742364133273047    0.16471458202943112    0.16471458202943112    
  0.16742364133273038    0.17272719701401876    0.18039946815892563    0.1901029681232523    0.2013844585236591    
  0.2136748844852769    0.2262924749327678    0.23844447318419135    0.2492455546254709    0.2577894367429932    
  0.2632799492423439    0.26517405952231937    0.2632799492423438    0.2577894367429932    0.24924555462547096    
  0.23844447318419135    0.2262924749327678    0.21367488448527694    0.20138445852365922    0.19010296812325234    
  0.18039946815892569    0.1727271970140187    0.1900442070386617    0.18436097895294845    0.1808376770580079    
  0.17964322009108646    0.1808376770580078    0.18436097895294845    0.19004420703866176    0.19762729673265295    
  0.206760246561551    0.21699235837143338    0.22776959686159842    0.23844447318419135    0.24829420679706873    
  0.25656162799864773    0.26253845916877716    0.26567564311767744    0.2656756431176775    0.26253845916877705    
  0.2565616279986478    0.2482942067970688    0.23844447318419132    0.2277695968615985    0.21699235837143335    
  0.20676024656155112    0.197627296732653    0.1900442070386617    0.20859831767036646    0.20309368274271064    
  0.19924853965460096    0.19726608055599335    0.19726608055599343    0.1992485396546009    0.2030936827427106    
  0.2085983176703664    0.21550233136381383    0.22347878170275065    0.2321115191219465    0.24089291095549503    
  0.24924555462547085    0.2565616279986476    0.2622642562903761    0.26588476675420086    0.26712516490895494    
  0.2658847667542008    0.262264256290376    0.2565616279986478    0.24924555462547096    0.24089291095549503    
  0.23211151912194658    0.22347878170275068    0.21550233136381391    0.20859831767036646    0.2272512709651607    
  0.22255516581714316    0.21897328801044996    0.21670930445012584    0.21593186613336993    0.21670930445012573    
  0.21897328801044996    0.22255516581714305    0.22725127096516068    0.2328450229700146    0.23907522928931133    
  0.2455996059513672    0.2519938367953274    0.25778943674299326    0.26253845916877705    0.2658847667542009    
  0.26760620181551165    0.2676062018155115    0.26588476675420086    0.2625384591687771    0.2577894367429932    
  0.25199383679532744    0.24559960595136726    0.23907522928931146    0.2328450229700147    0.2272512709651607    
  0.24464867585310116    0.2414356560613392    0.23878292207172058    0.23684231841297987    0.23580200285547478    
  0.2358020028554747    0.2368423184129798    0.2387829220717204    0.2414356560613392    0.24464867585310116    
  0.24830545358958903    0.2522600022594151    0.2562827040470413    0.26006448198483195    0.26327994924234377    
  0.2656756431176774    0.26712516490895494    0.2676062018155115    0.2671251649089549    0.2656756431176775    
  0.26327994924234377    0.2600644819848319    0.2562827040470413    0.2522600022594151    0.2483054535895891    
  0.24464867585310116    0.2593341245622895    0.25825441875243677    0.2572374909968618    0.256310766484538    
  0.2556220430054174    0.25536289675426327    0.25562204300541747    0.256310766484538    0.25723749099686166    
  0.2582544187524369    0.2593341245622895    0.26052088952476005    0.26182294583641014    0.26314545720426347    
  0.26431473257180693    0.2651740595223193    0.2656756431176774    0.2658847667542008    0.26588476675420086    
  0.2656756431176775    0.26517405952231937    0.264314732571807    0.2631454572042635    0.26182294583641025    
  0.26052088952475994    0.2593341245622895    0.2699646899015657    0.2715333919793514    0.27280762224622923    
  0.27361658994310234    0.2739787179437441    0.2740739201807775    0.2740739201807776    0.273978717943744    
  0.27361658994310234    0.27280762224622945    0.27153339197935145    0.26996468990156575    0.2683450694810323    
  0.2668463838154945    0.2655113480654962    0.2643147325718069    0.26327994924234377    0.26253845916877694    
  0.2622642562903759    0.26253845916877705    0.26327994924234377    0.26431473257180693    0.2655113480654962    
  0.2668463838154946    0.26834506948103226    0.2699646899015657    0.27553997623343424    0.2800353941861585    
  0.28408327564845404    0.2872740262967184    0.28940786776989325    0.2905507332099142    0.29089792388343205    
  0.29055073320991415    0.2894078677698932    0.28727402629671844    0.284083275648454    0.2800353941861585    
  0.2755399762334343    0.27103710604803877    0.2668463838154947    0.26314545720426347    0.2600644819848319    
  0.2577894367429931    0.2565616279986476    0.2565616279986476    0.2577894367429931    0.26006448198483195    
  0.26314545720426347    0.2668463838154946    0.2710371060480387    0.27553997623343424    0.27553997623343424    
  0.28296028861895167    0.29000165389644184    0.2960251450288575    0.30056416706692357    0.3034658724805611    
  0.30483967970086817    0.3048396797008681    0.30346587248056106    0.30056416706692357    0.2960251450288574    
  0.2900016538964419    0.28296028861895167    0.2755399762334343    0.2683450694810324    0.26182294583641014    
  0.25628270404704134    0.2519938367953273    0.24924555462547085    0.24829420679706873    0.24924555462547082    
  0.25199383679532744    0.25628270404704123    0.2618229458364102    0.2683450694810323    0.27553997623343424    
  0.2699646899015657    0.28003539418615836    0.2900016538964417    0.2990383493618132    0.306419110966199    
  0.3117086038011426    0.31481045346524    0.315821824333726    0.31481045346523995    0.31170860380114274    
  0.306419110966199    0.2990383493618133    0.29000165389644184    0.28003539418615847    0.26996468990156575    
  0.26052088952476    0.2522600022594151    0.24559960595136715    0.24089291095549495    0.23844447318419126    
  0.23844447318419126    0.24089291095549503    0.2455996059513672    0.2522600022594151    0.26052088952475994    
  0.2699646899015657    0.2593341245622895    0.2715333919793514    0.284083275648454    0.2960251450288574    
  0.30641911096619895    0.31454198556796764    0.3200078507146487    0.3227252008176716    0.3227252008176715    
  0.3200078507146489    0.3145419855679678    0.30641911096619906    0.29602514502885746    0.284083275648454    
  0.2715333919793515    0.25933412456228955    0.2483054535895891    0.23907522928931127    0.23211151912194655    
  0.22776959686159842    0.22629247493276786    0.22776959686159848    0.2321115191219465    0.23907522928931133    
  0.24830545358958903    0.2593341245622895    0.24464867585310107    0.25825441875243677    0.2728076222462293    
  0.2872740262967184    0.3005641670669235    0.31170860380114257    0.3200078507146487    0.32507866085702747    
  0.326778134193771    0.32507866085702763    0.32000785071464877    0.3117086038011426    0.3005641670669236    
  0.2872740262967184    0.27280762224622945    0.2582544187524368    0.24464867585310124    0.23284502297001466    
  0.22347878170275068    0.21699235837143335    0.21367488448527686    0.2136748844852769    0.21699235837143335    
  0.22347878170275065    0.2328450229700146    0.24464867585310107    0.22725127096516062    0.2414356560613392    
  0.2572374909968618    0.2736165899431024    0.2894078677698932    0.3034658724805611    0.31481045346524    
  0.3227252008176715    0.326778134193771    0.3267781341937711    0.3227252008176716    0.31481045346524    
  0.3034658724805612    0.28940786776989336    0.2736165899431024    0.2572374909968618    0.2414356560613393    
  0.22725127096516082    0.2155023313638139    0.20676024656155115    0.2013844585236592    0.19957153233373318    
  0.20138445852365916    0.20676024656155106    0.21550233136381383    0.22725127096516062    0.20859831767036643    
  0.2225551658171431    0.23878292207172033    0.25631076648453793    0.27397871794374407    0.29055073320991415    
  0.30483967970086817    0.3158218243337259    0.3227252008176715    0.3250786608570276    0.3227252008176715    
  0.31582182433372613    0.3048396797008681    0.29055073320991415    0.2739787179437441    0.256310766484538    
  0.2387829220717205    0.22255516581714316    0.20859831767036646    0.1976272967326531    0.19010296812325228    
  0.18628401786540513    0.186284017865405    0.1901029681232522    0.19762729673265292    0.20859831767036643    
  0.19004420703866173    0.20309368274271053    0.21897328801044982    0.23684231841297979    0.2556220430054173    
  0.2740739201807775    0.29089792388343205    0.30483967970086806    0.3148104534652399    0.3200078507146489    
  0.3200078507146487    0.31481045346524    0.30483967970086817    0.290897923883432    0.2740739201807776    
  0.2556220430054174    0.23684231841297995    0.21897328801044988    0.20309368274271067    0.19004420703866176    
  0.18039946815892569    0.17450041412755427    0.17251718966513738    0.17450041412755418    0.18039946815892566    
  0.19004420703866173    0.1727271970140187    0.1843609789529485    0.19924853965460093    0.21670930445012573    
  0.2358020028554747    0.2553628967542632    0.27407392018077753    0.29055073320991415    0.30346587248056106    
  0.3117086038011427    0.31454198556796775    0.3117086038011426    0.30346587248056106    0.29055073320991415    
  0.2740739201807776    0.25536289675426327    0.23580200285547473    0.21670930445012573    0.19924853965460104    
  0.1843609789529486    0.1727271970140188    0.16477921824831718    0.16075439998092791    0.1607543999809279    
  0.16477921824831718    0.1727271970140187    0.15754656164366507    0.16742364133273044    0.18083767705800782    
  0.19726608055599332    0.21593186613336982    0.2358020028554747    0.2556220430054174    0.273978717943744    
  0.2894078677698931    0.30056416706692357    0.30641911096619895    0.306419110966199    0.30056416706692346    
  0.2894078677698932    0.27397871794374407    0.25562204300541735    0.23580200285547473    0.21593186613336982    
  0.1972660805559934    0.18083767705800788    0.16742364133273044    0.15754656164366515    0.1515167615161712    
  0.1494910757181966    0.15151676151617122    0.15754656164366507    0.14517365623618908    0.15309533657067656    
  0.1647145820294311    0.17964322009108644    0.19726608055599337    0.21670930445012573    0.23684231841297987    
  0.25631076648453793    0.27361658994310223    0.28727402629671833    0.2960251450288574    0.2990383493618133    
  0.29602514502885746    0.28727402629671833    0.2736165899431024    0.25631076648453793    0.23684231841297979    