
     Program PWSCF v.6.5 starts on 27Jun2023 at 18:48:26 

     This program is part of the open-source Quantum ESPRESSO suite
     for quantum simulation of materials; please cite
         "P. Giannozzi et al., J. Phys.:Condens. Matter 21 395502 (2009);
         "P. Giannozzi et al., J. Phys.:Condens. Matter 29 465901 (2017);
          URL http://www.quantum-espresso.org", 
     in publications or presentations arising from this work. More details at
     http://www.quantum-espresso.org/quote

     Serial version
     Reading input from /home/valeria/Documents/DFTPY/cWT-KEDF/Phases/Model_ML_function/Ks_calculations/DATA_hcp/Si_hcp16.in
Warning: card &IONS ignored
Warning: card / ignored
Warning: card &CELL ignored
Warning: card / ignored
Warning: card &FCP ignored
Warning: card / ignored
Warning: card &RISM ignored
Warning: card / ignored

     Current dimensions of program PWSCF are:
     Max number of different atomic species (ntypx) = 10
     Max number of k-points (npk) =  40000
     Max angular momentum in pseudopotentials (lmaxx) =  3

     WARNING: check_stop already initialized
     Message from routine setup:
     using ibrav=0 with symmetry is DISCOURAGED, use correct ibrav instead

     G-vector sticks info
     --------------------
     sticks:   dense  smooth     PW     G-vecs:    dense   smooth      PW
     Sum         535     535    169                16889    16889    3111



     bravais-lattice index     =            0
     lattice parameter (alat)  =       5.6973  a.u.
     unit-cell volume          =     270.7413 (a.u.)^3
     number of atoms/cell      =            2
     number of atomic types    =            1
     number of electrons       =         8.00
     number of Kohn-Sham states=            8
     kinetic-energy cutoff     =      60.0000  Ry
     charge density cutoff     =     240.0000  Ry
     convergence threshold     =      1.0E-06
     mixing beta               =       0.7000
     number of iterations used =            8  plain     mixing
     Exchange-correlation= LDA
                           (   1   1   0   0   0   0   0)

     celldm(1)=   5.697260  celldm(2)=   0.000000  celldm(3)=   0.000000
     celldm(4)=   0.000000  celldm(5)=   0.000000  celldm(6)=   0.000000

     crystal axes: (cart. coord. in units of alat)
               a(1) = (   0.500000  -0.866025   0.000000 )  
               a(2) = (   0.500000   0.866025   0.000000 )  
               a(3) = (   0.000000   0.000000   1.690541 )  

     reciprocal axes: (cart. coord. in units 2 pi/alat)
               b(1) = (  1.000000 -0.577350  0.000000 )  
               b(2) = (  1.000000  0.577350 -0.000000 )  
               b(3) = ( -0.000000  0.000000  0.591526 )  


     PseudoPot. # 1 for Si read from file:
     /home/valeria/Desktop/programs/dftpy/examples/ofpp/EAC/upf/blps/si.lda.upf
     MD5 check sum: 946fc5a8d23174f015515f8139e499ed
     Pseudo is Norm-conserving, Zval =  4.0
     DFTpy
     Using radial grid of 1601 points,  1 beta functions with: 
                l(1) =   0

     atomic species   valence    mass     pseudopotential
        Si             4.00    28.08000     Si( 1.00)

     24 Sym. Ops., with inversion, found (12 have fractional translation)



   Cartesian axes

     site n.     atom                  positions (alat units)
         1           Si  tau(   1) = (   0.5000000   0.2886751   0.4226354  )
         2           Si  tau(   2) = (   0.5000000  -0.2886751   1.2679061  )

     number of k points=  1100  Gaussian smearing, width (Ry)=  0.0050

     Number of k-points >= 100: set verbosity='high' to print them.

     Dense  grid:    16889 G-vectors     FFT dimensions: (  30,  30,  48)

     Estimated max dynamical RAM per process >     297.79 MB

     Initial potential from superposition of free atoms

     starting charge    7.99872, renormalised to    8.00000
     Starting wfcs are random

     total cpu time spent up to now is       35.1 secs

     Self-consistent Calculation

     iteration #  1     ecut=    60.00 Ry     beta= 0.70
     Davidson diagonalization with overlap
     ethr =  1.00E-02,  avg # of iterations =  6.9

     Threshold (ethr) on eigenvalues was too large:
     Diagonalizing with lowered threshold

     Davidson diagonalization with overlap
     ethr =  9.39E-05,  avg # of iterations =  1.9

     total cpu time spent up to now is      362.0 secs

     total energy              =     -16.02140026 Ry
     Harris-Foulkes estimate   =     -16.02420145 Ry
     estimated scf accuracy    <       0.00725635 Ry

     iteration #  2     ecut=    60.00 Ry     beta= 0.70
     Davidson diagonalization with overlap
     ethr =  9.07E-05,  avg # of iterations =  1.0

     total cpu time spent up to now is      440.2 secs

     total energy              =     -16.02161738 Ry
     Harris-Foulkes estimate   =     -16.02170336 Ry
     estimated scf accuracy    <       0.00025951 Ry

     iteration #  3     ecut=    60.00 Ry     beta= 0.70
     Davidson diagonalization with overlap
     ethr =  3.24E-06,  avg # of iterations =  2.5

     total cpu time spent up to now is      543.8 secs

     total energy              =     -16.02166053 Ry
     Harris-Foulkes estimate   =     -16.02166069 Ry
     estimated scf accuracy    <       0.00000168 Ry

     iteration #  4     ecut=    60.00 Ry     beta= 0.70
     Davidson diagonalization with overlap
     ethr =  2.10E-08,  avg # of iterations =  2.1

     total cpu time spent up to now is      641.1 secs

     End of self-consistent calculation

     Number of k-points >= 100: set verbosity='high' to print the bands.

     the Fermi energy is     6.4857 ev

!    total energy              =     -16.02166101 Ry
     Harris-Foulkes estimate   =     -16.02166104 Ry
     estimated scf accuracy    <       0.00000010 Ry

     The total energy is the sum of the following terms:

     one-electron contribution =       6.27501126 Ry
     hartree contribution      =       0.21234760 Ry
     xc contribution           =      -4.51203931 Ry
     ewald contribution        =     -17.99678490 Ry
     smearing contrib. (-TS)   =      -0.00019566 Ry

     convergence has been achieved in   4 iterations

 Energies determined by pw2casino tool
 -------------------------------------
 Kinetic energy      2.6348221261288640       au  =     5.2696442522577280       Ry
 Local energy       0.50268350144074259       au  =     1.0053670028814852       Ry
 Non-Local energy    0.0000000000000000       au  =     0.0000000000000000       Ry
 Ewald energy       -8.9983924496376524       au  =    -17.996784899275305       Ry
 xc contribution    -2.2560196531829964       au  =    -4.5120393063659927       Ry
 hartree energy     0.10617379956840178       au  =    0.21234759913680357       Ry
 Smearing (-TS)     -9.7829523084331371E-005  au  =    -1.9565904616866274E-004  Ry
 Total energy       -8.0108305052037867       au  =    -16.021661010407573       Ry
 -------------------------------------
 Total energy0      -8.0108305052057247       au  =    -16.021661010411449       Ry
 External energy0    0.0000000000000000       au  =     0.0000000000000000       Ry
 -------------------------------------


     Writing output data file ./si.save/
