
     Program PWSCF v.6.5 starts on 27Jun2023 at 19:56:56 

     This program is part of the open-source Quantum ESPRESSO suite
     for quantum simulation of materials; please cite
         "P. Giannozzi et al., J. Phys.:Condens. Matter 21 395502 (2009);
         "P. Giannozzi et al., J. Phys.:Condens. Matter 29 465901 (2017);
          URL http://www.quantum-espresso.org", 
     in publications or presentations arising from this work. More details at
     http://www.quantum-espresso.org/quote

     Serial version
     Reading input from /home/valeria/Documents/DFTPY/cWT-KEDF/Phases/Model_ML_function/Ks_calculations/DATA_hcp/Si_hcp23.in
Warning: card &IONS ignored
Warning: card / ignored
Warning: card &CELL ignored
Warning: card / ignored
Warning: card &FCP ignored
Warning: card / ignored
Warning: card &RISM ignored
Warning: card / ignored

     Current dimensions of program PWSCF are:
     Max number of different atomic species (ntypx) = 10
     Max number of k-points (npk) =  40000
     Max angular momentum in pseudopotentials (lmaxx) =  3

     WARNING: check_stop already initialized
     Message from routine setup:
     using ibrav=0 with symmetry is DISCOURAGED, use correct ibrav instead

     G-vector sticks info
     --------------------
     sticks:   dense  smooth     PW     G-vecs:    dense   smooth      PW
     Sum         673     673    211                24413    24413    4333



     bravais-lattice index     =            0
     lattice parameter (alat)  =       6.4268  a.u.
     unit-cell volume          =     388.6317 (a.u.)^3
     number of atoms/cell      =            2
     number of atomic types    =            1
     number of electrons       =         8.00
     number of Kohn-Sham states=            8
     kinetic-energy cutoff     =      60.0000  Ry
     charge density cutoff     =     240.0000  Ry
     convergence threshold     =      1.0E-06
     mixing beta               =       0.7000
     number of iterations used =            8  plain     mixing
     Exchange-correlation= LDA
                           (   1   1   0   0   0   0   0)

     celldm(1)=   6.426787  celldm(2)=   0.000000  celldm(3)=   0.000000
     celldm(4)=   0.000000  celldm(5)=   0.000000  celldm(6)=   0.000000

     crystal axes: (cart. coord. in units of alat)
               a(1) = (   0.500000  -0.866025   0.000000 )  
               a(2) = (   0.500000   0.866025   0.000000 )  
               a(3) = (   0.000000   0.000000   1.690541 )  

     reciprocal axes: (cart. coord. in units 2 pi/alat)
               b(1) = (  1.000000 -0.577350  0.000000 )  
               b(2) = (  1.000000  0.577350 -0.000000 )  
               b(3) = ( -0.000000  0.000000  0.591526 )  


     PseudoPot. # 1 for Si read from file:
     /home/valeria/Desktop/programs/dftpy/examples/ofpp/EAC/upf/blps/si.lda.upf
     MD5 check sum: 946fc5a8d23174f015515f8139e499ed
     Pseudo is Norm-conserving, Zval =  4.0
     DFTpy
     Using radial grid of 1601 points,  1 beta functions with: 
                l(1) =   0

     atomic species   valence    mass     pseudopotential
        Si             4.00    28.08000     Si( 1.00)

     24 Sym. Ops., with inversion, found (12 have fractional translation)



   Cartesian axes

     site n.     atom                  positions (alat units)
         1           Si  tau(   1) = (   0.5000000   0.2886751   0.4226354  )
         2           Si  tau(   2) = (   0.5000000  -0.2886751   1.2679061  )

     number of k points=  1100  Gaussian smearing, width (Ry)=  0.0050

     Number of k-points >= 100: set verbosity='high' to print them.

     Dense  grid:    24413 G-vectors     FFT dimensions: (  32,  32,  54)

     Estimated max dynamical RAM per process >     427.01 MB

     Initial potential from superposition of free atoms

     starting charge    7.99872, renormalised to    8.00000
     Starting wfcs are random

     total cpu time spent up to now is       29.9 secs

     Self-consistent Calculation

     iteration #  1     ecut=    60.00 Ry     beta= 0.70
     Davidson diagonalization with overlap
     ethr =  1.00E-02,  avg # of iterations =  6.9

     Threshold (ethr) on eigenvalues was too large:
     Diagonalizing with lowered threshold

     Davidson diagonalization with overlap
     ethr =  1.26E-04,  avg # of iterations =  1.7

     total cpu time spent up to now is      309.2 secs

     total energy              =     -15.89507954 Ry
     Harris-Foulkes estimate   =     -15.89895009 Ry
     estimated scf accuracy    <       0.00969837 Ry

     iteration #  2     ecut=    60.00 Ry     beta= 0.70
     Davidson diagonalization with overlap
     ethr =  1.21E-04,  avg # of iterations =  1.0

     total cpu time spent up to now is      374.4 secs

     total energy              =     -15.89558169 Ry
     Harris-Foulkes estimate   =     -15.89563983 Ry
     estimated scf accuracy    <       0.00025717 Ry

     iteration #  3     ecut=    60.00 Ry     beta= 0.70
     Davidson diagonalization with overlap
     ethr =  3.21E-06,  avg # of iterations =  2.5

     total cpu time spent up to now is      460.2 secs

     total energy              =     -15.89564959 Ry
     Harris-Foulkes estimate   =     -15.89565005 Ry
     estimated scf accuracy    <       0.00000382 Ry

     iteration #  4     ecut=    60.00 Ry     beta= 0.70
     Davidson diagonalization with overlap
     ethr =  4.77E-08,  avg # of iterations =  2.0

     total cpu time spent up to now is      535.8 secs

     End of self-consistent calculation

     Number of k-points >= 100: set verbosity='high' to print the bands.

     the Fermi energy is     3.2432 ev

!    total energy              =     -15.89565024 Ry
     Harris-Foulkes estimate   =     -15.89565035 Ry
     estimated scf accuracy    <       0.00000031 Ry

     The total energy is the sum of the following terms:

     one-electron contribution =       3.76255620 Ry
     hartree contribution      =       0.49739414 Ry
     xc contribution           =      -4.20146964 Ry
     ewald contribution        =     -15.95390661 Ry
     smearing contrib. (-TS)   =      -0.00022432 Ry

     convergence has been achieved in   4 iterations

 Energies determined by pw2casino tool
 -------------------------------------
 Kinetic energy      2.3913501829804216       au  =     4.7827003659608431       Ry
 Local energy      -0.51007208410122507       au  =    -1.0201441682024501       Ry
 Non-Local energy    0.0000000000000000       au  =     0.0000000000000000       Ry
 Ewald energy       -7.9769533067061289       au  =    -15.953906613412258       Ry
 xc contribution    -2.1007348211174244       au  =    -4.2014696422348488       Ry
 hartree energy     0.24869707146104270       au  =    0.49739414292208539       Ry
 Smearing (-TS)     -1.1216195094644190E-004  au  =    -2.2432390189288379E-004  Ry
 Total energy       -7.9478251194310516       au  =    -15.895650238862103       Ry
 -------------------------------------
 Total energy0      -7.9478251194342606       au  =    -15.895650238868521       Ry
 External energy0    0.0000000000000000       au  =     0.0000000000000000       Ry
 -------------------------------------


     Writing output data file ./si.save/
