
     Program PWSCF v.6.5 starts on 27Jun2023 at 17:21:40 

     This program is part of the open-source Quantum ESPRESSO suite
     for quantum simulation of materials; please cite
         "P. Giannozzi et al., J. Phys.:Condens. Matter 21 395502 (2009);
         "P. Giannozzi et al., J. Phys.:Condens. Matter 29 465901 (2017);
          URL http://www.quantum-espresso.org", 
     in publications or presentations arising from this work. More details at
     http://www.quantum-espresso.org/quote

     Serial version
     Reading input from /home/valeria/Documents/DFTPY/cWT-KEDF/Phases/Model_ML_function/Ks_calculations/DATA_hcp/Si_hcp2.in
Warning: card &IONS ignored
Warning: card / ignored
Warning: card &CELL ignored
Warning: card / ignored
Warning: card &FCP ignored
Warning: card / ignored
Warning: card &RISM ignored
Warning: card / ignored

     Current dimensions of program PWSCF are:
     Max number of different atomic species (ntypx) = 10
     Max number of k-points (npk) =  40000
     Max angular momentum in pseudopotentials (lmaxx) =  3

     WARNING: check_stop already initialized
     Message from routine setup:
     using ibrav=0 with symmetry is DISCOURAGED, use correct ibrav instead

     G-vector sticks info
     --------------------
     sticks:   dense  smooth     PW     G-vecs:    dense   smooth      PW
     Sum         301     301    109                 7019     7019    1473



     bravais-lattice index     =            0
     lattice parameter (alat)  =       4.2382  a.u.
     unit-cell volume          =     111.4558 (a.u.)^3
     number of atoms/cell      =            2
     number of atomic types    =            1
     number of electrons       =         8.00
     number of Kohn-Sham states=            8
     kinetic-energy cutoff     =      60.0000  Ry
     charge density cutoff     =     240.0000  Ry
     convergence threshold     =      1.0E-06
     mixing beta               =       0.7000
     number of iterations used =            8  plain     mixing
     Exchange-correlation= LDA
                           (   1   1   0   0   0   0   0)

     celldm(1)=   4.238206  celldm(2)=   0.000000  celldm(3)=   0.000000
     celldm(4)=   0.000000  celldm(5)=   0.000000  celldm(6)=   0.000000

     crystal axes: (cart. coord. in units of alat)
               a(1) = (   0.500000  -0.866025   0.000000 )  
               a(2) = (   0.500000   0.866025   0.000000 )  
               a(3) = (   0.000000   0.000000   1.690541 )  

     reciprocal axes: (cart. coord. in units 2 pi/alat)
               b(1) = (  1.000000 -0.577350  0.000000 )  
               b(2) = (  1.000000  0.577350 -0.000000 )  
               b(3) = ( -0.000000  0.000000  0.591526 )  


     PseudoPot. # 1 for Si read from file:
     /home/valeria/Desktop/programs/dftpy/examples/ofpp/EAC/upf/blps/si.lda.upf
     MD5 check sum: 946fc5a8d23174f015515f8139e499ed
     Pseudo is Norm-conserving, Zval =  4.0
     DFTpy
     Using radial grid of 1601 points,  1 beta functions with: 
                l(1) =   0

     atomic species   valence    mass     pseudopotential
        Si             4.00    28.08000     Si( 1.00)

     24 Sym. Ops., with inversion, found (12 have fractional translation)



   Cartesian axes

     site n.     atom                  positions (alat units)
         1           Si  tau(   1) = (   0.5000000   0.2886751   0.4226354  )
         2           Si  tau(   2) = (   0.5000000  -0.2886751   1.2679061  )

     number of k points=  1100  Gaussian smearing, width (Ry)=  0.0050

     Number of k-points >= 100: set verbosity='high' to print them.

     Dense  grid:     7019 G-vectors     FFT dimensions: (  24,  24,  36)

     Estimated max dynamical RAM per process >     122.88 MB

     Initial potential from superposition of free atoms

     starting charge    7.99872, renormalised to    8.00000
     Starting wfcs are random

     total cpu time spent up to now is        7.7 secs

     Self-consistent Calculation

     iteration #  1     ecut=    60.00 Ry     beta= 0.70
     Davidson diagonalization with overlap
     ethr =  1.00E-02,  avg # of iterations =  6.7

     Threshold (ethr) on eigenvalues was too large:
     Diagonalizing with lowered threshold

     Davidson diagonalization with overlap
     ethr =  2.79E-04,  avg # of iterations =  1.4

     total cpu time spent up to now is       88.8 secs

     total energy              =     -15.80496755 Ry
     Harris-Foulkes estimate   =     -15.81058429 Ry
     estimated scf accuracy    <       0.02228478 Ry

     iteration #  2     ecut=    60.00 Ry     beta= 0.70
     Davidson diagonalization with overlap
     ethr =  2.79E-04,  avg # of iterations =  1.0

     total cpu time spent up to now is      112.0 secs

     total energy              =     -15.80498900 Ry
     Harris-Foulkes estimate   =     -15.80523411 Ry
     estimated scf accuracy    <       0.00152240 Ry

     iteration #  3     ecut=    60.00 Ry     beta= 0.70
     Davidson diagonalization with overlap
     ethr =  1.90E-05,  avg # of iterations =  1.9

     total cpu time spent up to now is      139.6 secs

     total energy              =     -15.80503467 Ry
     Harris-Foulkes estimate   =     -15.80503336 Ry
     estimated scf accuracy    <       0.00000320 Ry

     iteration #  4     ecut=    60.00 Ry     beta= 0.70
     Davidson diagonalization with overlap
     ethr =  3.99E-08,  avg # of iterations =  3.2

     total cpu time spent up to now is      173.9 secs

     End of self-consistent calculation

     Number of k-points >= 100: set verbosity='high' to print the bands.

     the Fermi energy is    20.2941 ev

!    total energy              =     -15.80503792 Ry
     Harris-Foulkes estimate   =     -15.80503795 Ry
     estimated scf accuracy    <       0.00000020 Ry

     The total energy is the sum of the following terms:

     one-electron contribution =      14.10992653 Ry
     hartree contribution      =       0.05488793 Ry
     xc contribution           =      -5.77737609 Ry
     ewald contribution        =     -24.19239937 Ry
     smearing contrib. (-TS)   =      -0.00007693 Ry

     convergence has been achieved in   4 iterations

 Energies determined by pw2casino tool
 -------------------------------------
 Kinetic energy      4.2057078779750174       au  =     8.4114157559500349       Ry
 Local energy        2.8492553894190804       au  =     5.6985107788381608       Ry
 Non-Local energy    0.0000000000000000       au  =     0.0000000000000000       Ry
 Ewald energy       -12.096199685459666       au  =    -24.192399370919333       Ry
 xc contribution    -2.8886880433157711       au  =    -5.7773760866315422       Ry
 hartree energy      2.7443964349149082E-002  au  =     5.4887928698298165E-002  Ry
 Smearing (-TS)     -3.8463018867762964E-005  au  =    -7.6926037735525928E-005  Ry
 Total energy       -7.9025189600497399       au  =    -15.805037920099480       Ry
 -------------------------------------
 Total energy0      -7.9025189600510579       au  =    -15.805037920102116       Ry
 External energy0    0.0000000000000000       au  =     0.0000000000000000       Ry
 -------------------------------------


     Writing output data file ./si.save/
