
     Program PWSCF v.6.5 starts on 27Jun2023 at 18:59:10 

     This program is part of the open-source Quantum ESPRESSO suite
     for quantum simulation of materials; please cite
         "P. Giannozzi et al., J. Phys.:Condens. Matter 21 395502 (2009);
         "P. Giannozzi et al., J. Phys.:Condens. Matter 29 465901 (2017);
          URL http://www.quantum-espresso.org", 
     in publications or presentations arising from this work. More details at
     http://www.quantum-espresso.org/quote

     Serial version
     Reading input from /home/valeria/Documents/DFTPY/cWT-KEDF/Phases/Model_ML_function/Ks_calculations/DATA_hcp/Si_hcp17.in
Warning: card &IONS ignored
Warning: card / ignored
Warning: card &CELL ignored
Warning: card / ignored
Warning: card &FCP ignored
Warning: card / ignored
Warning: card &RISM ignored
Warning: card / ignored

     Current dimensions of program PWSCF are:
     Max number of different atomic species (ntypx) = 10
     Max number of k-points (npk) =  40000
     Max angular momentum in pseudopotentials (lmaxx) =  3

     WARNING: check_stop already initialized
     Message from routine setup:
     using ibrav=0 with symmetry is DISCOURAGED, use correct ibrav instead

     G-vector sticks info
     --------------------
     sticks:   dense  smooth     PW     G-vecs:    dense   smooth      PW
     Sum         559     559    187                17959    17959    3297



     bravais-lattice index     =            0
     lattice parameter (alat)  =       5.8015  a.u.
     unit-cell volume          =     285.8725 (a.u.)^3
     number of atoms/cell      =            2
     number of atomic types    =            1
     number of electrons       =         8.00
     number of Kohn-Sham states=            8
     kinetic-energy cutoff     =      60.0000  Ry
     charge density cutoff     =     240.0000  Ry
     convergence threshold     =      1.0E-06
     mixing beta               =       0.7000
     number of iterations used =            8  plain     mixing
     Exchange-correlation= LDA
                           (   1   1   0   0   0   0   0)

     celldm(1)=   5.801478  celldm(2)=   0.000000  celldm(3)=   0.000000
     celldm(4)=   0.000000  celldm(5)=   0.000000  celldm(6)=   0.000000

     crystal axes: (cart. coord. in units of alat)
               a(1) = (   0.500000  -0.866025   0.000000 )  
               a(2) = (   0.500000   0.866025   0.000000 )  
               a(3) = (   0.000000   0.000000   1.690541 )  

     reciprocal axes: (cart. coord. in units 2 pi/alat)
               b(1) = (  1.000000 -0.577350  0.000000 )  
               b(2) = (  1.000000  0.577350 -0.000000 )  
               b(3) = ( -0.000000  0.000000  0.591526 )  


     PseudoPot. # 1 for Si read from file:
     /home/valeria/Desktop/programs/dftpy/examples/ofpp/EAC/upf/blps/si.lda.upf
     MD5 check sum: 946fc5a8d23174f015515f8139e499ed
     Pseudo is Norm-conserving, Zval =  4.0
     DFTpy
     Using radial grid of 1601 points,  1 beta functions with: 
                l(1) =   0

     atomic species   valence    mass     pseudopotential
        Si             4.00    28.08000     Si( 1.00)

     24 Sym. Ops., with inversion, found (12 have fractional translation)



   Cartesian axes

     site n.     atom                  positions (alat units)
         1           Si  tau(   1) = (   0.5000000   0.2886751   0.4226354  )
         2           Si  tau(   2) = (   0.5000000  -0.2886751   1.2679061  )

     number of k points=  1100  Gaussian smearing, width (Ry)=  0.0050

     Number of k-points >= 100: set verbosity='high' to print them.

     Dense  grid:    17959 G-vectors     FFT dimensions: (  30,  30,  50)

     Estimated max dynamical RAM per process >     314.47 MB

     Initial potential from superposition of free atoms

     starting charge    7.99872, renormalised to    8.00000
     Starting wfcs are random

     total cpu time spent up to now is       37.0 secs

     Self-consistent Calculation

     iteration #  1     ecut=    60.00 Ry     beta= 0.70
     Davidson diagonalization with overlap
     ethr =  1.00E-02,  avg # of iterations =  6.9

     Threshold (ethr) on eigenvalues was too large:
     Diagonalizing with lowered threshold

     Davidson diagonalization with overlap
     ethr =  9.47E-05,  avg # of iterations =  1.8

     total cpu time spent up to now is      378.5 secs

     total energy              =     -16.00595363 Ry
     Harris-Foulkes estimate   =     -16.00880672 Ry
     estimated scf accuracy    <       0.00731332 Ry

     iteration #  2     ecut=    60.00 Ry     beta= 0.70
     Davidson diagonalization with overlap
     ethr =  9.14E-05,  avg # of iterations =  1.0

     total cpu time spent up to now is      459.5 secs

     total energy              =     -16.00619744 Ry
     Harris-Foulkes estimate   =     -16.00627787 Ry
     estimated scf accuracy    <       0.00024807 Ry

     iteration #  3     ecut=    60.00 Ry     beta= 0.70
     Davidson diagonalization with overlap
     ethr =  3.10E-06,  avg # of iterations =  2.5

     total cpu time spent up to now is      549.7 secs

     total energy              =     -16.00624274 Ry
     Harris-Foulkes estimate   =     -16.00624295 Ry
     estimated scf accuracy    <       0.00000178 Ry

     iteration #  4     ecut=    60.00 Ry     beta= 0.70
     Davidson diagonalization with overlap
     ethr =  2.22E-08,  avg # of iterations =  2.1

     total cpu time spent up to now is      630.9 secs

     End of self-consistent calculation

     Number of k-points >= 100: set verbosity='high' to print the bands.

     the Fermi energy is     5.9153 ev

!    total energy              =     -16.00624320 Ry
     Harris-Foulkes estimate   =     -16.00624323 Ry
     estimated scf accuracy    <       0.00000011 Ry

     The total energy is the sum of the following terms:

     one-electron contribution =       5.87916371 Ry
     hartree contribution      =       0.24696593 Ry
     xc contribution           =      -4.45868121 Ry
     ewald contribution        =     -17.67348936 Ry
     smearing contrib. (-TS)   =      -0.00020226 Ry

     convergence has been achieved in   4 iterations

 Energies determined by pw2casino tool
 -------------------------------------
 Kinetic energy      2.5885657042785120       au  =     5.1771314085570239       Ry
 Local energy       0.35101615023393767       au  =    0.70203230046787535       Ry
 Non-Local energy    0.0000000000000000       au  =     0.0000000000000000       Ry
 Ewald energy       -8.8367446808764036       au  =    -17.673489361752807       Ry
 xc contribution    -2.2293406072013204       au  =    -4.4586812144026409       Ry
 hartree energy     0.12348296435188977       au  =    0.24696592870377954       Ry
 Smearing (-TS)     -1.0112957114653946E-004  au  =    -2.0225914229307892E-004  Ry
 Total energy       -8.0031215987821263       au  =    -16.006243197564253       Ry
 -------------------------------------
 Total energy0      -8.0031215987845297       au  =    -16.006243197569059       Ry
 External energy0    0.0000000000000000       au  =     0.0000000000000000       Ry
 -------------------------------------


     Writing output data file ./si.save/
