 CRYSTAL
 PRIMVEC
    5.764340821    0.000010654   -0.000000000
   -1.273299115    5.423164270   -0.000000000
   -0.000000000   -0.000000000    5.959792136
 PRIMCOORD
           4           1
Si       -0.122848243    1.321250417    2.013390817
Si        2.886541415    2.292892148    0.828422246
Si        0.122860922    3.228205389    4.710349112
Si        2.877805180    0.786277756    3.481042787
BEGIN_BLOCK_DATAGRID_3D
3D_PWSCF
BEGIN_DATAGRID_3D_UNKNOWN
          55          55          61
  0.000000  0.000000  0.000000
    5.764341    0.000011   -0.000000
   -1.273299    5.423164   -0.000000
   -0.000000   -0.000000    5.959792
  0.116267E-02  0.117566E-02  0.118626E-02  0.119528E-02  0.120368E-02  0.121231E-02
  0.122198E-02  0.123343E-02  0.124731E-02  0.126417E-02  0.128433E-02  0.130777E-02
  0.133422E-02  0.136323E-02  0.139442E-02  0.142749E-02  0.146212E-02  0.149773E-02
  0.153344E-02  0.156807E-02  0.160031E-02  0.162881E-02  0.165222E-02  0.166916E-02
  0.167827E-02  0.167822E-02  0.166798E-02  0.164707E-02  0.161578E-02  0.157506E-02
  0.152631E-02  0.147119E-02  0.141155E-02  0.134938E-02  0.128688E-02  0.122629E-02
  0.116963E-02  0.111856E-02  0.107423E-02  0.103738E-02  0.100845E-02  0.987600E-03
  0.974840E-03  0.969962E-03  0.972507E-03  0.981703E-03  0.996456E-03  0.101543E-02
  0.103722E-02  0.106047E-02  0.108402E-02  0.110683E-02  0.112801E-02  0.114678E-02
  0.116267E-02  0.125761E-02  0.126434E-02  0.126697E-02  0.126653E-02  0.126429E-02
  0.126156E-02  0.125960E-02  0.125966E-02  0.126295E-02  0.127057E-02  0.128335E-02
  0.130180E-02  0.132605E-02  0.135594E-02  0.139119E-02  0.143150E-02  0.147644E-02
  0.152528E-02  0.157682E-02  0.162947E-02  0.168131E-02  0.173025E-02  0.177412E-02
  0.181073E-02  0.183794E-02  0.185377E-02  0.185660E-02  0.184552E-02  0.182046E-02
  0.178224E-02  0.173239E-02  0.167294E-02  0.160632E-02  0.153521E-02  0.146249E-02
  0.139096E-02  0.132314E-02  0.126112E-02  0.120653E-02  0.116052E-02  0.112382E-02
  0.109678E-02  0.107941E-02  0.107140E-02  0.107210E-02  0.108060E-02  0.109561E-02
  0.111561E-02  0.113885E-02  0.116352E-02  0.118794E-02  0.121064E-02  0.123040E-02
  0.124627E-02  0.125761E-02  0.138179E-02  0.138349E-02  0.137945E-02  0.137077E-02
  0.135901E-02  0.134587E-02  0.133318E-02  0.132271E-02  0.131619E-02  0.131515E-02
  0.132092E-02  0.133449E-02  0.135651E-02  0.138720E-02  0.142652E-02  0.147417E-02
  0.152967E-02  0.159214E-02  0.166022E-02  0.173197E-02  0.180498E-02  0.187642E-02
  0.194321E-02  0.200220E-02  0.205029E-02  0.208463E-02  0.210284E-02  0.210332E-02
  0.208552E-02  0.204997E-02  0.199823E-02  0.193275E-02  0.185666E-02  0.177358E-02
  0.168723E-02  0.160117E-02  0.151854E-02  0.144202E-02  0.137377E-02  0.131547E-02
  0.126823E-02  0.123266E-02  0.120883E-02  0.119634E-02  0.119437E-02  0.120170E-02
  0.121679E-02  0.123786E-02  0.126290E-02  0.128971E-02  0.131609E-02  0.133996E-02
  0.135961E-02  0.137379E-02  0.138179E-02  0.153439E-02  0.153223E-02  0.152261E-02
  0.150669E-02  0.148620E-02  0.146329E-02  0.144036E-02  0.141981E-02  0.140389E-02
  0.139459E-02  0.139369E-02  0.140269E-02  0.142274E-02  0.145455E-02  0.149835E-02
  0.155398E-02  0.162094E-02  0.169834E-02  0.178471E-02  0.187793E-02  0.197508E-02
  0.207259E-02  0.216637E-02  0.225207E-02  0.232539E-02  0.238228E-02  0.241931E-02
  0.243402E-02  0.242513E-02  0.239279E-02  0.233850E-02  0.226512E-02  0.217659E-02
  0.207758E-02  0.197295E-02  0.186730E-02  0.176472E-02  0.166872E-02  0.158222E-02
  0.150749E-02  0.144611E-02  0.139886E-02  0.136592E-02  0.134684E-02  0.134066E-02
  0.134588E-02  0.136059E-02  0.138261E-02  0.140956E-02  0.143889E-02  0.146794E-02
  0.149401E-02  0.151478E-02  0.152854E-02  0.153439E-02  0.171463E-02  0.170979E-02
  0.169563E-02  0.167336E-02  0.164485E-02  0.161264E-02  0.157975E-02  0.154925E-02
  0.152402E-02  0.150659E-02  0.149926E-02  0.150407E-02  0.152268E-02  0.155625E-02
  0.160538E-02  0.167018E-02  0.175032E-02  0.184499E-02  0.195273E-02  0.207119E-02
  0.219704E-02  0.232590E-02  0.245257E-02  0.257128E-02  0.267612E-02  0.276144E-02
  0.282233E-02  0.285511E-02  0.285764E-02  0.282950E-02  0.277212E-02  0.268874E-02
  0.258416E-02  0.246426E-02  0.233529E-02  0.220330E-02  0.207378E-02  0.195150E-02
  0.184043E-02  0.174364E-02  0.166316E-02  0.159998E-02  0.155428E-02  0.152556E-02
  0.151273E-02  0.151409E-02  0.152738E-02  0.154991E-02  0.157875E-02  0.161082E-02
  0.164298E-02  0.167202E-02  0.169499E-02  0.170962E-02  0.171463E-02  0.192152E-02
  0.191523E-02  0.189758E-02  0.186981E-02  0.183399E-02  0.179304E-02  0.175052E-02
  0.171015E-02  0.167553E-02  0.164991E-02  0.163629E-02  0.163730E-02  0.165511E-02
  0.169132E-02  0.174703E-02  0.182281E-02  0.191874E-02  0.203424E-02  0.216782E-02
  0.231693E-02  0.247776E-02  0.264516E-02  0.281277E-02  0.297319E-02  0.311847E-02
  0.324073E-02  0.333295E-02  0.338968E-02  0.340753E-02  0.338533E-02  0.332433E-02
  0.322822E-02  0.310279E-02  0.295542E-02  0.279415E-02  0.262700E-02  0.246140E-02
  0.230387E-02  0.215980E-02  0.203322E-02  0.192676E-02  0.184168E-02  0.177817E-02
  0.173561E-02  0.171272E-02  0.170758E-02  0.171762E-02  0.173967E-02  0.177008E-02
  0.180502E-02  0.184066E-02  0.187326E-02  0.189933E-02  0.191601E-02  0.192152E-02
  0.215369E-02  0.214724E-02  0.212715E-02  0.209472E-02  0.205232E-02  0.200330E-02
  0.195167E-02  0.190173E-02  0.185779E-02  0.182400E-02  0.180422E-02  0.180182E-02
  0.181953E-02  0.185950E-02  0.192341E-02  0.201258E-02  0.212776E-02  0.226873E-02
  0.243407E-02  0.262095E-02  0.282510E-02  0.304067E-02  0.326009E-02  0.347415E-02
  0.367235E-02  0.384381E-02  0.397849E-02  0.406829E-02  0.410781E-02  0.409470E-02
  0.402980E-02  0.391726E-02  0.376426E-02  0.358022E-02  0.337572E-02  0.316152E-02
  0.294769E-02  0.274308E-02  0.255485E-02  0.238822E-02  0.224650E-02  0.213133E-02
  0.204304E-02  0.198093E-02  0.194342E-02  0.192820E-02  0.193228E-02  0.195201E-02
  0.198304E-02  0.202065E-02  0.206004E-02  0.209672E-02  0.212664E-02  0.214643E-02
  0.215369E-02  0.240937E-02  0.240405E-02  0.238272E-02  0.234658E-02  0.229837E-02
  0.224199E-02  0.218191E-02  0.212292E-02  0.207001E-02  0.202828E-02  0.200260E-02
  0.199724E-02  0.201567E-02  0.206073E-02  0.213492E-02  0.224049E-02  0.237908E-02
  0.255112E-02  0.275541E-02  0.298905E-02  0.324744E-02  0.352407E-02  0.381008E-02
  0.409406E-02  0.436233E-02  0.460009E-02  0.479313E-02  0.492952E-02  0.500075E-02
  0.500233E-02  0.493418E-02  0.480088E-02  0.461143E-02  0.437822E-02  0.411554E-02
  0.383799E-02  0.355933E-02  0.329153E-02  0.304407E-02  0.282368E-02  0.263446E-02
  0.247845E-02  0.235616E-02  0.226682E-02  0.220856E-02  0.217847E-02  0.217291E-02
  0.218754E-02  0.221734E-02  0.225667E-02  0.229967E-02  0.234081E-02  0.237528E-02
  0.239914E-02  0.240937E-02  0.268637E-02  0.268363E-02  0.266252E-02  0.262392E-02
  0.257088E-02  0.250793E-02  0.244010E-02  0.237269E-02  0.231135E-02  0.226208E-02
  0.223087E-02  0.222305E-02  0.224309E-02  0.229481E-02  0.238175E-02  0.250727E-02
  0.267410E-02  0.288362E-02  0.313535E-02  0.342679E-02  0.375337E-02  0.410796E-02
  0.448016E-02  0.485571E-02  0.521683E-02  0.554365E-02  0.581654E-02  0.601829E-02
  0.613586E-02  0.616130E-02  0.609264E-02  0.593454E-02  0.569826E-02  0.540030E-02
  0.506011E-02  0.469771E-02  0.433186E-02  0.397882E-02  0.365140E-02  0.335856E-02
  0.310557E-02  0.289480E-02  0.272669E-02  0.260022E-02  0.251309E-02  0.246172E-02
  0.244154E-02  0.244726E-02  0.247298E-02  0.251217E-02  0.255792E-02  0.260352E-02
  0.264312E-02  0.267196E-02  0.268637E-02  0.298241E-02  0.298381E-02  0.296470E-02
  0.292537E-02  0.286893E-02  0.280044E-02  0.272568E-02  0.265055E-02  0.258138E-02
  0.252507E-02  0.248872E-02  0.247891E-02  0.250143E-02  0.256143E-02  0.266378E-02
  0.281312E-02  0.301350E-02  0.326774E-02  0.357678E-02  0.393927E-02  0.435113E-02
  0.480474E-02  0.528776E-02  0.578232E-02  0.626535E-02  0.671049E-02  0.709108E-02
  0.738301E-02  0.756698E-02  0.762994E-02  0.756665E-02  0.738116E-02  0.708722E-02
  0.670659E-02  0.626564E-02  0.579161E-02  0.530998E-02  0.484279E-02  0.440764E-02
  0.401702E-02  0.367829E-02  0.339444E-02  0.316545E-02  0.298939E-02  0.286306E-02
  0.278200E-02  0.274060E-02  0.273238E-02  0.275024E-02  0.278659E-02  0.283346E-02
  0.288295E-02  0.292794E-02  0.296262E-02  0.298241E-02  0.329561E-02  0.330273E-02
  0.328760E-02  0.324969E-02  0.319179E-02  0.311925E-02  0.303859E-02  0.295654E-02
  0.288020E-02  0.281738E-02  0.277630E-02  0.276493E-02  0.279070E-02  0.286047E-02
  0.298073E-02  0.315767E-02  0.339708E-02  0.370391E-02  0.408143E-02  0.453022E-02
  0.504722E-02  0.562441E-02  0.624734E-02  0.689386E-02  0.753452E-02  0.813474E-02
  0.865866E-02  0.907304E-02  0.935013E-02  0.946984E-02  0.942199E-02  0.920897E-02
  0.884692E-02  0.836394E-02  0.779522E-02  0.717755E-02  0.654526E-02  0.592808E-02
  0.535007E-02  0.482890E-02  0.437548E-02  0.399427E-02  0.368479E-02  0.344346E-02
  0.326518E-02  0.314398E-02  0.307300E-02  0.304444E-02  0.304972E-02  0.307985E-02
  0.312561E-02  0.317783E-02  0.322808E-02  0.326923E-02  0.329561E-02  0.362501E-02
  0.363949E-02  0.363035E-02  0.359621E-02  0.353914E-02  0.346445E-02  0.337922E-02
  0.329115E-02  0.320834E-02  0.313953E-02  0.309410E-02  0.308155E-02  0.311119E-02
  0.319190E-02  0.333211E-02  0.353995E-02  0.382358E-02  0.419097E-02  0.464871E-02
  0.520022E-02  0.584392E-02  0.657166E-02  0.736690E-02  0.820321E-02  0.904390E-02
  0.984439E-02  0.105568E-01  0.111353E-01  0.115409E-01  0.117438E-01  0.117270E-01
  0.114900E-01  0.110508E-01  0.104445E-01  0.971708E-02  0.891785E-02  0.809311E-02
  0.728293E-02  0.651985E-02  0.582828E-02  0.522406E-02  0.471440E-02  0.429902E-02
  0.397240E-02  0.372651E-02  0.355270E-02  0.344212E-02  0.338542E-02  0.337243E-02
  0.339237E-02  0.343436E-02  0.348778E-02  0.354282E-02  0.359091E-02  0.362501E-02
  0.397125E-02  0.399484E-02  0.399379E-02  0.396576E-02  0.391197E-02  0.383725E-02
  0.374899E-02  0.365586E-02  0.356713E-02  0.349267E-02  0.344305E-02  0.342940E-02
  0.346311E-02  0.355535E-02  0.371678E-02  0.395797E-02  0.429019E-02  0.472539E-02
  0.527456E-02  0.594483E-02  0.673684E-02  0.764282E-02  0.864480E-02  0.971240E-02
  0.108015E-01  0.118556E-01  0.128115E-01  0.136067E-01  0.141861E-01  0.145076E-01
  0.145450E-01  0.142933E-01  0.137715E-01  0.130215E-01  0.121018E-01  0.110773E-01
  0.100107E-01  0.895649E-02  0.795875E-02  0.705030E-02  0.625285E-02  0.557725E-02
  0.502438E-02  0.458727E-02  0.425444E-02  0.401326E-02  0.385161E-02  0.375784E-02
  0.371989E-02  0.372505E-02  0.376036E-02  0.381336E-02  0.387265E-02  0.392816E-02
  0.397125E-02  0.433667E-02  0.437152E-02  0.438095E-02  0.436151E-02  0.431351E-02
  0.424103E-02  0.415139E-02  0.405407E-02  0.395967E-02  0.387940E-02  0.382513E-02
  0.380973E-02  0.384680E-02  0.395002E-02  0.413267E-02  0.440832E-02  0.479203E-02
  0.530063E-02  0.595041E-02  0.675326E-02  0.771314E-02  0.882384E-02  0.100670E-01
  0.114091E-01  0.127984E-01  0.141650E-01  0.154269E-01  0.164998E-01  0.173080E-01
  0.177926E-01  0.179162E-01  0.176675E-01  0.170650E-01  0.161563E-01  0.150126E-01
  0.137169E-01  0.123531E-01  0.109961E-01  0.970630E-02  0.852775E-02  0.748901E-02
  0.660483E-02  0.587770E-02  0.529988E-02  0.485671E-02  0.453074E-02  0.430508E-02
  0.416439E-02  0.409413E-02  0.407938E-02  0.410492E-02  0.415600E-02  0.421929E-02
  0.428298E-02  0.433667E-02  0.472511E-02  0.477401E-02  0.479691E-02  0.478902E-02
  0.474960E-02  0.468181E-02  0.459256E-02  0.449186E-02  0.439164E-02  0.430465E-02
  0.424432E-02  0.422532E-02  0.426358E-02  0.437552E-02  0.457744E-02  0.488646E-02
  0.532217E-02  0.590688E-02  0.666294E-02  0.760805E-02  0.875105E-02  0.100891E-01
  0.116051E-01  0.132630E-01  0.150034E-01  0.167412E-01  0.183725E-01  0.197870E-01
  0.208834E-01  0.215821E-01  0.218318E-01  0.216138E-01  0.209441E-01  0.198737E-01
  0.184843E-01  0.168778E-01  0.151629E-01  0.134411E-01  0.117959E-01  0.102877E-01
  0.895443E-02  0.781503E-02  0.687335E-02  0.612101E-02  0.554055E-02  0.510966E-02
  0.480552E-02  0.460751E-02  0.449729E-02  0.445734E-02  0.446996E-02  0.451790E-02
  0.458541E-02  0.465862E-02  0.472511E-02  0.514144E-02  0.520810E-02  0.524843E-02
  0.525587E-02  0.522842E-02  0.516818E-02  0.508131E-02  0.497798E-02  0.487133E-02
  0.477587E-02  0.470688E-02  0.468100E-02  0.471656E-02  0.483284E-02  0.504954E-02
  0.538789E-02  0.587256E-02  0.653186E-02  0.739472E-02  0.848569E-02  0.982028E-02
  0.114013E-01  0.132148E-01  0.152230E-01  0.173581E-01  0.195182E-01  0.215747E-01
  0.233878E-01  0.248270E-01  0.257894E-01  0.262087E-01  0.260581E-01  0.253494E-01
  0.241332E-01  0.224969E-01  0.205582E-01  0.184515E-01  0.163096E-01  0.142466E-01
  0.123464E-01  0.106616E-01  0.921762E-02  0.801939E-02  0.705722E-02  0.631074E-02
  0.575291E-02  0.535459E-02  0.508852E-02  0.493100E-02  0.486086E-02  0.485773E-02
  0.490169E-02  0.497427E-02  0.505908E-02  0.514144E-02  0.559138E-02  0.568077E-02
  0.574382E-02  0.577164E-02  0.576052E-02  0.571128E-02  0.562904E-02  0.552376E-02
  0.540957E-02  0.530292E-02  0.522131E-02  0.518364E-02  0.521070E-02  0.532471E-02
  0.554896E-02  0.590914E-02  0.643535E-02  0.716222E-02  0.812570E-02  0.935808E-02
  0.108833E-01  0.127122E-01  0.148358E-01  0.172157E-01  0.197748E-01  0.223928E-01
  0.249137E-01  0.271651E-01  0.289857E-01  0.302489E-01  0.308757E-01  0.308330E-01
  0.301283E-01  0.288062E-01  0.269515E-01  0.246898E-01  0.221775E-01  0.195806E-01
  0.170496E-01  0.147006E-01  0.126086E-01  0.108105E-01  0.931409E-02  0.810768E-02
  0.716698E-02  0.646007E-02  0.595154E-02  0.560683E-02  0.539540E-02  0.529106E-02
  0.527015E-02  0.531003E-02  0.538938E-02  0.548895E-02  0.559138E-02  0.608161E-02
  0.620047E-02  0.629328E-02  0.634818E-02  0.635911E-02  0.632517E-02  0.625021E-02
  0.614357E-02  0.602012E-02  0.589837E-02  0.579848E-02  0.574204E-02  0.575256E-02
  0.585523E-02  0.607692E-02  0.644778E-02  0.700340E-02  0.778471E-02  0.883483E-02
  0.101945E-01  0.118974E-01  0.139643E-01  0.163935E-01  0.191471E-01  0.221387E-01
  0.252281E-01  0.282289E-01  0.309333E-01  0.331474E-01  0.347244E-01  0.355789E-01
  0.356794E-01  0.350311E-01  0.336677E-01  0.316591E-01  0.291243E-01  0.262319E-01
  0.231782E-01  0.201544E-01  0.173167E-01  0.147716E-01  0.125754E-01  0.107431E-01
  0.926167E-02  0.810177E-02  0.722582E-02  0.659222E-02  0.615913E-02  0.588835E-02
  0.574729E-02  0.570805E-02  0.574507E-02  0.583422E-02  0.595321E-02  0.608161E-02
  0.661933E-02  0.677671E-02  0.690861E-02  0.699939E-02  0.703984E-02  0.702677E-02
  0.696238E-02  0.685505E-02  0.672009E-02  0.657806E-02  0.645224E-02  0.636753E-02
  0.635057E-02  0.642972E-02  0.663538E-02  0.700194E-02  0.757004E-02  0.838650E-02
  0.950127E-02  0.109635E-01  0.128175E-01  0.150954E-01  0.178045E-01  0.209093E-01
  0.243157E-01  0.278632E-01  0.313328E-01  0.344771E-01  0.370680E-01  0.389422E-01
  0.400188E-01  0.402807E-01  0.397395E-01  0.384156E-01  0.363500E-01  0.336355E-01
  0.304346E-01  0.269655E-01  0.234604E-01  0.201223E-01  0.170986E-01  0.144740E-01
  0.122774E-01  0.104972E-01  0.909903E-02  0.803871E-02  0.726823E-02  0.673894E-02
  0.640494E-02  0.622644E-02  0.617030E-02  0.620763E-02  0.631158E-02  0.645677E-02
  0.661933E-02  0.721066E-02  0.741836E-02  0.760137E-02  0.773938E-02  0.781908E-02
  0.783422E-02  0.778483E-02  0.767803E-02  0.752914E-02  0.736071E-02  0.719947E-02
  0.707427E-02  0.701555E-02  0.705525E-02  0.722743E-02  0.757039E-02  0.812920E-02
  0.895565E-02  0.101056E-01  0.116358E-01  0.136007E-01  0.160445E-01  0.189849E-01
  0.223918E-01  0.261664E-01  0.301302E-01  0.340314E-01  0.375801E-01  0.405104E-01
  0.426438E-01  0.439136E-01  0.443326E-01  0.439326E-01  0.427257E-01  0.407148E-01
  0.379450E-01  0.345492E-01  0.307507E-01  0.268177E-01  0.230040E-01  0.195057E-01
  0.164445E-01  0.138708E-01  0.117796E-01  0.101331E-01  0.888017E-02  0.796608E-02
  0.733599E-02  0.693712E-02  0.672250E-02  0.665313E-02  0.669633E-02  0.682247E-02
  0.700311E-02  0.721066E-02  0.785831E-02  0.813083E-02  0.837978E-02  0.857919E-02
  0.871052E-02  0.876349E-02  0.873534E-02  0.863140E-02  0.846668E-02  0.826547E-02
  0.805819E-02  0.787821E-02  0.776049E-02  0.774117E-02  0.785824E-02  0.815380E-02
  0.867664E-02  0.948250E-02  0.106317E-01  0.121869E-01  0.142110E-01  0.167593E-01
  0.198614E-01  0.234955E-01  0.275634E-01  0.318744E-01  0.361485E-01  0.400533E-01
  0.432815E-01  0.456357E-01  0.470646E-01  0.476206E-01  0.473712E-01  0.463324E-01
  0.444712E-01  0.417722E-01  0.383158E-01  0.343075E-01  0.300390E-01  0.258128E-01
  0.218784E-01  0.184010E-01  0.154593E-01  0.130609E-01  0.111681E-01  0.972356E-02
  0.866613E-02  0.793545E-02  0.747319E-02  0.722614E-02  0.714952E-02  0.720653E-02
  0.736464E-02  0.759241E-02  0.785831E-02  0.855910E-02  0.891307E-02  0.924524E-02
  0.952295E-02  0.972118E-02  0.982436E-02  0.982603E-02  0.972914E-02  0.954794E-02
  0.930825E-02  0.904424E-02  0.879432E-02  0.859863E-02  0.849817E-02  0.853525E-02
  0.875573E-02  0.921169E-02  0.996180E-02  0.110693E-01  0.126004E-01  0.146238E-01
  0.172037E-01  0.203814E-01  0.241466E-01  0.284080E-01  0.329725E-01  0.375423E-01
  0.417501E-01  0.452464E-01  0.478052E-01  0.493796E-01  0.500577E-01  0.499499E-01
  0.490921E-01  0.474303E-01  0.448929E-01  0.414962E-01  0.374068E-01  0.329204E-01
  0.283778E-01  0.240797E-01  0.202374E-01  0.169625E-01  0.142803E-01  0.121577E-01
  0.105338E-01  0.934196E-02  0.851719E-02  0.799724E-02  0.772432E-02  0.764870E-02
  0.772952E-02  0.793129E-02  0.821964E-02  0.855910E-02  0.930227E-02  0.975535E-02
  0.101896E-01  0.105648E-01  0.108480E-01  0.110167E-01  0.110596E-01  0.109765E-01
  0.107802E-01  0.104979E-01  0.101675E-01  0.983287E-02  0.954008E-02  0.933551E-02
  0.926623E-02  0.938189E-02  0.973747E-02  0.103938E-01  0.114156E-01  0.128705E-01
  0.148294E-01  0.173620E-01  0.205196E-01  0.243053E-01  0.286415E-01  0.333445E-01
  0.381150E-01  0.425667E-01  0.463138E-01  0.490921E-01  0.508365E-01  0.516492E-01
  0.516757E-01  0.509824E-01  0.495172E-01  0.471736E-01  0.439117E-01  0.398497E-01
  0.352670E-01  0.305246E-01  0.259631E-01  0.218363E-01  0.182890E-01  0.153677E-01
  0.130480E-01  0.112693E-01  0.996130E-02  0.905600E-02  0.848900E-02  0.819997E-02
  0.813572E-02  0.825187E-02  0.851010E-02  0.887328E-02  0.930227E-02  0.100686E-01
  0.106382E-01  0.111939E-01  0.116870E-01  0.120752E-01  0.123277E-01  0.124265E-01
  0.123669E-01  0.121598E-01  0.118331E-01  0.114285E-01  0.109960E-01  0.105881E-01
  0.102573E-01  0.100558E-01  0.100372E-01  0.102587E-01  0.107828E-01  0.116746E-01
  0.130012E-01  0.148325E-01  0.172394E-01  0.202797E-01  0.239699E-01  0.282514E-01
  0.329612E-01  0.378172E-01  0.424368E-01  0.464135E-01  0.494413E-01  0.514119E-01
  0.524068E-01  0.525822E-01  0.520326E-01  0.507277E-01  0.485579E-01  0.454526E-01
  0.414883E-01  0.369163E-01  0.320960E-01  0.273896E-01  0.230817E-01  0.193461E-01
  0.162504E-01  0.137825E-01  0.118855E-01  0.104888E-01  0.952340E-02  0.892482E-02
  0.863241E-02  0.859142E-02  0.875508E-02  0.908265E-02  0.953458E-02  0.100686E-01
  0.108302E-01  0.115320E-01  0.122272E-01  0.128585E-01  0.133730E-01  0.137296E-01
  0.139017E-01  0.138789E-01  0.136689E-01  0.132994E-01  0.128161E-01  0.122752E-01
  0.117365E-01  0.112595E-01  0.109022E-01  0.107221E-01  0.107787E-01  0.111348E-01
  0.118553E-01  0.130051E-01  0.146506E-01  0.168598E-01  0.196925E-01  0.231763E-01
  0.272731E-01  0.318493E-01  0.366562E-01  0.413383E-01  0.454923E-01  0.487792E-01
  0.510315E-01  0.522748E-01  0.526403E-01  0.522332E-01  0.510535E-01  0.490173E-01
  0.460566E-01  0.422274E-01  0.377519E-01  0.329705E-01  0.282453E-01  0.238746E-01
  0.200518E-01  0.168628E-01  0.143089E-01  0.123406E-01  0.108903E-01  0.989079E-02
  0.927984E-02  0.899873E-02  0.899335E-02  0.921608E-02  0.962460E-02  0.101776E-01
  0.108302E-01  0.115515E-01  0.123978E-01  0.132477E-01  0.140352E-01  0.146963E-01
  0.151778E-01  0.154429E-01  0.154733E-01  0.152721E-01  0.148662E-01  0.143041E-01
  0.136485E-01  0.129672E-01  0.123278E-01  0.117949E-01  0.114307E-01  0.112965E-01
  0.114546E-01  0.119684E-01  0.129001E-01  0.143110E-01  0.162626E-01  0.188120E-01
  0.219930E-01  0.257870E-01  0.300927E-01  0.347047E-01  0.393130E-01  0.435425E-01
  0.470421E-01  0.495874E-01  0.511268E-01  0.517324E-01  0.514929E-01  0.504322E-01
  0.485074E-01  0.456817E-01  0.420152E-01  0.377088E-01  0.330748E-01  0.284558E-01
  0.241459E-01  0.203459E-01  0.171546E-01  0.145858E-01  0.126002E-01  0.111366E-01
  0.101327E-01  0.953068E-02  0.927603E-02  0.931756E-02  0.960872E-02  0.101070E-01
  0.107701E-01  0.115515E-01  0.121914E-01  0.131891E-01  0.142034E-01  0.151605E-01
  0.159850E-01  0.166107E-01  0.169884E-01  0.170906E-01  0.169141E-01  0.164834E-01
  0.158486E-01  0.150783E-01  0.142488E-01  0.134364E-01  0.127141E-01  0.121493E-01
  0.118053E-01  0.117435E-01  0.120247E-01  0.127074E-01  0.138471E-01  0.154971E-01
  0.177076E-01  0.205130E-01  0.239094E-01  0.278258E-01  0.321024E-01  0.364840E-01
  0.406425E-01  0.442404E-01  0.470162E-01  0.488427E-01  0.497150E-01  0.496795E-01
  0.487661E-01  0.469714E-01  0.443024E-01  0.408405E-01  0.367762E-01  0.323910E-01
  0.279960E-01  0.238665E-01  0.201987E-01  0.170975E-01  0.145878E-01  0.126414E-01
  0.112069E-01  0.102294E-01  0.965787E-02  0.944378E-02  0.954099E-02  0.990624E-02
  0.104986E-01  0.112760E-01  0.121914E-01  0.127060E-01  0.138549E-01  0.150359E-01
  0.161684E-01  0.171668E-01  0.179512E-01  0.184592E-01  0.186522E-01  0.185192E-01
  0.180804E-01  0.173862E-01  0.165096E-01  0.155347E-01  0.145474E-01  0.136297E-01
  0.128559E-01  0.122922E-01  0.119988E-01  0.120326E-01  0.124480E-01  0.132943E-01
  0.146167E-01  0.164555E-01  0.188408E-01  0.217762E-01  0.252156E-01  0.290411E-01
  0.330521E-01  0.369765E-01  0.405110E-01  0.433855E-01  0.454194E-01  0.465349E-01
  0.467242E-01  0.460030E-01  0.443924E-01  0.419381E-01  0.387461E-01  0.350028E-01
  0.309606E-01  0.268944E-01  0.230514E-01  0.196150E-01  0.166895E-01  0.143084E-01
  0.124553E-01  0.110906E-01  0.101691E-01  0.964776E-02  0.948584E-02  0.964391E-02
  0.100841E-01  0.107689E-01  0.116585E-01  0.127060E-01  0.130536E-01  0.143443E-01
  0.156847E-01  0.169890E-01  0.181623E-01  0.191126E-01  0.197635E-01  0.200643E-01
  0.199948E-01  0.195692E-01  0.188359E-01  0.178705E-01  0.167635E-01  0.156100E-01
  0.145015E-01  0.135205E-01  0.127373E-01  0.122115E-01  0.119959E-01  0.121395E-01
  0.126858E-01  0.136723E-01  0.151291E-01  0.170783E-01  0.195244E-01  0.224381E-01
  0.257358E-01  0.292664E-01  0.328127E-01  0.361173E-01  0.389260E-01  0.410358E-01
  0.423188E-01  0.427173E-01  0.422216E-01  0.408576E-01  0.386920E-01  0.358463E-01
  0.325015E-01  0.288831E-01  0.252302E-01  0.217589E-01  0.186341E-01  0.159554E-01
  0.137618E-01  0.120487E-01  0.107891E-01  0.994879E-02  0.949405E-02  0.939230E-02
  0.961209E-02  0.101226E-01  0.108919E-01  0.118839E-01  0.130536E-01  0.131992E-01
  0.146128E-01  0.160947E-01  0.175555E-01  0.188938E-01  0.200070E-01  0.208059E-01
  0.212270E-01  0.212397E-01  0.208509E-01  0.201048E-01  0.190769E-01  0.178621E-01
  0.165630E-01  0.152804E-01  0.141056E-01  0.131144E-01  0.123671E-01  0.119126E-01
  0.117939E-01  0.120486E-01  0.127072E-01  0.137913E-01  0.153135E-01  0.172747E-01
  0.196541E-01  0.223934E-01  0.253818E-01  0.284521E-01  0.313946E-01  0.339867E-01
  0.360296E-01  0.373740E-01  0.379294E-01  0.376606E-01  0.365834E-01  0.347662E-01
  0.323303E-01  0.294444E-01  0.263075E-01  0.231251E-01  0.200829E-01  0.173251E-01
  0.149438E-01  0.129813E-01  0.114436E-01  0.103161E-01  0.957607E-02  0.919904E-02
  0.916098E-02  0.943884E-02  0.100099E-01  0.108493E-01  0.119262E-01  0.131992E-01
  0.131202E-01  0.146279E-01  0.162225E-01  0.178133E-01  0.192946E-01  0.205563E-01
  0.214985E-01  0.220455E-01  0.221557E-01  0.218272E-01  0.210981E-01  0.200411E-01
  0.187526E-01  0.173403E-01  0.159128E-01  0.145698E-01  0.133937E-01  0.124467E-01
  0.117753E-01  0.114165E-01  0.114015E-01  0.117548E-01  0.124910E-01  0.136149E-01
  0.151217E-01  0.169928E-01  0.191860E-01  0.216210E-01  0.241726E-01  0.266756E-01
  0.289454E-01  0.308044E-01  0.321053E-01  0.327449E-01  0.326704E-01  0.318824E-01
  0.304368E-01  0.284409E-01  0.260426E-01  0.234133E-01  0.207269E-01  0.181404E-01
  0.157775E-01  0.137212E-01  0.120155E-01  0.106751E-01  0.969680E-02  0.906835E-02
  0.877419E-02  0.879846E-02  0.912646E-02  0.974385E-02  0.106335E-01  0.117712E-01
  0.131202E-01  0.128104E-01  0.143752E-01  0.160444E-01  0.177279E-01  0.193190E-01
  0.207034E-01  0.217736E-01  0.224435E-01  0.226605E-01  0.224130E-01  0.217314E-01
  0.206832E-01  0.193625E-01  0.178791E-01  0.163470E-01  0.148729E-01  0.135454E-01
  0.124305E-01  0.115736E-01  0.110070E-01  0.107555E-01  0.108375E-01  0.112626E-01
  0.120300E-01  0.131299E-01  0.145431E-01  0.162358E-01  0.181488E-01  0.201893E-01
  0.222312E-01  0.241274E-01  0.257295E-01  0.269064E-01  0.275581E-01  0.276246E-01
  0.270932E-01  0.260019E-01  0.244359E-01  0.225171E-01  0.203872E-01  0.181901E-01
  0.160560E-01  0.140892E-01  0.123632E-01  0.109222E-01  0.978741E-02  0.896493E-02
  0.845144E-02  0.823921E-02  0.831994E-02  0.868671E-02  0.933316E-02  0.102498E-01
  0.114191E-01  0.128104E-01  0.122811E-01  0.138609E-01  0.155597E-01  0.172909E-01
  0.189496E-01  0.204211E-01  0.215942E-01  0.223747E-01  0.227001E-01  0.225490E-01
  0.219427E-01  0.209412E-01  0.196335E-01  0.181276E-01  0.165396E-01  0.149805E-01
  0.135444E-01  0.123011E-01  0.112970E-01  0.105614E-01  0.101139E-01  0.996728E-02
  0.101264E-01  0.105870E-01  0.113365E-01  0.123546E-01  0.136119E-01  0.150626E-01
  0.166371E-01  0.182406E-01  0.197599E-01  0.210769E-01  0.220829E-01  0.226902E-01
  0.228405E-01  0.225127E-01  0.217281E-01  0.205487E-01  0.190683E-01  0.173993E-01
  0.156569E-01  0.139463E-01  0.123542E-01  0.109447E-01  0.976078E-02  0.882794E-02
  0.815865E-02  0.775639E-02  0.761998E-02  0.774770E-02  0.813959E-02  0.879630E-02
  0.971514E-02  0.108850E-01  0.122811E-01  0.115598E-01  0.131113E-01  0.147923E-01
  0.165221E-01  0.182008E-01  0.197173E-01  0.209599E-01  0.218302E-01  0.222574E-01
  0.222105E-01  0.217012E-01  0.207805E-01  0.195298E-01  0.180517E-01  0.164605E-01
  0.148682E-01  0.133723E-01  0.120459E-01  0.109372E-01  0.100751E-01  0.947568E-02
  0.914713E-02  0.909017E-02  0.929785E-02  0.975614E-02  0.104452E-01  0.113385E-01
  0.123990E-01  0.135732E-01  0.147898E-01  0.159631E-01  0.170023E-01  0.178221E-01
  0.183503E-01  0.185358E-01  0.183545E-01  0.178149E-01  0.169585E-01  0.158537E-01
  0.145854E-01  0.132426E-01  0.119085E-01  0.106534E-01  0.953270E-02  0.858667E-02
  0.784242E-02  0.731611E-02  0.701582E-02  0.694535E-02  0.710846E-02  0.751094E-02
  0.815922E-02  0.905612E-02  0.101959E-01  0.115598E-01  0.106856E-01  0.121687E-01
  0.137866E-01  0.154670E-01  0.171176E-01  0.186339E-01  0.199079E-01  0.208400E-01
  0.213543E-01  0.214108E-01  0.210118E-01  0.201984E-01  0.190427E-01  0.176393E-01
  0.160966E-01  0.145244E-01  0.130199E-01  0.116584E-01  0.104901E-01  0.954484E-02
  0.883781E-02  0.837435E-02  0.815191E-02  0.816109E-02  0.838704E-02  0.881087E-02
  0.940931E-02  0.101518E-01  0.109967E-01  0.118897E-01  0.127663E-01  0.135581E-01
  0.141998E-01  0.146351E-01  0.148217E-01  0.147364E-01  0.143796E-01  0.137769E-01
  0.129757E-01  0.120377E-01  0.110293E-01  0.100146E-01  0.904989E-02  0.818177E-02
  0.744660E-02  0.687080E-02  0.647187E-02  0.626050E-02  0.624408E-02  0.643044E-02
  0.682963E-02  0.745231E-02  0.830547E-02  0.938780E-02  0.106856E-01  0.970494E-02
  0.110863E-01  0.126026E-01  0.141909E-01  0.157690E-01  0.172414E-01  0.185068E-01
  0.194684E-01  0.200481E-01  0.201990E-01  0.199143E-01  0.192251E-01  0.181931E-01
  0.169032E-01  0.154551E-01  0.139522E-01  0.124889E-01  0.111399E-01  0.995691E-02
  0.897120E-02  0.819883E-02  0.764452E-02  0.730404E-02  0.716620E-02  0.721534E-02
  0.743346E-02  0.780026E-02  0.829089E-02  0.887293E-02  0.950509E-02  0.101389E-01
  0.107232E-01  0.112084E-01  0.115517E-01  0.117195E-01  0.116914E-01  0.114634E-01
  0.110501E-01  0.104830E-01  0.980514E-02  0.906525E-02  0.831141E-02  0.758772E-02
  0.693243E-02  0.637695E-02  0.594535E-02  0.565481E-02  0.551729E-02  0.554245E-02
  0.574073E-02  0.612469E-02  0.670746E-02  0.749888E-02  0.850112E-02  0.970494E-02
  0.866721E-02  0.992212E-02  0.113076E-01  0.127702E-01  0.142389E-01  0.156288E-01
  0.168475E-01  0.178048E-01  0.184235E-01  0.186530E-01  0.184783E-01  0.179202E-01
  0.170300E-01  0.158817E-01  0.145644E-01  0.131723E-01  0.117938E-01  0.105008E-01
  0.934491E-02  0.835883E-02  0.756011E-02  0.695439E-02  0.653756E-02  0.629800E-02
  0.621977E-02  0.628548E-02  0.647712E-02  0.677441E-02  0.715232E-02  0.757984E-02
  0.802093E-02  0.843731E-02  0.879190E-02  0.905198E-02  0.919155E-02  0.919352E-02
  0.905211E-02  0.877465E-02  0.838124E-02  0.790159E-02  0.737036E-02  0.682299E-02
  0.629313E-02  0.581115E-02  0.540306E-02  0.508979E-02  0.488734E-02  0.480807E-02
  0.486289E-02  0.506338E-02  0.542289E-02  0.595530E-02  0.667194E-02  0.757766E-02
  0.866721E-02  0.762010E-02  0.873337E-02  0.996902E-02  0.112831E-01  0.126153E-01
  0.138920E-01  0.150317E-01  0.159525E-01  0.165823E-01  0.168700E-01  0.167940E-01
  0.163656E-01  0.156249E-01  0.146346E-01  0.134722E-01  0.122212E-01  0.109615E-01
  0.976020E-02  0.866737E-02  0.771619E-02  0.692553E-02  0.630253E-02  0.584440E-02
  0.554062E-02  0.537614E-02  0.533459E-02  0.539969E-02  0.555440E-02  0.577915E-02
  0.605073E-02  0.634265E-02  0.662674E-02  0.687540E-02  0.706388E-02  0.717216E-02