 CRYSTAL
 PRIMVEC
    4.427251455    0.000008183   -0.000000000
   -0.977946227    4.165213795   -0.000000000
   -0.000000000   -0.000000000    4.577366125
 PRIMCOORD
           4           1
Si       -0.094352516    1.014774805    1.546367174
Si        2.216982840    1.761035722    0.636262447
Si        0.094362254    2.479394860    3.617742359
Si        2.210273051    0.603893741    2.673584409
BEGIN_BLOCK_DATAGRID_3D
3D_PWSCF
BEGIN_DATAGRID_3D_UNKNOWN
          46          41          46
  0.000000  0.000000  0.000000
    4.427251    0.000008   -0.000000
   -0.977946    4.165214   -0.000000
   -0.000000   -0.000000    4.577366
  0.657546E-02  0.667693E-02  0.675781E-02  0.682005E-02  0.686709E-02  0.690425E-02
  0.693887E-02  0.697953E-02  0.703409E-02  0.710786E-02  0.720309E-02  0.732002E-02
  0.745841E-02  0.761795E-02  0.779695E-02  0.799020E-02  0.818791E-02  0.837657E-02
  0.854120E-02  0.866752E-02  0.874279E-02  0.875616E-02  0.869962E-02  0.856986E-02
  0.836991E-02  0.810910E-02  0.780146E-02  0.746337E-02  0.711206E-02  0.676471E-02
  0.643773E-02  0.614558E-02  0.589959E-02  0.570716E-02  0.557200E-02  0.549472E-02
  0.547352E-02  0.550438E-02  0.558114E-02  0.569542E-02  0.583700E-02  0.599440E-02
  0.615607E-02  0.631160E-02  0.645304E-02  0.657546E-02  0.703290E-02  0.709412E-02
  0.712482E-02  0.712901E-02  0.711293E-02  0.708527E-02  0.705729E-02  0.704206E-02
  0.705242E-02  0.709863E-02  0.718710E-02  0.732079E-02  0.750054E-02  0.772576E-02
  0.799356E-02  0.829672E-02  0.862234E-02  0.895222E-02  0.926491E-02  0.953817E-02
  0.975076E-02  0.988358E-02  0.992145E-02  0.985558E-02  0.968593E-02  0.942186E-02
  0.908050E-02  0.868385E-02  0.825614E-02  0.782178E-02  0.740380E-02  0.702225E-02
  0.669290E-02  0.642652E-02  0.622904E-02  0.610219E-02  0.604419E-02  0.605009E-02
  0.611199E-02  0.621908E-02  0.635809E-02  0.651406E-02  0.667173E-02  0.681725E-02
  0.693984E-02  0.703290E-02  0.768208E-02  0.771470E-02  0.770609E-02  0.766185E-02
  0.759108E-02  0.750605E-02  0.742197E-02  0.735604E-02  0.732550E-02  0.734533E-02
  0.742654E-02  0.757595E-02  0.779696E-02  0.808999E-02  0.845172E-02  0.887341E-02
  0.933937E-02  0.982692E-02  0.103080E-01  0.107518E-01  0.111268E-01  0.114037E-01
  0.115578E-01  0.115725E-01  0.114430E-01  0.111771E-01  0.107943E-01  0.103225E-01
  0.979450E-02  0.924413E-02  0.870359E-02  0.820070E-02  0.775734E-02  0.738881E-02
  0.710412E-02  0.690675E-02  0.679530E-02  0.676396E-02  0.680281E-02  0.689822E-02
  0.703356E-02  0.719023E-02  0.734919E-02  0.749280E-02  0.760686E-02  0.768208E-02
  0.850512E-02  0.852018E-02  0.848279E-02  0.839928E-02  0.828133E-02  0.814508E-02
  0.801004E-02  0.789763E-02  0.782929E-02  0.782457E-02  0.789956E-02  0.806608E-02
  0.833153E-02  0.869862E-02  0.916451E-02  0.971933E-02  0.103448E-01  0.110139E-01
  0.116919E-01  0.123384E-01  0.129099E-01  0.133642E-01  0.136640E-01  0.137827E-01
  0.137084E-01  0.134459E-01  0.130161E-01  0.124526E-01  0.117978E-01  0.110975E-01
  0.103958E-01  0.973131E-02  0.913423E-02  0.862622E-02  0.822077E-02  0.792410E-02
  0.773586E-02  0.764948E-02  0.765271E-02  0.772844E-02  0.785603E-02  0.801281E-02
  0.817577E-02  0.832333E-02  0.843738E-02  0.850512E-02  0.948381E-02  0.949165E-02
  0.943610E-02  0.932309E-02  0.916613E-02  0.898507E-02  0.880403E-02  0.864902E-02
  0.854593E-02  0.851916E-02  0.859046E-02  0.877768E-02  0.909347E-02  0.954399E-02
  0.101277E-01  0.108342E-01  0.116431E-01  0.125235E-01  0.134341E-01  0.143242E-01
  0.151366E-01  0.158122E-01  0.162975E-01  0.165521E-01  0.165545E-01  0.163049E-01
  0.158245E-01  0.151528E-01  0.143427E-01  0.134542E-01  0.125466E-01  0.116725E-01
  0.108736E-01  0.101801E-01  0.961141E-02  0.917783E-02  0.888102E-02  0.871431E-02
  0.866315E-02  0.870642E-02  0.881860E-02  0.897208E-02  0.913925E-02  0.929422E-02
  0.941469E-02  0.948381E-02  0.105992E-01  0.106092E-01  0.105463E-01  0.104147E-01
  0.102286E-01  0.100107E-01  0.978952E-02  0.959614E-02  0.946162E-02  0.941600E-02
  0.948742E-02  0.970056E-02  0.100742E-01  0.106192E-01  0.113362E-01  0.122155E-01
  0.132353E-01  0.143616E-01  0.155469E-01  0.167298E-01  0.178369E-01  0.187890E-01
  0.195113E-01  0.199446E-01  0.200539E-01  0.198326E-01  0.193016E-01  0.185061E-01
  0.175105E-01  0.163910E-01  0.152259E-01  0.140862E-01  0.130290E-01  0.120957E-01
  0.113136E-01  0.106976E-01  0.102521E-01  0.997132E-02  0.983902E-02  0.983041E-02
  0.991459E-02  0.100579E-01  0.102269E-01  0.103905E-01  0.105217E-01  0.105992E-01
  0.118333E-01  0.118538E-01  0.117940E-01  0.116555E-01  0.114518E-01  0.112069E-01
  0.109531E-01  0.107265E-01  0.105645E-01  0.105038E-01  0.105800E-01  0.108251E-01
  0.112646E-01  0.119148E-01  0.127807E-01  0.138547E-01  0.151154E-01  0.165260E-01
  0.180325E-01  0.195618E-01  0.210231E-01  0.223142E-01  0.233342E-01  0.239995E-01
  0.242567E-01  0.240890E-01  0.235151E-01  0.225855E-01  0.213767E-01  0.199828E-01
  0.185043E-01  0.170353E-01  0.156540E-01  0.144178E-01  0.133641E-01  0.125135E-01
  0.118729E-01  0.114370E-01  0.111888E-01  0.111011E-01  0.111381E-01  0.112598E-01
  0.114254E-01  0.115970E-01  0.117416E-01  0.118333E-01  0.131733E-01  0.132120E-01
  0.131652E-01  0.130315E-01  0.128221E-01  0.125610E-01  0.122829E-01  0.120289E-01
  0.118435E-01  0.117718E-01  0.118574E-01  0.121399E-01  0.126520E-01  0.134167E-01
  0.144451E-01  0.157345E-01  0.172653E-01  0.189984E-01  0.208718E-01  0.227995E-01
  0.246716E-01  0.263617E-01  0.277405E-01  0.286962E-01  0.291518E-01  0.290752E-01
  0.284799E-01  0.274198E-01  0.259826E-01  0.242803E-01  0.224371E-01  0.205746E-01
  0.187979E-01  0.171872E-01  0.157955E-01  0.146514E-01  0.137640E-01  0.131271E-01
  0.127228E-01  0.125221E-01  0.124862E-01  0.125696E-01  0.127236E-01  0.129013E-01
  0.130620E-01  0.131733E-01  0.146158E-01  0.146813E-01  0.146575E-01  0.145392E-01
  0.143351E-01  0.140679E-01  0.137732E-01  0.134972E-01  0.132917E-01  0.132114E-01
  0.133089E-01  0.136319E-01  0.142204E-01  0.151051E-01  0.163055E-01  0.178259E-01
  0.196503E-01  0.217369E-01  0.240141E-01  0.263802E-01  0.287049E-01  0.308373E-01
  0.326210E-01  0.339159E-01  0.346200E-01  0.346824E-01  0.341062E-01  0.329440E-01
  0.312899E-01  0.292709E-01  0.270336E-01  0.247282E-01  0.224917E-01  0.204346E-01
  0.186333E-01  0.171301E-01  0.159389E-01  0.150525E-01  0.144496E-01  0.140992E-01
  0.139608E-01  0.139851E-01  0.141165E-01  0.142980E-01  0.144782E-01  0.146158E-01
  0.161669E-01  0.162700E-01  0.162800E-01  0.161879E-01  0.159992E-01  0.157345E-01
  0.154300E-01  0.151355E-01  0.149111E-01  0.148214E-01  0.149291E-01  0.152904E-01
  0.159532E-01  0.169569E-01  0.183308E-01  0.200883E-01  0.222178E-01  0.246740E-01
  0.273734E-01  0.301946E-01  0.329838E-01  0.355654E-01  0.377599E-01  0.394067E-01
  0.403862E-01  0.406323E-01  0.401350E-01  0.389361E-01  0.371248E-01  0.348311E-01
  0.322163E-01  0.294569E-01  0.267239E-01  0.241643E-01  0.218870E-01  0.199580E-01
  0.184029E-01  0.172161E-01  0.163729E-01  0.158378E-01  0.155679E-01  0.155115E-01
  0.156076E-01  0.157898E-01  0.159940E-01  0.161669E-01  0.178360E-01  0.179898E-01
  0.180471E-01  0.179936E-01  0.178312E-01  0.175780E-01  0.172695E-01  0.169591E-01
  0.167145E-01  0.166107E-01  0.167212E-01  0.171115E-01  0.178378E-01  0.189495E-01
  0.204867E-01  0.224729E-01  0.249010E-01  0.277211E-01  0.308341E-01  0.340931E-01
  0.373136E-01  0.402922E-01  0.428316E-01  0.447677E-01  0.459865E-01  0.464272E-01
  0.460739E-01  0.449489E-01  0.431126E-01  0.406709E-01  0.377771E-01  0.346219E-01
  0.314093E-01  0.283291E-01  0.255331E-01  0.231229E-01  0.211474E-01  0.196111E-01
  0.184884E-01  0.177384E-01  0.173129E-01  0.171570E-01  0.172058E-01  0.173847E-01
  0.176174E-01  0.178360E-01  0.196296E-01  0.198494E-01  0.199705E-01  0.199712E-01
  0.198487E-01  0.196176E-01  0.193123E-01  0.189884E-01  0.187208E-01  0.185948E-01
  0.186950E-01  0.190969E-01  0.198663E-01  0.210628E-01  0.227381E-01  0.249260E-01
  0.276239E-01  0.307760E-01  0.342629E-01  0.379029E-01  0.414684E-01  0.447187E-01
  0.474436E-01  0.494993E-01  0.508178E-01  0.513861E-01  0.512112E-01  0.502963E-01
  0.486454E-01  0.462933E-01  0.433382E-01  0.399526E-01  0.363629E-01  0.328071E-01
  0.294940E-01  0.265760E-01  0.241406E-01  0.222146E-01  0.207797E-01  0.197911E-01
  0.191932E-01  0.189250E-01  0.189172E-01  0.190894E-01  0.193543E-01  0.196296E-01
  0.215497E-01  0.218530E-01  0.220579E-01  0.221322E-01  0.220662E-01  0.218704E-01
  0.215766E-01  0.212419E-01  0.209469E-01  0.207870E-01  0.208583E-01  0.212472E-01
  0.220295E-01  0.232752E-01  0.250475E-01  0.273902E-01  0.303056E-01  0.337309E-01
  0.375221E-01  0.414521E-01  0.452335E-01  0.485736E-01  0.512488E-01  0.531598E-01
  0.543318E-01  0.548575E-01  0.548156E-01  0.542136E-01  0.529850E-01  0.510441E-01
  0.483653E-01  0.450421E-01  0.412890E-01  0.373894E-01  0.336242E-01  0.302179E-01
  0.273147E-01  0.249795E-01  0.232124E-01  0.219711E-01  0.211925E-01  0.208068E-01
  0.207389E-01  0.209038E-01  0.212060E-01  0.215497E-01  0.235951E-01  0.240030E-01
  0.243157E-01  0.244866E-01  0.244967E-01  0.243505E-01  0.240768E-01  0.237327E-01
  0.234033E-01  0.231936E-01  0.232113E-01  0.235547E-01  0.243102E-01  0.255578E-01
  0.273712E-01  0.298037E-01  0.328623E-01  0.364784E-01  0.404825E-01  0.445949E-01
  0.484543E-01  0.516996E-01  0.540864E-01  0.555727E-01  0.563124E-01  0.565541E-01
  0.565016E-01  0.562098E-01  0.555605E-01  0.543267E-01  0.522996E-01  0.494153E-01
  0.458129E-01  0.417931E-01  0.377150E-01  0.338963E-01  0.305605E-01  0.278275E-01
  0.257290E-01  0.242340E-01  0.232765E-01  0.227778E-01  0.226550E-01  0.228185E-01
  0.231675E-01  0.235951E-01  0.257584E-01  0.262966E-01  0.267450E-01  0.270392E-01
  0.271472E-01  0.270659E-01  0.268202E-01  0.264662E-01  0.260924E-01  0.258122E-01
  0.257453E-01  0.260027E-01  0.266818E-01  0.278726E-01  0.296578E-01  0.320993E-01
  0.352096E-01  0.389173E-01  0.430321E-01  0.472257E-01  0.510597E-01  0.540938E-01
  0.560485E-01  0.569312E-01  0.570296E-01  0.567676E-01  0.565068E-01  0.563948E-01
  0.563090E-01  0.559112E-01  0.547970E-01  0.526884E-01  0.495729E-01  0.457110E-01
  0.415197E-01  0.374192E-01  0.337311E-01  0.306475E-01  0.282446E-01  0.265132E-01
  0.253918E-01  0.247955E-01  0.246338E-01  0.248122E-01  0.252256E-01  0.257584E-01
  0.280149E-01  0.287127E-01  0.293274E-01  0.297737E-01  0.300036E-01  0.300042E-01
  0.297953E-01  0.294311E-01  0.290023E-01  0.286288E-01  0.284420E-01  0.285661E-01
  0.291107E-01  0.301753E-01  0.318510E-01  0.342078E-01  0.372652E-01  0.409546E-01
  0.450768E-01  0.492714E-01  0.530386E-01  0.558601E-01  0.574034E-01  0.576926E-01
  0.571162E-01  0.562521E-01  0.556196E-01  0.554844E-01  0.557729E-01  0.561023E-01
  0.559217E-01  0.547396E-01  0.523437E-01  0.488878E-01  0.447974E-01  0.405783E-01
  0.366544E-01  0.333004E-01  0.306476E-01  0.287181E-01  0.274629E-01  0.267973E-01
  0.266247E-01  0.268452E-01  0.273496E-01  0.280149E-01  0.303068E-01  0.311938E-01
  0.320042E-01  0.326309E-01  0.330075E-01  0.331096E-01  0.329506E-01  0.325813E-01
  0.320918E-01  0.316065E-01  0.312665E-01  0.312089E-01  0.315560E-01  0.324174E-01
  0.338927E-01  0.360607E-01  0.389509E-01  0.425050E-01  0.465313E-01  0.506650E-01
  0.543777E-01  0.570927E-01  0.584097E-01  0.583181E-01  0.572392E-01  0.558471E-01
  0.547880E-01  0.544472E-01  0.548370E-01  0.555991E-01  0.561200E-01  0.557571E-01
  0.541087E-01  0.511822E-01  0.473552E-01  0.431751E-01  0.391481E-01  0.356278E-01
  0.328035E-01  0.307345E-01  0.293920E-01  0.286974E-01  0.285520E-01  0.288504E-01
  0.294785E-01  0.303068E-01  0.325352E-01  0.336362E-01  0.346659E-01  0.354960E-01
  0.360420E-01  0.362668E-01  0.361765E-01  0.358166E-01  0.352729E-01  0.346693E-01
  0.341529E-01  0.338722E-01  0.339620E-01  0.345425E-01  0.357228E-01  0.375925E-01
  0.401953E-01  0.434913E-01  0.473128E-01  0.513221E-01  0.550052E-01  0.577648E-01
  0.591336E-01  0.590142E-01  0.577719E-01  0.560913E-01  0.546898E-01  0.540541E-01
  0.542970E-01  0.551342E-01  0.559710E-01  0.561066E-01  0.550159E-01  0.525718E-01
  0.490677E-01  0.450401E-01  0.410356E-01  0.374640E-01  0.345639E-01  0.324313E-01
  0.310618E-01  0.303885E-01  0.303142E-01  0.307296E-01  0.315154E-01  0.325352E-01
  0.345663E-01  0.358977E-01  0.371598E-01  0.382066E-01  0.389371E-01  0.393030E-01
  0.393033E-01  0.389763E-01  0.383991E-01  0.376882E-01  0.369901E-01  0.364607E-01
  0.362462E-01  0.364782E-01  0.372761E-01  0.387424E-01  0.409388E-01  0.438511E-01
  0.473485E-01  0.511449E-01  0.547834E-01  0.576947E-01  0.593713E-01  0.596019E-01
  0.586136E-01  0.570005E-01  0.554720E-01  0.545768E-01  0.545240E-01  0.551296E-01
  0.558785E-01  0.561018E-01  0.552430E-01  0.530954E-01  0.498676E-01  0.460444E-01
  0.421636E-01  0.386535E-01  0.357816E-01  0.336729E-01  0.323461E-01  0.317497E-01
  0.317914E-01  0.323606E-01  0.333331E-01  0.345663E-01  0.362510E-01  0.378186E-01
  0.393149E-01  0.405792E-01  0.414977E-01  0.420141E-01  0.421225E-01  0.418543E-01
  0.412742E-01  0.404835E-01  0.396190E-01  0.388373E-01  0.382938E-01  0.381311E-01
  0.384799E-01  0.394560E-01  0.411416E-01  0.435517E-01  0.465990E-01  0.500618E-01
  0.535675E-01  0.566217E-01  0.587258E-01  0.595714E-01  0.592058E-01  0.580429E-01
  0.566896E-01  0.556908E-01  0.553254E-01  0.555173E-01  0.558701E-01  0.558175E-01
  0.548580E-01  0.527758E-01  0.497206E-01  0.461068E-01  0.424221E-01  0.390741E-01
  0.363326E-01  0.343372E-01  0.331252E-01  0.326604E-01  0.328592E-01  0.336120E-01
  0.347919E-01  0.362510E-01  0.374452E-01  0.392453E-01  0.409676E-01  0.424396E-01
  0.435380E-01  0.442026E-01  0.444262E-01  0.442362E-01  0.436838E-01  0.428495E-01
  0.418508E-01  0.408364E-01  0.399659E-01  0.393927E-01  0.392582E-01  0.396909E-01
  0.407916E-01  0.426047E-01  0.450857E-01  0.480776E-01  0.512990E-01  0.543572E-01
  0.568144E-01  0.583198E-01  0.587598E-01  0.583277E-01  0.574454E-01  0.565719E-01
  0.560040E-01  0.557591E-01  0.555775E-01  0.550402E-01  0.537623E-01  0.515764E-01
  0.486065E-01  0.451969E-01  0.417619E-01  0.386593E-01  0.361375E-01  0.343358E-01
  0.333029E-01  0.330165E-01  0.334037E-01  0.343597E-01  0.357574E-01  0.374452E-01
  0.380240E-01  0.400451E-01  0.419792E-01  0.436438E-01  0.449084E-01  0.457110E-01
  0.460470E-01  0.459434E-01  0.454407E-01  0.445970E-01  0.435043E-01  0.422943E-01
  0.411249E-01  0.401575E-01  0.395439E-01  0.394226E-01  0.399085E-01  0.410704E-01
  0.429016E-01  0.453014E-01  0.480697E-01  0.509163E-01  0.534937E-01  0.554711E-01
  0.566396E-01  0.569985E-01  0.567543E-01  0.562138E-01  0.556275E-01  0.550685E-01
  0.544056E-01  0.533796E-01  0.517479E-01  0.494221E-01  0.465247E-01  0.433392E-01
  0.402025E-01  0.374106E-01  0.351769E-01  0.336296E-01  0.328222E-01  0.327445E-01
  0.333363E-01  0.345012E-01  0.361150E-01  0.380240E-01  0.378933E-01  0.401156E-01
  0.422434E-01  0.440858E-01  0.455050E-01  0.464370E-01  0.468801E-01  0.468635E-01
  0.464218E-01  0.455944E-01  0.444463E-01  0.430870E-01  0.416654E-01  0.403474E-01
  0.392938E-01  0.386502E-01  0.385399E-01  0.390478E-01  0.401969E-01  0.419313E-01
  0.441149E-01  0.465421E-01  0.489564E-01  0.510845E-01  0.526950E-01  0.536662E-01
  0.540227E-01  0.539028E-01  0.534648E-01  0.527903E-01  0.518411E-01  0.504963E-01
  0.486448E-01  0.462772E-01  0.435230E-01  0.406178E-01  0.378301E-01  0.353973E-01
  0.334958E-01  0.322382E-01  0.316784E-01  0.318173E-01  0.326093E-01  0.339704E-01
  0.357827E-01  0.378933E-01  0.370048E-01  0.393962E-01  0.416939E-01  0.437000E-01
  0.452689E-01  0.463305E-01  0.468819E-01  0.469538E-01  0.465786E-01  0.457838E-01
  0.446129E-01  0.431518E-01  0.415358E-01  0.399296E-01  0.385004E-01  0.373993E-01
  0.367534E-01  0.366554E-01  0.371473E-01  0.382065E-01  0.397446E-01  0.416182E-01
  0.436436E-01  0.456123E-01  0.473160E-01  0.485872E-01  0.493397E-01  0.495783E-01
  0.493631E-01  0.487488E-01  0.477452E-01  0.463245E-01  0.444699E-01  0.422289E-01
  0.397345E-01  0.371838E-01  0.347919E-01  0.327489E-01  0.311997E-01  0.302414E-01
  0.299268E-01  0.302668E-01  0.312325E-01  0.327556E-01  0.347290E-01  0.370048E-01
  0.353731E-01  0.378843E-01  0.403156E-01  0.424665E-01  0.441824E-01  0.453819E-01
  0.460527E-01  0.462216E-01  0.459198E-01  0.451700E-01  0.440029E-01  0.424859E-01
  0.407381E-01  0.389174E-01  0.371930E-01  0.357202E-01  0.346279E-01  0.340111E-01
  0.339210E-01  0.343568E-01  0.352636E-01  0.365423E-01  0.380618E-01  0.396677E-01
  0.411904E-01  0.424647E-01  0.433600E-01  0.438049E-01  0.437863E-01  0.433228E-01
  0.424359E-01  0.411437E-01  0.394800E-01  0.375195E-01  0.353888E-01  0.332527E-01
  0.312854E-01  0.296417E-01  0.284424E-01  0.277713E-01  0.276794E-01  0.281869E-01
  0.292811E-01  0.309124E-01  0.329890E-01  0.353731E-01  0.330835E-01  0.356455E-01
  0.381559E-01  0.404179E-01  0.422698E-01  0.436139E-01  0.444195E-01  0.447006E-01
  0.444843E-01  0.437933E-01  0.426550E-01  0.411263E-01  0.393115E-01  0.373571E-01
  0.354283E-01  0.336816E-01  0.322474E-01  0.312211E-01  0.306575E-01  0.305668E-01
  0.309161E-01  0.316368E-01  0.326351E-01  0.337974E-01  0.349919E-01  0.360762E-01
  0.369167E-01  0.374133E-01  0.375142E-01  0.372090E-01  0.365135E-01  0.354585E-01
  0.340940E-01  0.324985E-01  0.307829E-01  0.290827E-01  0.275390E-01  0.262796E-01
  0.254063E-01  0.249927E-01  0.250876E-01  0.257179E-01  0.268855E-01  0.285594E-01
  0.306659E-01  0.330835E-01  0.302812E-01  0.328112E-01  0.353276E-01  0.376454E-01
  0.396016E-01  0.410812E-01  0.420288E-01  0.424372E-01  0.423234E-01  0.417103E-01
  0.406284E-01  0.391323E-01  0.373160E-01  0.353127E-01  0.332770E-01  0.313612E-01
  0.296959E-01  0.283772E-01  0.274616E-01  0.269647E-01  0.268655E-01  0.271155E-01
  0.276467E-01  0.283757E-01  0.292029E-01  0.300138E-01  0.306907E-01  0.311336E-01
  0.312770E-01  0.310946E-01  0.305912E-01  0.297942E-01  0.287505E-01  0.275290E-01
  0.262208E-01  0.249337E-01  0.237807E-01  0.228665E-01  0.222773E-01  0.220783E-01
  0.223160E-01  0.230211E-01  0.242060E-01  0.258553E-01  0.279141E-01  0.302812E-01
  0.271480E-01  0.295609E-01  0.319993E-01  0.342985E-01  0.363011E-01  0.378808E-01
  0.389574E-01  0.394978E-01  0.395025E-01  0.389912E-01  0.379986E-01  0.365816E-01
  0.348288E-01  0.328604E-01  0.308166E-01  0.288395E-01  0.270551E-01  0.255595E-01
  0.244109E-01  0.236292E-01  0.232010E-01  0.230898E-01  0.232446E-01  0.236035E-01
  0.240921E-01  0.246224E-01  0.250995E-01  0.254362E-01  0.255689E-01  0.254646E-01
  0.251188E-01  0.245496E-01  0.237933E-01  0.229045E-01  0.219537E-01  0.210245E-01
  0.202049E-01  0.195792E-01  0.192201E-01  0.191854E-01  0.195190E-01  0.202530E-01
  0.214050E-01  0.229705E-01  0.249113E-01  0.271480E-01  0.238761E-01  0.260979E-01
  0.283775E-01  0.305750E-01  0.325473E-01  0.341654E-01  0.353318E-01  0.359895E-01
  0.361199E-01  0.357342E-01  0.348670E-01  0.335771E-01  0.319494E-01  0.300931E-01
  0.281333E-01  0.261972E-01  0.244011E-01  0.228369E-01  0.215640E-01  0.206070E-01
  0.199598E-01  0.195953E-01  0.194738E-01  0.195476E-01  0.197606E-01  0.200464E-01
  0.203322E-01  0.205486E-01  0.206411E-01  0.205768E-01  0.203451E-01  0.199543E-01
  0.194292E-01  0.188091E-01  0.181467E-01  0.175047E-01  0.169504E-01  0.165500E-01
  0.163639E-01  0.164429E-01  0.168281E-01  0.175505E-01  0.186292E-01  0.200656E-01
  0.218343E-01  0.238761E-01  0.206469E-01  0.226247E-01  0.246807E-01  0.267013E-01
  0.285625E-01  0.301431E-01  0.313393E-01  0.320789E-01  0.323264E-01  0.320809E-01
  0.313712E-01  0.302523E-01  0.288036E-01  0.271242E-01  0.253246E-01  0.235166E-01
  0.218025E-01  0.202657E-01  0.189634E-01  0.179242E-01  0.171503E-01  0.166243E-01
  0.163164E-01  0.161891E-01  0.161983E-01  0.162935E-01  0.164202E-01  0.165256E-01
  0.165668E-01  0.165149E-01  0.163567E-01  0.160936E-01  0.157397E-01  0.153217E-01
  0.148773E-01  0.144521E-01  0.140967E-01  0.138623E-01  0.137977E-01  0.139467E-01
  0.143463E-01  0.150252E-01  0.160017E-01  0.172795E-01  0.188419E-01  0.206469E-01
  0.176136E-01  0.193201E-01  0.211123E-01  0.229011E-01  0.245843E-01  0.260551E-01
  0.272150E-01  0.279873E-01  0.283260E-01  0.282188E-01  0.276841E-01  0.267674E-01
  0.255377E-01  0.240820E-01  0.224973E-01  0.208807E-01  0.193200E-01  0.178873E-01
  0.166339E-01  0.155897E-01  0.147642E-01  0.141500E-01  0.137276E-01  0.134684E-01
  0.133376E-01  0.132958E-01  0.133016E-01  0.133163E-01  0.133070E-01  0.132507E-01
  0.131341E-01  0.129545E-01  0.127189E-01  0.124441E-01  0.121559E-01  0.118870E-01
  0.116746E-01  0.115574E-01  0.115737E-01  0.117594E-01  0.121464E-01  0.127601E-01
  0.136172E-01  0.147221E-01  0.160641E-01  0.176136E-01  0.148890E-01  0.163205E-01
  0.178350E-01  0.193643E-01  0.208272E-01  0.221352E-01  0.232023E-01  0.239564E-01
  0.243491E-01  0.243604E-01  0.239979E-01  0.232939E-01  0.223028E-01  0.210966E-01
  0.197579E-01  0.183699E-01  0.170073E-01  0.157307E-01  0.145839E-01  0.135953E-01
  0.127785E-01  0.121345E-01  0.116533E-01  0.113151E-01  0.110934E-01  0.109576E-01
  0.108767E-01  0.108218E-01  0.107687E-01  0.106992E-01  0.106019E-01  0.104723E-01
  0.103133E-01  0.101350E-01  0.995440E-02  0.979427E-02  0.968135E-02  0.964421E-02
  0.971163E-02  0.991141E-02  0.102692E-01  0.108066E-01  0.115382E-01  0.124692E-01
  0.135931E-01  0.148890E-01  0.125404E-01  0.137115E-01  0.149563E-01  0.162238E-01
  0.174517E-01  0.185697E-01  0.195073E-01  0.202024E-01  0.206105E-01  0.207087E-01
  0.204964E-01  0.199931E-01  0.192376E-01  0.182847E-01  0.172010E-01  0.160554E-01
  0.149108E-01  0.138176E-01  0.128130E-01  0.119220E-01  0.111595E-01  0.105315E-01
  0.100350E-01  0.965816E-02  0.938220E-02  0.918468E-02  0.904280E-02  0.893580E-02
  0.884614E-02  0.875997E-02  0.866777E-02  0.856495E-02  0.845232E-02  0.833589E-02
  0.822656E-02  0.813953E-02  0.809335E-02  0.810834E-02  0.820527E-02  0.840444E-02
  0.872509E-02  0.918425E-02  0.979453E-02  0.105615E-01  0.114816E-01  0.125404E-01
  0.105941E-01  0.115304E-01  0.125283E-01  0.135505E-01  0.145505E-01  0.154748E-01
  0.162677E-01  0.168791E-01  0.172711E-01  0.174221E-01  0.173271E-01  0.169961E-01
  0.164537E-01  0.157384E-01  0.149000E-01  0.139926E-01  0.130672E-01  0.121658E-01
  0.113195E-01  0.105499E-01  0.987157E-02  0.929237E-02  0.881339E-02  0.842863E-02
  0.812622E-02  0.789103E-02  0.770758E-02  0.756185E-02  0.744186E-02  0.733763E-02
  0.724172E-02  0.715009E-02  0.706266E-02  0.698304E-02  0.691809E-02  0.687749E-02
  0.687336E-02  0.691948E-02  0.703018E-02  0.721959E-02  0.750126E-02  0.788760E-02
  0.838844E-02  0.900892E-02  0.974742E-02  0.105941E-01  0.904697E-02  0.977911E-02
  0.105600E-01  0.113633E-01  0.121557E-01  0.128977E-01  0.135471E-01  0.140648E-01
  0.144205E-01  0.145957E-01  0.145838E-01  0.143892E-01  0.140262E-01  0.135197E-01
  0.129037E-01  0.122179E-01  0.115014E-01  0.107877E-01  0.101025E-01  0.946431E-02
  0.888593E-02  0.837533E-02  0.793553E-02  0.756450E-02  0.725588E-02  0.700088E-02
  0.679030E-02  0.661583E-02  0.647024E-02  0.634720E-02  0.624158E-02  0.615030E-02
  0.607299E-02  0.601192E-02  0.597138E-02  0.595730E-02  0.597703E-02  0.603917E-02
  0.615298E-02  0.632782E-02  0.657268E-02  0.689574E-02  0.730351E-02  0.779953E-02
  0.838286E-02  0.904697E-02  0.787725E-02  0.843758E-02  0.903351E-02  0.964768E-02
  0.102575E-01  0.108353E-01  0.113508E-01  0.117748E-01  0.120839E-01  0.122629E-01
  0.123055E-01  0.122127E-01  0.119927E-01  0.116605E-01  0.112375E-01  0.107503E-01
  0.102261E-01  0.968972E-02  0.916116E-02  0.865539E-02  0.818298E-02  0.775081E-02
  0.736244E-02  0.701839E-02  0.671665E-02  0.645371E-02  0.622562E-02  0.602880E-02
  0.586015E-02  0.571681E-02  0.559626E-02  0.549685E-02  0.541839E-02  0.536237E-02
  0.533154E-02  0.532946E-02  0.536025E-02  0.542858E-02  0.553961E-02  0.569881E-02
  0.591151E-02  0.618232E-02  0.651449E-02  0.690921E-02  0.736501E-02  0.787725E-02
  0.705378E-02  0.747400E-02  0.791670E-02  0.837141E-02  0.882412E-02  0.925733E-02
  0.965113E-02  0.998561E-02  0.102437E-01  0.104135E-01  0.104889E-01  0.104696E-01
  0.103600E-01  0.101689E-01  0.990893E-02  0.959539E-02  0.924480E-02  0.887290E-02
  0.849331E-02  0.811678E-02  0.775105E-02  0.740122E-02  0.707050E-02  0.676086E-02
  0.647356E-02  0.620934E-02  0.596867E-02  0.575196E-02  0.555978E-02  0.539269E-02
  0.525117E-02  0.513558E-02  0.504650E-02  0.498508E-02  0.495309E-02  0.495264E-02
  0.498578E-02  0.505439E-02  0.516029E-02  0.530551E-02  0.549210E-02  0.572158E-02
  0.599432E-02  0.630922E-02  0.666369E-02  0.705378E-02  0.654203E-02  0.685108E-02
  0.717018E-02  0.749360E-02  0.781391E-02  0.812184E-02  0.840669E-02  0.865716E-02
  0.886262E-02  0.901454E-02  0.910763E-02  0.914050E-02  0.911545E-02  0.903759E-02
  0.891355E-02  0.875049E-02  0.855545E-02  0.833532E-02  0.809663E-02  0.784506E-02
  0.758489E-02  0.731895E-02  0.704935E-02  0.677855E-02  0.650992E-02  0.624750E-02
  0.599547E-02  0.575787E-02  0.553871E-02  0.534207E-02  0.517176E-02  0.503090E-02
  0.492162E-02  0.484539E-02  0.480338E-02  0.479665E-02  0.482584E-02  0.489089E-02
  0.499102E-02  0.512519E-02  0.529221E-02  0.549059E-02  0.571809E-02  0.597163E-02
  0.624756E-02  0.654203E-02  0.630926E-02  0.653145E-02  0.675252E-02  0.696989E-02
  0.718079E-02  0.738228E-02  0.757128E-02  0.774431E-02  0.789725E-02  0.802563E-02
  0.812566E-02  0.819555E-02  0.823612E-02  0.825008E-02  0.824026E-02  0.820804E-02
  0.815300E-02  0.807391E-02  0.796987E-02  0.784063E-02  0.768614E-02  0.750614E-02
  0.730087E-02  0.707225E-02  0.682468E-02  0.656464E-02  0.629961E-02  0.603718E-02
  0.578498E-02  0.555070E-02  0.534186E-02  0.516489E-02  0.502438E-02  0.492298E-02
  0.486189E-02  0.484143E-02  0.486108E-02  0.491926E-02  0.501322E-02  0.513921E-02
  0.529292E-02  0.546966E-02  0.566447E-02  0.587231E-02  0.608853E-02  0.630926E-02
  0.632785E-02  0.648222E-02  0.662551E-02  0.675751E-02  0.687880E-02  0.699109E-02
  0.709720E-02  0.720027E-02  0.730249E-02  0.740412E-02  0.750392E-02  0.760057E-02
  0.769393E-02  0.778494E-02  0.787381E-02  0.795801E-02  0.803168E-02  0.808677E-02
  0.811513E-02  0.810980E-02  0.806508E-02  0.797637E-02  0.784069E-02  0.765820E-02
  0.743325E-02  0.717412E-02  0.689149E-02  0.659695E-02  0.630231E-02  0.601943E-02
  0.575983E-02  0.553370E-02  0.534873E-02  0.520965E-02  0.511851E-02  0.507543E-02
  0.507902E-02  0.512639E-02  0.521304E-02  0.533289E-02  0.547864E-02  0.564224E-02
  0.581560E-02  0.599133E-02  0.616344E-02  0.632785E-02  0.657546E-02  0.667693E-02
  0.675781E-02  0.682005E-02  0.686709E-02  0.690425E-02  0.693887E-02  0.697953E-02
  0.703409E-02  0.710786E-02  0.720309E-02  0.732002E-02  0.745841E-02  0.761795E-02
  0.779695E-02  0.799020E-02  0.818791E-02  0.837657E-02  0.854120E-02  0.866752E-02
  0.874279E-02  0.875616E-02  0.869962E-02  0.856986E-02  0.836991E-02  0.810910E-02
  0.780146E-02  0.746337E-02  0.711206E-02  0.676471E-02  0.643773E-02  0.614558E-02
  0.589959E-02  0.570716E-02  0.557200E-02  0.549472E-02  0.547352E-02  0.550438E-02
  0.558114E-02  0.569542E-02  0.583700E-02  0.599440E-02  0.615607E-02  0.631160E-02
  0.645304E-02  0.657546E-02  0.745526E-02  0.749917E-02  0.750336E-02  0.747289E-02
  0.741527E-02  0.734034E-02  0.725981E-02  0.718592E-02  0.712946E-02  0.709816E-02
  0.709635E-02  0.712612E-02  0.718856E-02  0.728397E-02  0.741054E-02  0.756266E-02
  0.773021E-02  0.789960E-02  0.805591E-02  0.818475E-02  0.827314E-02  0.830991E-02
  0.828674E-02  0.819979E-02  0.805116E-02  0.784881E-02  0.760523E-02  0.733560E-02
  0.705632E-02  0.678405E-02  0.653470E-02  0.632217E-02  0.615720E-02  0.604673E-02
  0.599388E-02  0.599855E-02  0.605785E-02  0.616639E-02  0.631615E-02  0.649638E-02
  0.669382E-02  0.689364E-02  0.708098E-02  0.724278E-02  0.736936E-02  0.745526E-02
  0.817367E-02  0.818452E-02  0.814209E-02  0.805369E-02  0.793014E-02  0.778528E-02
  0.763546E-02  0.749798E-02  0.738893E-02  0.732107E-02  0.730287E-02  0.733909E-02
  0.743190E-02  0.758130E-02  0.778424E-02  0.803302E-02  0.831441E-02  0.861032E-02
  0.889962E-02  0.916036E-02  0.937136E-02  0.951365E-02  0.957220E-02  0.953832E-02
  0.941161E-02  0.920032E-02  0.891989E-02  0.859061E-02  0.823535E-02  0.787766E-02
  0.754011E-02  0.724257E-02  0.700071E-02  0.682518E-02  0.672153E-02  0.669063E-02
  0.672930E-02  0.683080E-02  0.698498E-02  0.717828E-02  0.739391E-02  0.761279E-02
  0.781545E-02  0.798437E-02  0.810633E-02  0.817367E-02  0.909769E-02  0.908653E-02
  0.900718E-02  0.886869E-02  0.868520E-02  0.847494E-02  0.825903E-02  0.805974E-02
  0.789821E-02  0.779242E-02  0.775591E-02  0.779768E-02  0.792258E-02  0.813147E-02
  0.842042E-02  0.877955E-02  0.919234E-02  0.963603E-02  0.100831E-01  0.105033E-01
  0.108656E-01  0.111410E-01  0.113051E-01  0.113422E-01  0.112476E-01  0.110284E-01
  0.107028E-01  0.102968E-01  0.984125E-02  0.936852E-02  0.891006E-02  0.849370E-02
  0.814180E-02  0.787026E-02  0.768827E-02  0.759867E-02  0.759847E-02  0.767956E-02
  0.782917E-02  0.803037E-02  0.826250E-02  0.850223E-02  0.872541E-02  0.890973E-02
  0.903750E-02  0.909769E-02  0.102044E-01  0.101827E-01  0.100769E-01  0.989691E-02
  0.965996E-02  0.938899E-02  0.911048E-02  0.885186E-02  0.863931E-02  0.849617E-02
  0.844180E-02  0.849089E-02  0.865271E-02  0.893033E-02  0.931969E-02  0.980879E-02
  0.103775E-01  0.109983E-01  0.116367E-01  0.122533E-01  0.128056E-01  0.132514E-01
  0.135542E-01  0.136879E-01  0.136410E-01  0.134186E-01  0.130406E-01  0.125393E-01
  0.119550E-01  0.113316E-01  0.107118E-01  0.101340E-01  0.962932E-02  0.922076E-02
  0.892281E-02  0.874167E-02  0.867563E-02  0.871552E-02  0.884562E-02  0.904480E-02
  0.928781E-02  0.954665E-02  0.979246E-02  0.999796E-02  0.101405E-01  0.102044E-01