 CRYSTAL
 PRIMVEC
    5.853480112    0.000010819   -0.000000000
   -1.292989307    5.507027635   -0.000000000
   -0.000000000   -0.000000000    6.051953870
 PRIMCOORD
           4           1
Si       -0.124747958    1.341682125    2.044525726
Si        2.931178654    2.328349243    0.841232900
Si        0.124760833    3.278126091    4.783189562
Si        2.922307322    0.798436691    3.534873346
BEGIN_BLOCK_DATAGRID_3D
3D_PWSCF
BEGIN_DATAGRID_3D_UNKNOWN
          61          55          61
  0.000000  0.000000  0.000000
    5.853480    0.000011   -0.000000
   -1.292989    5.507028   -0.000000
   -0.000000   -0.000000    6.051954
  0.104149E-02  0.105218E-02  0.106111E-02  0.106873E-02  0.107564E-02  0.108249E-02
  0.108992E-02  0.109853E-02  0.110877E-02  0.112102E-02  0.113553E-02  0.115244E-02
  0.117172E-02  0.119323E-02  0.121676E-02  0.124205E-02  0.126887E-02  0.129697E-02
  0.132603E-02  0.135557E-02  0.138495E-02  0.141343E-02  0.144020E-02  0.146441E-02
  0.148518E-02  0.150157E-02  0.151259E-02  0.151728E-02  0.151483E-02  0.150469E-02
  0.148672E-02  0.146116E-02  0.142863E-02  0.139001E-02  0.134634E-02  0.129879E-02
  0.124865E-02  0.119734E-02  0.114637E-02  0.109718E-02  0.105105E-02  0.100900E-02
  0.971756E-03  0.939852E-03  0.913681E-03  0.893494E-03  0.879364E-03  0.871173E-03
  0.868641E-03  0.871368E-03  0.878826E-03  0.890347E-03  0.905123E-03  0.922264E-03
  0.940874E-03  0.960099E-03  0.979147E-03  0.997307E-03  0.101399E-02  0.102878E-02
  0.104149E-02  0.112871E-02  0.113424E-02  0.113670E-02  0.113672E-02  0.113515E-02
  0.113288E-02  0.113085E-02  0.112990E-02  0.113087E-02  0.113447E-02  0.114138E-02
  0.115210E-02  0.116700E-02  0.118617E-02  0.120957E-02  0.123704E-02  0.126837E-02
  0.130329E-02  0.134143E-02  0.138216E-02  0.142463E-02  0.146779E-02  0.151043E-02
  0.155125E-02  0.158884E-02  0.162175E-02  0.164847E-02  0.166756E-02  0.167774E-02
  0.167802E-02  0.166794E-02  0.164759E-02  0.161754E-02  0.157877E-02  0.153251E-02
  0.148022E-02  0.142360E-02  0.136452E-02  0.130493E-02  0.124667E-02  0.119138E-02
  0.114035E-02  0.109461E-02  0.105496E-02  0.102201E-02  0.996159E-03  0.977550E-03
  0.966031E-03  0.961227E-03  0.962613E-03  0.969553E-03  0.981270E-03  0.996819E-03
  0.101510E-02  0.103491E-02  0.105507E-02  0.107449E-02  0.109224E-02  0.110753E-02
  0.111980E-02  0.112871E-02  0.124277E-02  0.124423E-02  0.124134E-02  0.123483E-02
  0.122571E-02  0.121516E-02  0.120437E-02  0.119456E-02  0.118690E-02  0.118248E-02
  0.118228E-02  0.118716E-02  0.119777E-02  0.121457E-02  0.123775E-02  0.126735E-02
  0.130321E-02  0.134509E-02  0.139254E-02  0.144487E-02  0.150108E-02  0.155987E-02
  0.161967E-02  0.167868E-02  0.173494E-02  0.178640E-02  0.183099E-02  0.186669E-02
  0.189163E-02  0.190425E-02  0.190356E-02  0.188931E-02  0.186196E-02  0.182253E-02
  0.177250E-02  0.171373E-02  0.164842E-02  0.157900E-02  0.150798E-02  0.143771E-02
  0.137024E-02  0.130727E-02  0.125019E-02  0.120014E-02  0.115800E-02  0.112437E-02
  0.109950E-02  0.108326E-02  0.107521E-02  0.107466E-02  0.108076E-02  0.109255E-02
  0.110890E-02  0.112855E-02  0.115006E-02  0.117192E-02  0.119264E-02  0.121097E-02
  0.122587E-02  0.123662E-02  0.124277E-02  0.138299E-02  0.138138E-02  0.137413E-02
  0.136199E-02  0.134607E-02  0.132776E-02  0.130861E-02  0.129026E-02  0.127431E-02
  0.126222E-02  0.125527E-02  0.125459E-02  0.126116E-02  0.127575E-02  0.129892E-02
  0.133091E-02  0.137171E-02  0.142111E-02  0.147867E-02  0.154371E-02  0.161518E-02
  0.169160E-02  0.177105E-02  0.185122E-02  0.192947E-02  0.200302E-02  0.206905E-02
  0.212480E-02  0.216769E-02  0.219541E-02  0.220630E-02  0.219959E-02  0.217546E-02
  0.213500E-02  0.207993E-02  0.201256E-02  0.193569E-02  0.185246E-02  0.176609E-02
  0.167962E-02  0.159574E-02  0.151673E-02  0.144448E-02  0.138054E-02  0.132608E-02
  0.128188E-02  0.124830E-02  0.122527E-02  0.121233E-02  0.120869E-02  0.121325E-02
  0.122475E-02  0.124180E-02  0.126287E-02  0.128632E-02  0.131035E-02  0.133311E-02
  0.135292E-02  0.136842E-02  0.137863E-02  0.138299E-02  0.154879E-02  0.154505E-02
  0.153434E-02  0.151738E-02  0.149532E-02  0.146972E-02  0.144249E-02  0.141575E-02
  0.139159E-02  0.137190E-02  0.135831E-02  0.135227E-02  0.135508E-02  0.136787E-02
  0.139151E-02  0.142654E-02  0.147311E-02  0.153114E-02  0.160029E-02  0.168000E-02
  0.176924E-02  0.186643E-02  0.196936E-02  0.207512E-02  0.218032E-02  0.228123E-02
  0.237403E-02  0.245496E-02  0.252043E-02  0.256723E-02  0.259284E-02  0.259580E-02
  0.257592E-02  0.253422E-02  0.247268E-02  0.239414E-02  0.230208E-02  0.220047E-02
  0.209348E-02  0.198512E-02  0.187900E-02  0.177825E-02  0.168552E-02  0.160289E-02
  0.153188E-02  0.147340E-02  0.142785E-02  0.139517E-02  0.137491E-02  0.136622E-02
  0.136784E-02  0.137821E-02  0.139555E-02  0.141797E-02  0.144348E-02  0.147001E-02
  0.149539E-02  0.151751E-02  0.153457E-02  0.154524E-02  0.154879E-02  0.173952E-02
  0.173456E-02  0.172119E-02  0.170014E-02  0.167259E-02  0.164022E-02  0.160528E-02
  0.157034E-02  0.153801E-02  0.151067E-02  0.149040E-02  0.147908E-02  0.147839E-02
  0.148985E-02  0.151466E-02  0.155366E-02  0.160729E-02  0.167570E-02  0.175880E-02
  0.185618E-02  0.196691E-02  0.208932E-02  0.222088E-02  0.235816E-02  0.249695E-02
  0.263246E-02  0.275956E-02  0.287309E-02  0.296804E-02  0.303990E-02  0.308501E-02
  0.310102E-02  0.308714E-02  0.304421E-02  0.297446E-02  0.288134E-02  0.276923E-02
  0.264320E-02  0.250863E-02  0.237084E-02  0.223475E-02  0.210467E-02  0.198426E-02
  0.187632E-02  0.178281E-02  0.170485E-02  0.164284E-02  0.159666E-02  0.156578E-02
  0.154926E-02  0.154574E-02  0.155341E-02  0.157013E-02  0.159353E-02  0.162113E-02
  0.165044E-02  0.167893E-02  0.170408E-02  0.172362E-02  0.173578E-02  0.173952E-02
  0.195418E-02  0.194895E-02  0.193372E-02  0.190925E-02  0.187682E-02  0.183827E-02
  0.179612E-02  0.175334E-02  0.171301E-02  0.167805E-02  0.165109E-02  0.163456E-02
  0.163064E-02  0.164126E-02  0.166803E-02  0.171215E-02  0.177450E-02  0.185568E-02
  0.195596E-02  0.207516E-02  0.221241E-02  0.236592E-02  0.253289E-02  0.270940E-02
  0.289052E-02  0.307031E-02  0.324212E-02  0.339887E-02  0.353352E-02  0.363959E-02
  0.371174E-02  0.374624E-02  0.374141E-02  0.369770E-02  0.361755E-02  0.350519E-02
  0.336626E-02  0.320739E-02  0.303574E-02  0.285843E-02  0.268214E-02  0.251274E-02
  0.235512E-02  0.221297E-02  0.208884E-02  0.198413E-02  0.189936E-02  0.183437E-02
  0.178846E-02  0.176047E-02  0.174882E-02  0.175147E-02  0.176593E-02  0.178937E-02
  0.181873E-02  0.185092E-02  0.188289E-02  0.191168E-02  0.193453E-02  0.194918E-02
  0.195418E-02  0.219106E-02  0.218671E-02  0.217059E-02  0.214348E-02  0.210680E-02
  0.206269E-02  0.201393E-02  0.196380E-02  0.191581E-02  0.187342E-02  0.183991E-02
  0.181836E-02  0.181154E-02  0.182190E-02  0.185150E-02  0.190210E-02  0.197519E-02
  0.207204E-02  0.219345E-02  0.233956E-02  0.250961E-02  0.270177E-02  0.291300E-02
  0.313904E-02  0.337421E-02  0.361142E-02  0.384217E-02  0.405693E-02  0.424585E-02
  0.439956E-02  0.451013E-02  0.457173E-02  0.458118E-02  0.453817E-02  0.444527E-02
  0.430765E-02  0.413271E-02  0.392943E-02  0.370756E-02  0.347685E-02  0.324640E-02
  0.302415E-02  0.281655E-02  0.262839E-02  0.246283E-02  0.232165E-02  0.220557E-02
  0.211448E-02  0.204754E-02  0.200328E-02  0.197965E-02  0.197416E-02  0.198392E-02
  0.200565E-02  0.203574E-02  0.207043E-02  0.210598E-02  0.213880E-02  0.216563E-02
  0.218371E-02  0.219106E-02  0.244798E-02  0.244580E-02  0.243009E-02  0.240141E-02
  0.236137E-02  0.231243E-02  0.225772E-02  0.220083E-02  0.214562E-02  0.209612E-02
  0.205632E-02  0.203003E-02  0.202073E-02  0.203148E-02  0.206497E-02  0.212367E-02
  0.220989E-02  0.232571E-02  0.247270E-02  0.265155E-02  0.286186E-02  0.310198E-02
  0.336892E-02  0.365813E-02  0.396317E-02  0.427547E-02  0.458422E-02  0.487677E-02
  0.513957E-02  0.535934E-02  0.552442E-02  0.562581E-02  0.565795E-02  0.561915E-02
  0.551176E-02  0.534208E-02  0.511984E-02  0.485723E-02  0.456774E-02  0.426486E-02
  0.396111E-02  0.366733E-02  0.339218E-02  0.314194E-02  0.292059E-02  0.273026E-02
  0.257178E-02  0.244505E-02  0.234910E-02  0.228208E-02  0.224131E-02  0.222358E-02
  0.222535E-02  0.224278E-02  0.227176E-02  0.230786E-02  0.234658E-02  0.238354E-02
  0.241483E-02  0.243714E-02  0.244798E-02  0.272270E-02  0.272409E-02  0.271035E-02
  0.268160E-02  0.263945E-02  0.258670E-02  0.252688E-02  0.246392E-02  0.240206E-02
  0.234585E-02  0.230005E-02  0.226933E-02  0.225797E-02  0.226980E-02  0.230835E-02
  0.237698E-02  0.247898E-02  0.261742E-02  0.279483E-02  0.301286E-02  0.327196E-02
  0.357120E-02  0.390800E-02  0.427768E-02  0.467290E-02  0.508310E-02  0.549442E-02
  0.589022E-02  0.625219E-02  0.656202E-02  0.680308E-02  0.696190E-02  0.702931E-02
  0.700128E-02  0.687940E-02  0.667103E-02  0.638877E-02  0.604909E-02  0.567048E-02
  0.527151E-02  0.486939E-02  0.447901E-02  0.411232E-02  0.377801E-02  0.348144E-02
  0.322526E-02  0.301019E-02  0.283576E-02  0.270058E-02  0.260227E-02  0.253746E-02
  0.250204E-02  0.249153E-02  0.250131E-02  0.252661E-02  0.256236E-02  0.260328E-02
  0.264412E-02  0.268011E-02  0.270732E-02  0.272270E-02  0.301354E-02  0.301983E-02
  0.300971E-02  0.298270E-02  0.294011E-02  0.288492E-02  0.282108E-02  0.275293E-02
  0.268511E-02  0.262273E-02  0.257133E-02  0.253647E-02  0.252340E-02  0.253693E-02
  0.258165E-02  0.266203E-02  0.278249E-02  0.294726E-02  0.316017E-02  0.342435E-02
  0.374180E-02  0.411294E-02  0.453609E-02  0.500667E-02  0.551632E-02  0.605207E-02
  0.659623E-02  0.712702E-02  0.762014E-02  0.805080E-02  0.839590E-02  0.863593E-02
  0.875660E-02  0.875015E-02  0.861648E-02  0.836379E-02  0.800803E-02  0.757107E-02
  0.707793E-02  0.655388E-02  0.602232E-02  0.550361E-02  0.501436E-02  0.456696E-02
  0.416927E-02  0.382504E-02  0.353490E-02  0.329751E-02  0.311038E-02  0.297010E-02
  0.287240E-02  0.281220E-02  0.278395E-02  0.278193E-02  0.280042E-02  0.283357E-02
  0.287526E-02  0.291933E-02  0.296006E-02  0.299269E-02  0.301354E-02  0.331987E-02
  0.333231E-02  0.332741E-02  0.330400E-02  0.326287E-02  0.320691E-02  0.314036E-02
  0.306805E-02  0.299510E-02  0.292721E-02  0.287067E-02  0.283198E-02  0.281746E-02
  0.283313E-02  0.288488E-02  0.297850E-02  0.311972E-02  0.331423E-02  0.356761E-02
  0.388513E-02  0.427111E-02  0.472803E-02  0.525553E-02  0.584943E-02  0.650047E-02
  0.719323E-02  0.790574E-02  0.861007E-02  0.927427E-02  0.986510E-02  0.103508E-01
  0.107039E-01  0.109028E-01  0.109345E-01  0.107958E-01  0.104951E-01  0.100521E-01
  0.949523E-02  0.885791E-02  0.817424E-02  0.747589E-02  0.679049E-02  0.614082E-02
  0.554434E-02  0.501269E-02  0.455173E-02  0.416248E-02  0.384253E-02  0.358758E-02
  0.339237E-02  0.325108E-02  0.315740E-02  0.310460E-02  0.308573E-02  0.309376E-02
  0.312168E-02  0.316240E-02  0.320879E-02  0.325412E-02  0.329265E-02  0.331987E-02
  0.364230E-02  0.366225E-02  0.366421E-02  0.364626E-02  0.360857E-02  0.355366E-02
  0.348588E-02  0.341046E-02  0.333317E-02  0.326035E-02  0.319905E-02  0.315669E-02
  0.314074E-02  0.315862E-02  0.321773E-02  0.332541E-02  0.348898E-02  0.371589E-02
  0.401406E-02  0.439167E-02  0.485615E-02  0.541270E-02  0.606281E-02  0.680303E-02
  0.762369E-02  0.850743E-02  0.942809E-02  0.103509E-01  0.112345E-01  0.120344E-01
  0.127074E-01  0.132147E-01  0.135256E-01  0.136194E-01  0.134883E-01  0.131400E-01
  0.125975E-01  0.118967E-01  0.110816E-01  0.101979E-01  0.928838E-02  0.839077E-02
  0.753601E-02  0.674803E-02  0.604321E-02  0.543046E-02  0.491193E-02  0.448456E-02
  0.414195E-02  0.387614E-02  0.367877E-02  0.354154E-02  0.345621E-02  0.341443E-02
  0.340766E-02  0.342740E-02  0.346523E-02  0.351292E-02  0.356267E-02  0.360765E-02
  0.364230E-02  0.398287E-02  0.401211E-02  0.402286E-02  0.401243E-02  0.398031E-02
  0.392845E-02  0.386102E-02  0.378356E-02  0.370251E-02  0.362499E-02  0.355884E-02
  0.351244E-02  0.349448E-02  0.351390E-02  0.357980E-02  0.370133E-02  0.388762E-02
  0.414836E-02  0.449435E-02  0.493739E-02  0.548883E-02  0.615729E-02  0.694679E-02
  0.785533E-02  0.887363E-02  0.998322E-02  0.111543E-01  0.123448E-01  0.135023E-01
  0.145683E-01  0.154840E-01  0.161962E-01  0.166615E-01  0.168496E-01  0.167466E-01
  0.163579E-01  0.157088E-01  0.148430E-01  0.138159E-01  0.126878E-01  0.115167E-01
  0.103541E-01  0.924254E-02  0.821428E-02  0.729147E-02  0.648649E-02  0.580315E-02
  0.523827E-02  0.478371E-02  0.442843E-02  0.416051E-02  0.396850E-02  0.384180E-02
  0.377024E-02  0.374368E-02  0.375189E-02  0.378484E-02  0.383290E-02  0.388709E-02
  0.393935E-02  0.398287E-02  0.434498E-02  0.438597E-02  0.440809E-02  0.440777E-02
  0.438371E-02  0.433719E-02  0.427192E-02  0.419356E-02  0.410912E-02  0.402662E-02
  0.395484E-02  0.390316E-02  0.388158E-02  0.390068E-02  0.397146E-02  0.410502E-02
  0.431271E-02  0.460681E-02  0.500154E-02  0.551286E-02  0.615668E-02  0.694591E-02
  0.788807E-02  0.898378E-02  0.102253E-01  0.115941E-01  0.130572E-01  0.145650E-01
  0.160524E-01  0.174440E-01  0.186620E-01  0.196346E-01  0.203027E-01  0.206243E-01
  0.205782E-01  0.201660E-01  0.194139E-01  0.183713E-01  0.171050E-01  0.156913E-01
  0.142071E-01  0.127227E-01  0.112967E-01  0.997357E-02  0.878284E-02  0.774095E-02
  0.685337E-02  0.611703E-02  0.552242E-02  0.505556E-02  0.470046E-02  0.444132E-02
  0.426387E-02  0.415534E-02  0.410365E-02  0.409679E-02  0.412292E-02  0.417071E-02
  0.422974E-02  0.429058E-02  0.434498E-02  0.473329E-02  0.478927E-02  0.482623E-02
  0.483938E-02  0.482652E-02  0.478809E-02  0.472716E-02  0.464917E-02  0.456160E-02
  0.447339E-02  0.439440E-02  0.433521E-02  0.430719E-02  0.432266E-02  0.439464E-02
  0.453645E-02  0.476189E-02  0.508627E-02  0.552758E-02  0.610635E-02  0.684348E-02
  0.775700E-02  0.885921E-02  0.101550E-01  0.116396E-01  0.132955E-01  0.150868E-01
  0.169558E-01  0.188235E-01  0.205951E-01  0.221707E-01  0.234567E-01  0.243757E-01
  0.248729E-01  0.249189E-01  0.245111E-01  0.236744E-01  0.224605E-01  0.209444E-01
  0.192177E-01  0.173779E-01  0.155187E-01  0.137204E-01  0.120447E-01  0.105326E-01
  0.920625E-02  0.807292E-02  0.712936E-02  0.636456E-02  0.576184E-02  0.530106E-02
  0.496135E-02  0.472355E-02  0.457106E-02  0.448918E-02  0.446397E-02  0.448167E-02
  0.452906E-02  0.459393E-02  0.466530E-02  0.473329E-02  0.515354E-02  0.522874E-02
  0.528506E-02  0.531609E-02  0.531839E-02  0.529141E-02  0.523736E-02  0.516120E-02
  0.507064E-02  0.497553E-02  0.488699E-02  0.481697E-02  0.477840E-02  0.478540E-02
  0.485307E-02  0.499709E-02  0.523397E-02  0.558230E-02  0.606412E-02  0.670469E-02
  0.753022E-02  0.856449E-02  0.982589E-02  0.113252E-01  0.130628E-01  0.150228E-01
  0.171668E-01  0.194285E-01  0.217133E-01  0.239055E-01  0.258804E-01  0.275206E-01
  0.287293E-01  0.294391E-01  0.296140E-01  0.292480E-01  0.283624E-01  0.270062E-01
  0.252566E-01  0.232150E-01  0.209988E-01  0.187273E-01  0.165081E-01  0.144265E-01
  0.125404E-01  0.108818E-01  0.946136E-02  0.827538E-02  0.731069E-02  0.654761E-02
  0.596195E-02  0.552768E-02  0.521995E-02  0.501715E-02  0.490094E-02  0.485492E-02
  0.486336E-02  0.491099E-02  0.498360E-02  0.506833E-02  0.515354E-02  0.561232E-02
  0.571237E-02  0.579396E-02  0.584860E-02  0.587116E-02  0.585978E-02  0.581560E-02
  0.574288E-02  0.564931E-02  0.554554E-02  0.544414E-02  0.535872E-02  0.530396E-02
  0.529590E-02  0.535177E-02  0.548964E-02  0.572880E-02  0.609125E-02  0.660309E-02
  0.729429E-02  0.819645E-02  0.933950E-02  0.107489E-01  0.124431E-01  0.144286E-01
  0.166932E-01  0.191965E-01  0.218629E-01  0.245816E-01  0.272136E-01  0.296079E-01
  0.316215E-01  0.331390E-01  0.340837E-01  0.344180E-01  0.341350E-01  0.332520E-01
  0.318092E-01  0.298755E-01  0.275533E-01  0.249732E-01  0.222802E-01  0.196128E-01
  0.170862E-01  0.147827E-01  0.127494E-01  0.110042E-01  0.954395E-02  0.835279E-02
  0.740718E-02  0.667875E-02  0.613652E-02  0.574985E-02  0.549131E-02  0.533789E-02
  0.526994E-02  0.526947E-02  0.531916E-02  0.540262E-02  0.550489E-02  0.561232E-02
  0.611629E-02  0.624879E-02  0.636354E-02  0.644940E-02  0.649894E-02  0.650853E-02
  0.647801E-02  0.641067E-02  0.631393E-02  0.619913E-02  0.608041E-02  0.597336E-02
  0.589476E-02  0.586279E-02  0.589693E-02  0.601765E-02  0.624698E-02  0.661013E-02
  0.713700E-02  0.786201E-02  0.882184E-02  0.100526E-01  0.115874E-01  0.134530E-01
  0.156640E-01  0.182129E-01  0.210586E-01  0.241174E-01  0.272615E-01  0.303274E-01
  0.331352E-01  0.355152E-01  0.373352E-01  0.385148E-01  0.390223E-01  0.388579E-01
  0.380365E-01  0.365841E-01  0.345496E-01  0.320210E-01  0.291315E-01  0.260461E-01
  0.229357E-01  0.199511E-01  0.172053E-01  0.147680E-01  0.126696E-01  0.109104E-01
  0.947220E-02  0.832690E-02  0.744149E-02  0.678022E-02  0.630707E-02  0.598869E-02
  0.579661E-02  0.570717E-02  0.569970E-02  0.575478E-02  0.585387E-02  0.597968E-02
  0.611629E-02  0.667083E-02  0.684585E-02  0.700413E-02  0.713125E-02  0.721673E-02
  0.725457E-02  0.724284E-02  0.718363E-02  0.708381E-02  0.695525E-02  0.681368E-02
  0.667705E-02  0.656465E-02  0.649719E-02  0.649663E-02  0.658603E-02  0.679004E-02
  0.713678E-02  0.765941E-02  0.839608E-02  0.938790E-02  0.106766E-01  0.123026E-01
  0.143014E-01  0.166965E-01  0.194867E-01  0.226325E-01  0.260442E-01  0.295787E-01
  0.330478E-01  0.362402E-01  0.389579E-01  0.410525E-01  0.424451E-01  0.431195E-01
  0.430929E-01  0.423845E-01  0.410047E-01  0.389722E-01  0.363446E-01  0.332403E-01
  0.298337E-01  0.263251E-01  0.229034E-01  0.197186E-01  0.168699E-01  0.144059E-01
  0.123347E-01  0.106381E-01  0.928355E-02  0.823299E-02  0.744599E-02  0.688169E-02
  0.650130E-02  0.627082E-02  0.616205E-02  0.615123E-02  0.621682E-02  0.633821E-02
  0.649572E-02  0.667083E-02  0.727822E-02  0.750832E-02  0.772309E-02  0.790419E-02
  0.803726E-02  0.811305E-02  0.812728E-02  0.808044E-02  0.797856E-02  0.783376E-02
  0.766340E-02  0.748801E-02  0.732988E-02  0.721268E-02  0.716136E-02  0.720179E-02
  0.736137E-02  0.767078E-02  0.816577E-02  0.888729E-02  0.987979E-02  0.111894E-01
  0.128627E-01  0.149431E-01  0.174634E-01  0.204303E-01  0.238088E-01  0.275074E-01
  0.313718E-01  0.351914E-01  0.387247E-01  0.417426E-01  0.440779E-01  0.456545E-01
  0.464769E-01  0.465884E-01  0.460222E-01  0.447792E-01  0.428449E-01  0.402344E-01
  0.370341E-01  0.334115E-01  0.295869E-01  0.257860E-01  0.221991E-01  0.189593E-01
  0.161393E-01  0.137602E-01  0.118066E-01  0.102435E-01  0.902782E-02  0.811464E-02
  0.745893E-02  0.701734E-02  0.675090E-02  0.662688E-02  0.661827E-02  0.670137E-02
  0.685364E-02  0.705304E-02  0.727822E-02  0.793596E-02  0.823553E-02  0.852190E-02
  0.877212E-02  0.896702E-02  0.909313E-02  0.914295E-02  0.911481E-02  0.901347E-02
  0.885107E-02  0.864645E-02  0.842293E-02  0.820618E-02  0.802337E-02  0.790288E-02
  0.787386E-02  0.796663E-02  0.821430E-02  0.865462E-02  0.933037E-02  0.102880E-01
  0.115764E-01  0.132461E-01  0.153471E-01  0.179201E-01  0.209814E-01  0.245035E-01
  0.283986E-01  0.325086E-01  0.366083E-01  0.404304E-01  0.437147E-01  0.462707E-01
  0.480172E-01  0.489757E-01  0.492176E-01  0.487987E-01  0.477213E-01  0.459462E-01
  0.434452E-01  0.402620E-01  0.365411E-01  0.325084E-01  0.284178E-01  0.244979E-01
  0.209177E-01  0.177775E-01  0.151150E-01  0.129221E-01  0.111634E-01  0.979247E-02
  0.876037E-02  0.801868E-02  0.752067E-02  0.722347E-02  0.709047E-02  0.709158E-02
  0.720099E-02  0.739436E-02  0.764745E-02  0.793596E-02  0.863503E-02  0.901947E-02
  0.939381E-02  0.972997E-02  0.100031E-01  0.101944E-01  0.102920E-01  0.102913E-01
  0.101952E-01  0.100156E-01  0.977262E-02  0.949244E-02  0.920452E-02  0.894002E-02
  0.873116E-02  0.861083E-02  0.861254E-02  0.877181E-02  0.912796E-02  0.972479E-02
  0.106096E-01  0.118320E-01  0.134443E-01  0.154999E-01  0.180459E-01  0.211077E-01
  0.246685E-01  0.286501E-01  0.329004E-01  0.371916E-01  0.412416E-01  0.447649E-01
  0.475420E-01  0.494737E-01  0.505827E-01  0.509589E-01  0.506814E-01  0.497654E-01
  0.481631E-01  0.458167E-01  0.427295E-01  0.390141E-01  0.348863E-01  0.306147E-01
  0.264570E-01  0.226149E-01  0.192159E-01  0.163170E-01  0.139200E-01  0.119928E-01
  0.104872E-01  0.935190E-02  0.853605E-02  0.799094E-02  0.767132E-02  0.753784E-02
  0.755789E-02  0.770378E-02  0.794962E-02  0.826909E-02  0.863503E-02  0.935832E-02
  0.984304E-02  0.103221E-01  0.107618E-01  0.111311E-01  0.114044E-01  0.115645E-01
  0.116025E-01  0.115190E-01  0.113249E-01  0.110414E-01  0.106977E-01  0.103275E-01
  0.996621E-02  0.965056E-02  0.941748E-02  0.930398E-02  0.934797E-02  0.959001E-02
  0.100743E-01  0.108478E-01  0.119598E-01  0.134615E-01  0.154067E-01  0.178456E-01
  0.208111E-01  0.242984E-01  0.282445E-01  0.325126E-01  0.368869E-01  0.410871E-01
  0.448140E-01  0.478203E-01  0.499744E-01  0.512775E-01  0.518162E-01  0.516829E-01
  0.509106E-01  0.494608E-01  0.472677E-01  0.443108E-01  0.406735E-01  0.365517E-01
  0.322124E-01  0.279282E-01  0.239239E-01  0.203501E-01  0.172821E-01  0.147339E-01
  0.126788E-01  0.110699E-01  0.985515E-02  0.898315E-02  0.840472E-02  0.807396E-02
  0.795025E-02  0.799948E-02  0.819262E-02  0.850246E-02  0.890095E-02  0.935832E-02
  0.100797E-01  0.106789E-01  0.112785E-01  0.118393E-01  0.123231E-01  0.126968E-01
  0.129361E-01  0.130269E-01  0.129661E-01  0.127631E-01  0.124398E-01  0.120284E-01
  0.115669E-01  0.110959E-01  0.106570E-01  0.102917E-01  0.100408E-01  0.994462E-02
  0.100447E-01  0.103849E-01  0.110114E-01  0.119714E-01  0.133139E-01  0.150896E-01
  0.173480E-01  0.201266E-01  0.234318E-01  0.272185E-01  0.313729E-01  0.357038E-01
  0.399504E-01  0.438174E-01  0.470386E-01  0.494441E-01  0.509923E-01  0.517403E-01
  0.517735E-01  0.511375E-01  0.498143E-01  0.477523E-01  0.449301E-01  0.414152E-01
  0.373824E-01  0.330840E-01  0.287908E-01  0.247371E-01  0.210885E-01  0.179352E-01
  0.153027E-01  0.131719E-01  0.115001E-01  0.102368E-01  0.933189E-02  0.873759E-02
  0.840910E-02  0.830628E-02  0.839482E-02  0.864519E-02  0.902946E-02  0.951832E-02
  0.100797E-01  0.107648E-01  0.114898E-01  0.122234E-01  0.129207E-01  0.135364E-01
  0.140289E-01  0.143656E-01  0.145255E-01  0.145008E-01  0.142983E-01  0.139399E-01
  0.134603E-01  0.129021E-01  0.123117E-01  0.117362E-01  0.112224E-01  0.108155E-01
  0.105584E-01  0.104932E-01  0.106628E-01  0.111117E-01  0.118846E-01  0.130268E-01
  0.145840E-01  0.166016E-01  0.191173E-01  0.221459E-01  0.256600E-01  0.295722E-01
  0.337241E-01  0.378879E-01  0.417904E-01  0.451630E-01  0.478038E-01  0.496191E-01
  0.506158E-01  0.508495E-01  0.503644E-01  0.491631E-01  0.472219E-01  0.445387E-01
  0.411814E-01  0.373092E-01  0.331526E-01  0.289668E-01  0.249811E-01  0.213656E-01
  0.182197E-01  0.155790E-01  0.134328E-01  0.117446E-01  0.104683E-01  0.955724E-02
  0.896676E-02  0.865494E-02  0.858379E-02  0.872033E-02  0.903568E-02  0.950210E-02
  0.100897E-01  0.107648E-01  0.113731E-01  0.122305E-01  0.131068E-01  0.139520E-01
  0.147136E-01  0.153412E-01  0.157930E-01  0.160398E-01  0.160674E-01  0.158789E-01
  0.154951E-01  0.149523E-01  0.142976E-01  0.135832E-01  0.128627E-01  0.121891E-01
  0.116126E-01  0.111792E-01  0.109316E-01  0.109115E-01  0.111603E-01  0.117200E-01
  0.126314E-01  0.139344E-01  0.156677E-01  0.178652E-01  0.205456E-01  0.236961E-01
  0.272550E-01  0.310987E-01  0.350395E-01  0.388394E-01  0.422454E-01  0.450402E-01
  0.470855E-01  0.483315E-01  0.487886E-01  0.484831E-01  0.474289E-01  0.456308E-01
  0.431148E-01  0.399613E-01  0.363208E-01  0.324009E-01  0.284322E-01  0.246277E-01
  0.211519E-01  0.181071E-01  0.155362E-01  0.134372E-01  0.117814E-01  0.105294E-01
  0.964018E-02  0.907376E-02  0.879261E-02  0.876240E-02  0.895299E-02  0.933752E-02
  0.988951E-02  0.105795E-01  0.113731E-01  0.118623E-01  0.128519E-01  0.138727E-01
  0.148704E-01  0.157857E-01  0.165601E-01  0.171417E-01  0.174920E-01  0.175894E-01
  0.174319E-01  0.170376E-01  0.164434E-01  0.156998E-01  0.148645E-01  0.139981E-01
  0.131603E-01  0.124074E-01  0.117895E-01  0.113503E-01  0.111298E-01  0.111662E-01
  0.114973E-01  0.121598E-01  0.131875E-01  0.146115E-01  0.164591E-01  0.187479E-01
  0.214745E-01  0.245984E-01  0.280288E-01  0.316184E-01  0.351698E-01  0.384593E-01
  0.412739E-01  0.434496E-01  0.448904E-01  0.455600E-01  0.454561E-01  0.445903E-01
  0.429859E-01  0.406932E-01  0.378069E-01  0.344726E-01  0.308766E-01  0.272220E-01
  0.236986E-01  0.204581E-01  0.176002E-01  0.151720E-01  0.131793E-01  0.116027E-01
  0.104109E-01  0.957007E-02  0.904654E-02  0.880820E-02  0.882564E-02  0.907282E-02
  0.952622E-02  0.101619E-01  0.109520E-01  0.118623E-01  0.121924E-01  0.133055E-01
  0.144642E-01  0.156102E-01  0.166788E-01  0.176038E-01  0.183240E-01  0.187911E-01
  0.189748E-01  0.188666E-01  0.184811E-01  0.178540E-01  0.170373E-01  0.160936E-01
  0.150898E-01  0.140929E-01  0.131659E-01  0.123639E-01  0.117327E-01  0.113107E-01
  0.111328E-01  0.112322E-01  0.116408E-01  0.123869E-01  0.134944E-01  0.149829E-01
  0.168653E-01  0.191413E-01  0.217859E-01  0.247352E-01  0.278782E-01  0.310582E-01
  0.340869E-01  0.367711E-01  0.389425E-01  0.404793E-01  0.413099E-01  0.414032E-01
  0.407584E-01  0.394031E-01  0.373992E-01  0.348484E-01  0.318902E-01  0.286911E-01
  0.254273E-01  0.222635E-01  0.193347E-01  0.167336E-01  0.145087E-01  0.126729E-01
  0.112157E-01  0.101153E-01  0.934587E-02  0.888083E-02  0.869434E-02  0.876269E-02
  0.906496E-02  0.958205E-02  0.102936E-01  0.111746E-01  0.121924E-01  0.123300E-01
  0.135495E-01  0.148299E-01  0.161101E-01  0.173216E-01  0.183916E-01  0.192510E-01
  0.198418E-01  0.201247E-01  0.200838E-01  0.197284E-01  0.190916E-01  0.182255E-01
  0.171953E-01  0.160735E-01  0.149336E-01  0.138455E-01  0.128699E-01  0.120557E-01
  0.114412E-01  0.110578E-01  0.109339E-01  0.110964E-01  0.115684E-01  0.123680E-01
  0.135073E-01  0.149930E-01  0.168237E-01  0.189825E-01  0.214253E-01  0.240716E-01
  0.268010E-01  0.294617E-01  0.318885E-01  0.339256E-01  0.354455E-01  0.363587E-01
  0.366138E-01  0.361948E-01  0.351222E-01  0.334555E-01  0.312923E-01  0.287608E-01
  0.260079E-01  0.231844E-01  0.204310E-01  0.178645E-01  0.155683E-01  0.135903E-01
  0.119488E-01  0.106418E-01  0.965689E-02  0.897637E-02  0.858092E-02  0.845127E-02
  0.856988E-02  0.892158E-02  0.949233E-02  0.102663E-01  0.112222E-01  0.123300E-01
  0.122536E-01  0.135536E-01  0.149300E-01  0.163207E-01  0.176542E-01  0.188535E-01
  0.198432E-01  0.205568E-01  0.209460E-01  0.209868E-01  0.206826E-01  0.200622E-01
  0.191758E-01  0.180896E-01  0.168791E-01  0.156234E-01  0.143983E-01  0.132704E-01
  0.122925E-01  0.115037E-01  0.109334E-01  0.106054E-01  0.105412E-01  0.107591E-01
  0.112720E-01  0.120866E-01  0.132039E-01  0.146189E-01  0.163175E-01  0.182683E-01
  0.204133E-01  0.226632E-01  0.248998E-01  0.269886E-01  0.287952E-01  0.302013E-01
  0.311153E-01  0.314763E-01  0.312567E-01  0.304653E-01  0.291497E-01  0.273938E-01
  0.253089E-01  0.230205E-01  0.206560E-01  0.183334E-01  0.161517E-01  0.141842E-01
  0.124768E-01  0.110517E-01  0.991436E-02  0.906029E-02  0.847951E-02  0.815948E-02
  0.808733E-02  0.825175E-02  0.864342E-02  0.925369E-02  0.100716E-01  0.110803E-01
  0.122536E-01  0.119571E-01  0.133047E-01  0.147433E-01  0.162114E-01  0.176364E-01
  0.189393E-01  0.200404E-01  0.208669E-01  0.213624E-01  0.214947E-01  0.212601E-01
  0.206822E-01  0.198078E-01  0.187014E-01  0.174397E-01  0.161049E-01  0.147775E-01
  0.135289E-01  0.124158E-01  0.114798E-01  0.107492E-01  0.102447E-01  0.998267E-02
  0.997627E-02  0.102342E-01  0.107591E-01  0.115478E-01  0.125923E-01  0.138783E-01
  0.153811E-01  0.170581E-01  0.188437E-01  0.206489E-01  0.223686E-01  0.238932E-01
  0.251212E-01  0.259691E-01  0.263763E-01  0.263093E-01  0.257662E-01  0.247796E-01
  0.234150E-01  0.217626E-01  0.199256E-01  0.180086E-01  0.161085E-01  0.143077E-01
  0.126697E-01  0.112372E-01  0.100352E-01  0.907480E-02  0.835788E-02  0.788070E-02
  0.763661E-02  0.761859E-02  0.782112E-02  0.824053E-02  0.887338E-02  0.971352E-02
  0.107487E-01  0.119571E-01  0.114520E-01  0.128100E-01  0.142711E-01  0.157764E-01
  0.172547E-01  0.186268E-01  0.198114E-01  0.207319E-01  0.213256E-01  0.215525E-01
  0.214015E-01  0.208899E-01  0.200596E-01  0.189716E-01  0.177010E-01  0.163305E-01
  0.149431E-01  0.136135E-01  0.124022E-01  0.113529E-01  0.104950E-01  0.984730E-02
  0.942231E-02  0.922854E-02  0.927042E-02  0.954749E-02  0.100542E-01  0.107806E-01
  0.117121E-01  0.128275E-01  0.140937E-01  0.154620E-01  0.168662E-01  0.182268E-01
  0.194582E-01  0.204786E-01  0.212173E-01  0.216202E-01  0.216535E-01  0.213080E-01
  0.206028E-01  0.195848E-01  0.183227E-01  0.168972E-01  0.153912E-01  0.138822E-01
  0.124373E-01  0.111105E-01  0.994132E-02  0.895578E-02  0.816870E-02  0.758654E-02
  0.721020E-02  0.703776E-02  0.706713E-02  0.729791E-02  0.773137E-02  0.836869E-02
  0.920805E-02  0.102415E-01  0.114520E-01  0.107655E-01  0.120960E-01  0.135380E-01
  0.150371E-01  0.165254E-01  0.179264E-01  0.191598E-01  0.201477E-01  0.208234E-01
  0.211407E-01  0.210810E-01  0.206545E-01  0.198972E-01  0.188647E-01  0.176281E-01
  0.162681E-01  0.148673E-01  0.135018E-01  0.122343E-01  0.111110E-01  0.101628E-01
  0.940831E-02  0.885802E-02  0.851686E-02  0.838550E-02  0.846054E-02  0.873473E-02
  0.919749E-02  0.983480E-02  0.106278E-01  0.115498E-01  0.125636E-01  0.136198E-01
  0.146589E-01  0.156164E-01  0.164287E-01  0.170394E-01  0.174036E-01  0.174908E-01
  0.172886E-01  0.168059E-01  0.160738E-01  0.151417E-01  0.140698E-01  0.129211E-01
  0.117558E-01  0.106273E-01  0.958085E-02  0.865195E-02  0.786628E-02  0.724041E-02
  0.678355E-02  0.649981E-02  0.639087E-02  0.645861E-02  0.670671E-02  0.714043E-02