
     Program POST-PROC v.6.5 starts on 11Aug2023 at 14:29:53 

     This program is part of the open-source Quantum ESPRESSO suite
     for quantum simulation of materials; please cite
         "P. Giannozzi et al., J. Phys.:Condens. Matter 21 395502 (2009);
         "P. Giannozzi et al., J. Phys.:Condens. Matter 29 465901 (2017);
          URL http://www.quantum-espresso.org", 
     in publications or presentations arising from this work. More details at
     http://www.quantum-espresso.org/quote

     Serial version

     Reading xml data from directory:

     /projectsn/mp1009_1/Valeria/cWT-KEDF/Phases/Transition_Btin_hd/0.5/si_0.5_9_4_Btin_hd.save/

     Program POST-PROC v.6.5 starts on 11Aug2023 at 14:29:53 

     This program is part of the open-source Quantum ESPRESSO suite
     for quantum simulation of materials; please cite
         "P. Giannozzi et al., J. Phys.:Condens. Matter 21 395502 (2009);
         "P. Giannozzi et al., J. Phys.:Condens. Matter 29 465901 (2017);
          URL http://www.quantum-espresso.org", 
     in publications or presentations arising from this work. More details at
     http://www.quantum-espresso.org/quote

     Serial version

     Reading xml data from directory:

     /projectsn/mp1009_1/Valeria/cWT-KEDF/Phases/Transition_Btin_hd/0.5/si_0.5_9_4_Btin_hd.save/

     Program POST-PROC v.6.5 starts on 11Aug2023 at 14:29:53 

     This program is part of the open-source Quantum ESPRESSO suite
     for quantum simulation of materials; please cite
         "P. Giannozzi et al., J. Phys.:Condens. Matter 21 395502 (2009);
         "P. Giannozzi et al., J. Phys.:Condens. Matter 29 465901 (2017);
          URL http://www.quantum-espresso.org", 
     in publications or presentations arising from this work. More details at
     http://www.quantum-espresso.org/quote

     Serial version

     Reading xml data from directory:

     /projectsn/mp1009_1/Valeria/cWT-KEDF/Phases/Transition_Btin_hd/0.5/si_0.5_9_4_Btin_hd.save/

     Program POST-PROC v.6.5 starts on 11Aug2023 at 14:29:53 

     This program is part of the open-source Quantum ESPRESSO suite
     for quantum simulation of materials; please cite
         "P. Giannozzi et al., J. Phys.:Condens. Matter 21 395502 (2009);
         "P. Giannozzi et al., J. Phys.:Condens. Matter 29 465901 (2017);
          URL http://www.quantum-espresso.org", 
     in publications or presentations arising from this work. More details at
     http://www.quantum-espresso.org/quote

     Serial version

     Reading xml data from directory:

     /projectsn/mp1009_1/Valeria/cWT-KEDF/Phases/Transition_Btin_hd/0.5/si_0.5_9_4_Btin_hd.save/

     Program POST-PROC v.6.5 starts on 11Aug2023 at 14:29:53 

     This program is part of the open-source Quantum ESPRESSO suite
     for quantum simulation of materials; please cite
         "P. Giannozzi et al., J. Phys.:Condens. Matter 21 395502 (2009);
         "P. Giannozzi et al., J. Phys.:Condens. Matter 29 465901 (2017);
          URL http://www.quantum-espresso.org", 
     in publications or presentations arising from this work. More details at
     http://www.quantum-espresso.org/quote

     Serial version

     Reading xml data from directory:

     /projectsn/mp1009_1/Valeria/cWT-KEDF/Phases/Transition_Btin_hd/0.5/si_0.5_9_4_Btin_hd.save/

     Program POST-PROC v.6.5 starts on 11Aug2023 at 14:29:53 

     This program is part of the open-source Quantum ESPRESSO suite
     for quantum simulation of materials; please cite
         "P. Giannozzi et al., J. Phys.:Condens. Matter 21 395502 (2009);
         "P. Giannozzi et al., J. Phys.:Condens. Matter 29 465901 (2017);
          URL http://www.quantum-espresso.org", 
     in publications or presentations arising from this work. More details at
     http://www.quantum-espresso.org/quote

     Serial version

     Reading xml data from directory:

     /projectsn/mp1009_1/Valeria/cWT-KEDF/Phases/Transition_Btin_hd/0.5/si_0.5_9_4_Btin_hd.save/

     Program POST-PROC v.6.5 starts on 11Aug2023 at 14:29:53 

     This program is part of the open-source Quantum ESPRESSO suite
     for quantum simulation of materials; please cite
         "P. Giannozzi et al., J. Phys.:Condens. Matter 21 395502 (2009);
         "P. Giannozzi et al., J. Phys.:Condens. Matter 29 465901 (2017);
          URL http://www.quantum-espresso.org", 
     in publications or presentations arising from this work. More details at
     http://www.quantum-espresso.org/quote

     Serial version

     Reading xml data from directory:

     /projectsn/mp1009_1/Valeria/cWT-KEDF/Phases/Transition_Btin_hd/0.5/si_0.5_9_4_Btin_hd.save/

     Program POST-PROC v.6.5 starts on 11Aug2023 at 14:29:53 

     This program is part of the open-source Quantum ESPRESSO suite
     for quantum simulation of materials; please cite
         "P. Giannozzi et al., J. Phys.:Condens. Matter 21 395502 (2009);
         "P. Giannozzi et al., J. Phys.:Condens. Matter 29 465901 (2017);
          URL http://www.quantum-espresso.org", 
     in publications or presentations arising from this work. More details at
     http://www.quantum-espresso.org/quote

     Serial version

     Reading xml data from directory:

     /projectsn/mp1009_1/Valeria/cWT-KEDF/Phases/Transition_Btin_hd/0.5/si_0.5_9_4_Btin_hd.save/

     Program POST-PROC v.6.5 starts on 11Aug2023 at 14:29:53 

     This program is part of the open-source Quantum ESPRESSO suite
     for quantum simulation of materials; please cite
         "P. Giannozzi et al., J. Phys.:Condens. Matter 21 395502 (2009);
         "P. Giannozzi et al., J. Phys.:Condens. Matter 29 465901 (2017);
          URL http://www.quantum-espresso.org", 
     in publications or presentations arising from this work. More details at
     http://www.quantum-espresso.org/quote

     Serial version

     Reading xml data from directory:

     /projectsn/mp1009_1/Valeria/cWT-KEDF/Phases/Transition_Btin_hd/0.5/si_0.5_9_4_Btin_hd.save/

     Program POST-PROC v.6.5 starts on 11Aug2023 at 14:29:53 

     This program is part of the open-source Quantum ESPRESSO suite
     for quantum simulation of materials; please cite
         "P. Giannozzi et al., J. Phys.:Condens. Matter 21 395502 (2009);
         "P. Giannozzi et al., J. Phys.:Condens. Matter 29 465901 (2017);
          URL http://www.quantum-espresso.org", 
     in publications or presentations arising from this work. More details at
     http://www.quantum-espresso.org/quote

     Serial version

     Reading xml data from directory:

     /projectsn/mp1009_1/Valeria/cWT-KEDF/Phases/Transition_Btin_hd/0.5/si_0.5_9_4_Btin_hd.save/

     Program POST-PROC v.6.5 starts on 11Aug2023 at 14:29:53 

     This program is part of the open-source Quantum ESPRESSO suite
     for quantum simulation of materials; please cite
         "P. Giannozzi et al., J. Phys.:Condens. Matter 21 395502 (2009);
         "P. Giannozzi et al., J. Phys.:Condens. Matter 29 465901 (2017);
          URL http://www.quantum-espresso.org", 
     in publications or presentations arising from this work. More details at
     http://www.quantum-espresso.org/quote

     Serial version

     Reading xml data from directory:

     /projectsn/mp1009_1/Valeria/cWT-KEDF/Phases/Transition_Btin_hd/0.5/si_0.5_9_4_Btin_hd.save/

     Program POST-PROC v.6.5 starts on 11Aug2023 at 14:29:53 

     This program is part of the open-source Quantum ESPRESSO suite
     for quantum simulation of materials; please cite
         "P. Giannozzi et al., J. Phys.:Condens. Matter 21 395502 (2009);
         "P. Giannozzi et al., J. Phys.:Condens. Matter 29 465901 (2017);
          URL http://www.quantum-espresso.org", 
     in publications or presentations arising from this work. More details at
     http://www.quantum-espresso.org/quote

     Serial version

     Reading xml data from directory:

     /projectsn/mp1009_1/Valeria/cWT-KEDF/Phases/Transition_Btin_hd/0.5/si_0.5_9_4_Btin_hd.save/

     Program POST-PROC v.6.5 starts on 11Aug2023 at 14:29:53 

     This program is part of the open-source Quantum ESPRESSO suite
     for quantum simulation of materials; please cite
         "P. Giannozzi et al., J. Phys.:Condens. Matter 21 395502 (2009);
         "P. Giannozzi et al., J. Phys.:Condens. Matter 29 465901 (2017);
          URL http://www.quantum-espresso.org", 
     in publications or presentations arising from this work. More details at
     http://www.quantum-espresso.org/quote

     Serial version

     Reading xml data from directory:

     /projectsn/mp1009_1/Valeria/cWT-KEDF/Phases/Transition_Btin_hd/0.5/si_0.5_9_4_Btin_hd.save/

     Program POST-PROC v.6.5 starts on 11Aug2023 at 14:29:53 

     This program is part of the open-source Quantum ESPRESSO suite
     for quantum simulation of materials; please cite
         "P. Giannozzi et al., J. Phys.:Condens. Matter 21 395502 (2009);
         "P. Giannozzi et al., J. Phys.:Condens. Matter 29 465901 (2017);
          URL http://www.quantum-espresso.org", 
     in publications or presentations arising from this work. More details at
     http://www.quantum-espresso.org/quote

     Serial version

     Reading xml data from directory:

     /projectsn/mp1009_1/Valeria/cWT-KEDF/Phases/Transition_Btin_hd/0.5/si_0.5_9_4_Btin_hd.save/

     Program POST-PROC v.6.5 starts on 11Aug2023 at 14:29:53 

     This program is part of the open-source Quantum ESPRESSO suite
     for quantum simulation of materials; please cite
         "P. Giannozzi et al., J. Phys.:Condens. Matter 21 395502 (2009);
         "P. Giannozzi et al., J. Phys.:Condens. Matter 29 465901 (2017);
          URL http://www.quantum-espresso.org", 
     in publications or presentations arising from this work. More details at
     http://www.quantum-espresso.org/quote

     Serial version

     Reading xml data from directory:

     /projectsn/mp1009_1/Valeria/cWT-KEDF/Phases/Transition_Btin_hd/0.5/si_0.5_9_4_Btin_hd.save/

     Program POST-PROC v.6.5 starts on 11Aug2023 at 14:29:53 

     This program is part of the open-source Quantum ESPRESSO suite
     for quantum simulation of materials; please cite
         "P. Giannozzi et al., J. Phys.:Condens. Matter 21 395502 (2009);
         "P. Giannozzi et al., J. Phys.:Condens. Matter 29 465901 (2017);
          URL http://www.quantum-espresso.org", 
     in publications or presentations arising from this work. More details at
     http://www.quantum-espresso.org/quote

     Serial version

     Reading xml data from directory:

     /projectsn/mp1009_1/Valeria/cWT-KEDF/Phases/Transition_Btin_hd/0.5/si_0.5_9_4_Btin_hd.save/

     Program POST-PROC v.6.5 starts on 11Aug2023 at 14:29:53 

     This program is part of the open-source Quantum ESPRESSO suite
     for quantum simulation of materials; please cite
         "P. Giannozzi et al., J. Phys.:Condens. Matter 21 395502 (2009);
         "P. Giannozzi et al., J. Phys.:Condens. Matter 29 465901 (2017);
          URL http://www.quantum-espresso.org", 
     in publications or presentations arising from this work. More details at
     http://www.quantum-espresso.org/quote

     Serial version

     Program POST-PROC v.6.5 starts on 11Aug2023 at 14:29:53 

     Reading xml data from directory:

     /projectsn/mp1009_1/Valeria/cWT-KEDF/Phases/Transition_Btin_hd/0.5/si_0.5_9_4_Btin_hd.save/

     This program is part of the open-source Quantum ESPRESSO suite
     for quantum simulation of materials; please cite
         "P. Giannozzi et al., J. Phys.:Condens. Matter 21 395502 (2009);
         "P. Giannozzi et al., J. Phys.:Condens. Matter 29 465901 (2017);
          URL http://www.quantum-espresso.org", 
     in publications or presentations arising from this work. More details at
     http://www.quantum-espresso.org/quote

     Serial version

     Program POST-PROC v.6.5 starts on 11Aug2023 at 14:29:53 

     This program is part of the open-source Quantum ESPRESSO suite
     for quantum simulation of materials; please cite
         "P. Giannozzi et al., J. Phys.:Condens. Matter 21 395502 (2009);
         "P. Giannozzi et al., J. Phys.:Condens. Matter 29 465901 (2017);
          URL http://www.quantum-espresso.org", 
     in publications or presentations arising from this work. More details at
     http://www.quantum-espresso.org/quote

     Serial version

     Reading xml data from directory:

     /projectsn/mp1009_1/Valeria/cWT-KEDF/Phases/Transition_Btin_hd/0.5/si_0.5_9_4_Btin_hd.save/

     Reading xml data from directory:

     /projectsn/mp1009_1/Valeria/cWT-KEDF/Phases/Transition_Btin_hd/0.5/si_0.5_9_4_Btin_hd.save/

     Program POST-PROC v.6.5 starts on 11Aug2023 at 14:29:53 

     This program is part of the open-source Quantum ESPRESSO suite
     for quantum simulation of materials; please cite
         "P. Giannozzi et al., J. Phys.:Condens. Matter 21 395502 (2009);
         "P. Giannozzi et al., J. Phys.:Condens. Matter 29 465901 (2017);
          URL http://www.quantum-espresso.org", 
     in publications or presentations arising from this work. More details at
     http://www.quantum-espresso.org/quote

     Serial version

     Reading xml data from directory:

     /projectsn/mp1009_1/Valeria/cWT-KEDF/Phases/Transition_Btin_hd/0.5/si_0.5_9_4_Btin_hd.save/

     IMPORTANT: XC functional enforced from input :
     Exchange-correlation= PZ
                           (   1   1   0   0   0   0   0)
     Any further DFT definition will be discarded
     Please, verify this is what you really want


     G-vector sticks info
     --------------------
     sticks:   dense  smooth     PW     G-vecs:    dense   smooth      PW
     Sum        1157    1157    347                31637    31637    5145


     IMPORTANT: XC functional enforced from input :
     Exchange-correlation= PZ
                           (   1   1   0   0   0   0   0)
     Any further DFT definition will be discarded
     Please, verify this is what you really want


     G-vector sticks info
     --------------------
     sticks:   dense  smooth     PW     G-vecs:    dense   smooth      PW
     Sum        1157    1157    347                31637    31637    5145


     IMPORTANT: XC functional enforced from input :
     Exchange-correlation= PZ
                           (   1   1   0   0   0   0   0)
     Any further DFT definition will be discarded
     Please, verify this is what you really want


     G-vector sticks info
     --------------------
     sticks:   dense  smooth     PW     G-vecs:    dense   smooth      PW
     Sum        1157    1157    347                31637    31637    5145


     IMPORTANT: XC functional enforced from input :
     Exchange-correlation= PZ
                           (   1   1   0   0   0   0   0)
     Any further DFT definition will be discarded
     Please, verify this is what you really want


     G-vector sticks info
     --------------------
     sticks:   dense  smooth     PW     G-vecs:    dense   smooth      PW
     Sum        1157    1157    347                31637    31637    5145


     IMPORTANT: XC functional enforced from input :
     Exchange-correlation= PZ
                           (   1   1   0   0   0   0   0)
     Any further DFT definition will be discarded
     Please, verify this is what you really want


     G-vector sticks info
     --------------------
     sticks:   dense  smooth     PW     G-vecs:    dense   smooth      PW
     Sum        1157    1157    347                31637    31637    5145


     Calling punch_plot, plot_num =   0
     Writing data to file  tmp.pp

     IMPORTANT: XC functional enforced from input :
     Exchange-correlation= PZ
                           (   1   1   0   0   0   0   0)
     Any further DFT definition will be discarded
     Please, verify this is what you really want


     G-vector sticks info
     --------------------
     sticks:   dense  smooth     PW     G-vecs:    dense   smooth      PW
     Sum        1157    1157    347                31637    31637    5145

     Reading data from file  tmp.pp

     IMPORTANT: XC functional enforced from input :
     Exchange-correlation= PZ
                           (   1   1   0   0   0   0   0)
     Any further DFT definition will be discarded
     Please, verify this is what you really want


     G-vector sticks info
     --------------------
     sticks:   dense  smooth     PW     G-vecs:    dense   smooth      PW
     Sum        1157    1157    347                31637    31637    5145


     Calling punch_plot, plot_num =   0
     Writing data to file  tmp.pp

     IMPORTANT: XC functional enforced from input :
     Exchange-correlation= PZ
                           (   1   1   0   0   0   0   0)
     Any further DFT definition will be discarded
     Please, verify this is what you really want


     IMPORTANT: XC functional enforced from input :
     Exchange-correlation= PZ
                           (   1   1   0   0   0   0   0)
     Any further DFT definition will be discarded
     Please, verify this is what you really want


     G-vector sticks info
     --------------------
     sticks:   dense  smooth     PW     G-vecs:    dense   smooth      PW
     Sum        1157    1157    347                31637    31637    5145


     G-vector sticks info
     --------------------
     sticks:   dense  smooth     PW     G-vecs:    dense   smooth      PW
     Sum        1157    1157    347                31637    31637    5145


     IMPORTANT: XC functional enforced from input :
     Exchange-correlation= PZ
                           (   1   1   0   0   0   0   0)
     Any further DFT definition will be discarded
     Please, verify this is what you really want


     G-vector sticks info
     --------------------
     sticks:   dense  smooth     PW     G-vecs:    dense   smooth      PW
     Sum        1157    1157    347                31637    31637    5145

     Reading data from file  tmp.pp

     IMPORTANT: XC functional enforced from input :
     Exchange-correlation= PZ
                           (   1   1   0   0   0   0   0)
     Any further DFT definition will be discarded
     Please, verify this is what you really want


     G-vector sticks info
     --------------------
     sticks:   dense  smooth     PW     G-vecs:    dense   smooth      PW
     Sum        1157    1157    347                31637    31637    5145


     Calling punch_plot, plot_num =   0
     Writing data to file  tmp.pp

     IMPORTANT: XC functional enforced from input :
     Exchange-correlation= PZ
                           (   1   1   0   0   0   0   0)
     Any further DFT definition will be discarded
     Please, verify this is what you really want


     G-vector sticks info
     --------------------
     sticks:   dense  smooth     PW     G-vecs:    dense   smooth      PW
     Sum        1157    1157    347                31637    31637    5145


     IMPORTANT: XC functional enforced from input :
     Exchange-correlation= PZ
                           (   1   1   0   0   0   0   0)
     Any further DFT definition will be discarded
     Please, verify this is what you really want


     G-vector sticks info
     --------------------
     sticks:   dense  smooth     PW     G-vecs:    dense   smooth      PW
     Sum        1157    1157    347                31637    31637    5145

     Reading data from file  tmp.pp

     Calling punch_plot, plot_num =   0
     Writing data to file  tmp.pp

     IMPORTANT: XC functional enforced from input :
     Exchange-correlation= PZ
                           (   1   1   0   0   0   0   0)
     Any further DFT definition will be discarded
     Please, verify this is what you really want

     Reading data from file  tmp.pp

     G-vector sticks info
     --------------------
     sticks:   dense  smooth     PW     G-vecs:    dense   smooth      PW
     Sum        1157    1157    347                31637    31637    5145


     Calling punch_plot, plot_num =   0
     Writing data to file  tmp.pp

     IMPORTANT: XC functional enforced from input :
     Exchange-correlation= PZ
                           (   1   1   0   0   0   0   0)
     Any further DFT definition will be discarded
     Please, verify this is what you really want


     G-vector sticks info
     --------------------
     sticks:   dense  smooth     PW     G-vecs:    dense   smooth      PW
     Sum        1157    1157    347                31637    31637    5145


     Calling punch_plot, plot_num =   0
     Writing data to file  tmp.pp

     IMPORTANT: XC functional enforced from input :
     Exchange-correlation= PZ
                           (   1   1   0   0   0   0   0)
     Any further DFT definition will be discarded
     Please, verify this is what you really want


     IMPORTANT: XC functional enforced from input :
     Exchange-correlation= PZ
                           (   1   1   0   0   0   0   0)
     Any further DFT definition will be discarded
     Please, verify this is what you really want


     G-vector sticks info
     --------------------
     sticks:   dense  smooth     PW     G-vecs:    dense   smooth      PW
     Sum        1157    1157    347                31637    31637    5145


     G-vector sticks info
     --------------------
     sticks:   dense  smooth     PW     G-vecs:    dense   smooth      PW
     Sum        1157    1157    347                31637    31637    5145


     IMPORTANT: XC functional enforced from input :
     Exchange-correlation= PZ
                           (   1   1   0   0   0   0   0)
     Any further DFT definition will be discarded
     Please, verify this is what you really want


     G-vector sticks info
     --------------------
     sticks:   dense  smooth     PW     G-vecs:    dense   smooth      PW
     Sum        1157    1157    347                31637    31637    5145


     IMPORTANT: XC functional enforced from input :
     Exchange-correlation= PZ
                           (   1   1   0   0   0   0   0)
     Any further DFT definition will be discarded
     Please, verify this is what you really want


     G-vector sticks info
     --------------------
     sticks:   dense  smooth     PW     G-vecs:    dense   smooth      PW
     Sum        1157    1157    347                31637    31637    5145


     Calling punch_plot, plot_num =   0
     Writing data to file  tmp.pp
     Reading data from file  tmp.pp

     Calling punch_plot, plot_num =   0
     Writing data to file  tmp.pp
     Reading data from file  tmp.pp

     Calling punch_plot, plot_num =   0
     Writing data to file  tmp.pp

     Calling punch_plot, plot_num =   0
     Writing data to file  tmp.pp

     Calling punch_plot, plot_num =   0
     Writing data to file  tmp.pp

     IMPORTANT: XC functional enforced from input :
     Exchange-correlation= PZ
                           (   1   1   0   0   0   0   0)
     Any further DFT definition will be discarded
     Please, verify this is what you really want


     G-vector sticks info
     --------------------
     sticks:   dense  smooth     PW     G-vecs:    dense   smooth      PW
     Sum        1157    1157    347                31637    31637    5145

     Reading data from file  tmp.pp

     Calling punch_plot, plot_num =   0
     Writing data to file  tmp.pp
     Reading data from file  tmp.pp
     Reading data from file  tmp.pp

     Calling punch_plot, plot_num =   0
     Writing data to file  tmp.pp
     Reading data from file  tmp.pp
     Reading data from file  tmp.pp
     Reading data from file  tmp.pp
     Reading data from file  tmp.pp

     Writing data to be plotted to file si_0.5_9_4_Btin_hd.xsf

     Calling punch_plot, plot_num =   0
     Writing data to file  tmp.pp

     Calling punch_plot, plot_num =   0
     Writing data to file  tmp.pp

     Calling punch_plot, plot_num =   0
     Writing data to file  tmp.pp

     Calling punch_plot, plot_num =   0
     Writing data to file  tmp.pp

     Calling punch_plot, plot_num =   0
     Writing data to file  tmp.pp

     Calling punch_plot, plot_num =   0
     Writing data to file  tmp.pp
     Reading data from file  tmp.pp
     Plot Type: 3D                     Output format: XCrySDen     

     POST-PROC    :      3.47s CPU      3.65s WALL


   This run was terminated on:  14:29:57  11Aug2023            

=------------------------------------------------------------------------------=
   JOB DONE.
=------------------------------------------------------------------------------=
     Reading data from file  tmp.pp
     Reading data from file  tmp.pp
     Reading data from file  tmp.pp
     Reading data from file  tmp.pp
     Reading data from file  tmp.pp

     Writing data to be plotted to file si_0.5_9_4_Btin_hd.xsf

     Writing data to be plotted to file si_0.5_9_4_Btin_hd.xsf

     Writing data to be plotted to file si_0.5_9_4_Btin_hd.xsf

     Writing data to be plotted to file si_0.5_9_4_Btin_hd.xsf

     Writing data to be plotted to file si_0.5_9_4_Btin_hd.xsf

     Calling punch_plot, plot_num =   0
     Writing data to file  tmp.pp
     Plot Type: 3D                     Output format: XCrySDen     

     POST-PROC    :      3.49s CPU      3.67s WALL


   This run was terminated on:  14:29:57  11Aug2023            

=------------------------------------------------------------------------------=
   JOB DONE.
=------------------------------------------------------------------------------=
     Reading data from file  tmp.pp
     Plot Type: 3D                     Output format: XCrySDen     

     POST-PROC    :      3.56s CPU      3.72s WALL


   This run was terminated on:  14:29:57  11Aug2023            

=------------------------------------------------------------------------------=
   JOB DONE.
=------------------------------------------------------------------------------=
     Plot Type: 3D                     Output format: XCrySDen     

     POST-PROC    :      3.57s CPU      3.73s WALL


   This run was terminated on:  14:29:57  11Aug2023            

=------------------------------------------------------------------------------=
   JOB DONE.
=------------------------------------------------------------------------------=
     Plot Type: 3D                     Output format: XCrySDen     

     POST-PROC    :      3.58s CPU      3.73s WALL


   This run was terminated on:  14:29:57  11Aug2023            

=------------------------------------------------------------------------------=
   JOB DONE.
=------------------------------------------------------------------------------=
     Plot Type: 3D                     Output format: XCrySDen     

     POST-PROC    :      3.59s CPU      3.73s WALL


   This run was terminated on:  14:29:57  11Aug2023            

=------------------------------------------------------------------------------=
   JOB DONE.
=------------------------------------------------------------------------------=

     Writing data to be plotted to file si_0.5_9_4_Btin_hd.xsf
     Plot Type: 3D                     Output format: XCrySDen     

     POST-PROC    :      3.67s CPU      3.82s WALL


   This run was terminated on:  14:29:57  11Aug2023            

=------------------------------------------------------------------------------=
   JOB DONE.
=------------------------------------------------------------------------------=
