 CRYSTAL
 PRIMVEC
    4.070694291    0.000007524   -0.000000000
   -0.899185457    3.829760335   -0.000000000
   -0.000000000   -0.000000000    4.208719189
 PRIMCOORD
           4           1
Si       -0.086753656    0.933047975    1.421827536
Si        2.038433886    1.619207342    0.585019834
Si        0.086762610    2.279712053    3.326380558
Si        2.032264483    0.555258003    2.458262174
BEGIN_BLOCK_DATAGRID_3D
3D_PWSCF
BEGIN_DATAGRID_3D_UNKNOWN
          41          41          41
  0.000000  0.000000  0.000000
    4.070694    0.000008   -0.000000
   -0.899185    3.829760   -0.000000
   -0.000000   -0.000000    4.208719
  0.108339E-01  0.110271E-01  0.111739E-01  0.112807E-01  0.113587E-01  0.114212E-01
  0.114827E-01  0.115589E-01  0.116656E-01  0.118156E-01  0.120167E-01  0.122695E-01
  0.125664E-01  0.128928E-01  0.132278E-01  0.135466E-01  0.138216E-01  0.140235E-01
  0.141237E-01  0.140981E-01  0.139326E-01  0.136272E-01  0.131975E-01  0.126710E-01
  0.120824E-01  0.114687E-01  0.108671E-01  0.103121E-01  0.983384E-02  0.945502E-02
  0.918940E-02  0.904141E-02  0.900702E-02  0.907540E-02  0.923088E-02  0.945462E-02
  0.972562E-02  0.100212E-01  0.103180E-01  0.105945E-01  0.108339E-01  0.114303E-01
  0.115602E-01  0.116276E-01  0.116428E-01  0.116234E-01  0.115907E-01  0.115680E-01
  0.115791E-01  0.116470E-01  0.117916E-01  0.120271E-01  0.123585E-01  0.127802E-01
  0.132751E-01  0.138156E-01  0.143661E-01  0.148853E-01  0.153284E-01  0.156508E-01
  0.158128E-01  0.157869E-01  0.155650E-01  0.151600E-01  0.146028E-01  0.139356E-01
  0.132066E-01  0.124650E-01  0.117588E-01  0.111307E-01  0.106141E-01  0.102298E-01
  0.998557E-02  0.987712E-02  0.989080E-02  0.100067E-01  0.102015E-01  0.104496E-01
  0.107236E-01  0.109954E-01  0.112381E-01  0.114303E-01  0.123013E-01  0.123839E-01
  0.123892E-01  0.123296E-01  0.122272E-01  0.121105E-01  0.120109E-01  0.119607E-01
  0.119914E-01  0.121307E-01  0.123999E-01  0.128097E-01  0.133579E-01  0.140271E-01
  0.147848E-01  0.155855E-01  0.163738E-01  0.170882E-01  0.176655E-01  0.180476E-01
  0.181905E-01  0.180736E-01  0.177041E-01  0.171143E-01  0.163545E-01  0.154848E-01
  0.145695E-01  0.136725E-01  0.128523E-01  0.121557E-01  0.116136E-01  0.112393E-01
  0.110296E-01  0.109687E-01  0.110323E-01  0.111914E-01  0.114149E-01  0.116702E-01
  0.119236E-01  0.121428E-01  0.123013E-01  0.134245E-01  0.134731E-01  0.134312E-01
  0.133118E-01  0.131404E-01  0.129509E-01  0.127824E-01  0.126762E-01  0.126732E-01
  0.128101E-01  0.131157E-01  0.136072E-01  0.142869E-01  0.151391E-01  0.161287E-01
  0.172021E-01  0.182902E-01  0.193132E-01  0.201871E-01  0.208315E-01  0.211814E-01
  0.211990E-01  0.208814E-01  0.202601E-01  0.193931E-01  0.183553E-01  0.172289E-01
  0.160974E-01  0.150381E-01  0.141140E-01  0.133685E-01  0.128223E-01  0.124756E-01
  0.123117E-01  0.123026E-01  0.124140E-01  0.126080E-01  0.128451E-01  0.130848E-01
  0.132885E-01  0.134245E-01  0.147793E-01  0.148058E-01  0.147298E-01  0.145640E-01
  0.143362E-01  0.140850E-01  0.138564E-01  0.137010E-01  0.136698E-01  0.138089E-01
  0.141554E-01  0.147335E-01  0.155513E-01  0.165971E-01  0.178360E-01  0.192083E-01
  0.206317E-01  0.220072E-01  0.232270E-01  0.241849E-01  0.247898E-01  0.249811E-01
  0.247399E-01  0.240931E-01  0.231063E-01  0.218710E-01  0.204924E-01  0.190776E-01
  0.177266E-01  0.165221E-01  0.155219E-01  0.147562E-01  0.142296E-01  0.139262E-01
  0.138164E-01  0.138610E-01  0.140153E-01  0.142316E-01  0.144607E-01  0.146562E-01
  0.147793E-01  0.163473E-01  0.163633E-01  0.162655E-01  0.160655E-01  0.157930E-01
  0.154907E-01  0.152114E-01  0.150147E-01  0.149616E-01  0.151083E-01  0.155004E-01
  0.161701E-01  0.171329E-01  0.183836E-01  0.198899E-01  0.215884E-01  0.233843E-01
  0.251580E-01  0.267756E-01  0.281019E-01  0.290161E-01  0.294288E-01  0.292992E-01
  0.286437E-01  0.275324E-01  0.260751E-01  0.244033E-01  0.226534E-01  0.209531E-01
  0.194089E-01  0.180969E-01  0.170586E-01  0.163043E-01  0.158199E-01  0.155746E-01
  0.155265E-01  0.156250E-01  0.158137E-01  0.160334E-01  0.162270E-01  0.163473E-01
  0.181121E-01  0.181307E-01  0.180244E-01  0.178026E-01  0.174964E-01  0.171531E-01
  0.168322E-01  0.166020E-01  0.165334E-01  0.166921E-01  0.171333E-01  0.178982E-01
  0.190116E-01  0.204768E-01  0.222664E-01  0.243144E-01  0.265140E-01  0.287243E-01
  0.307837E-01  0.325264E-01  0.338000E-01  0.344839E-01  0.345104E-01  0.338786E-01
  0.326569E-01  0.309702E-01  0.289772E-01  0.268474E-01  0.247415E-01  0.227955E-01
  0.211090E-01  0.197398E-01  0.187062E-01  0.179964E-01  0.175785E-01  0.174078E-01
  0.174292E-01  0.175787E-01  0.177866E-01  0.179840E-01  0.181121E-01  0.200587E-01
  0.200951E-01  0.199962E-01  0.197673E-01  0.194397E-01  0.190656E-01  0.187120E-01
  0.184557E-01  0.183763E-01  0.185491E-01  0.190396E-01  0.199000E-01  0.211663E-01
  0.228511E-01  0.249322E-01  0.273414E-01  0.299599E-01  0.326249E-01  0.351467E-01
  0.373291E-01  0.389903E-01  0.399823E-01  0.402106E-01  0.396521E-01  0.383636E-01
  0.364746E-01  0.341647E-01  0.316358E-01  0.290850E-01  0.266835E-01  0.245617E-01
  0.228008E-01  0.214335E-01  0.204529E-01  0.198255E-01  0.195023E-01  0.194231E-01
  0.195178E-01  0.197077E-01  0.199121E-01  0.200587E-01  0.221727E-01  0.222431E-01
  0.221711E-01  0.219533E-01  0.216197E-01  0.212268E-01  0.208497E-01  0.205737E-01
  0.204868E-01  0.206732E-01  0.212095E-01  0.221609E-01  0.235759E-01  0.254765E-01
  0.278442E-01  0.306070E-01  0.336326E-01  0.367356E-01  0.396971E-01  0.422934E-01
  0.443219E-01  0.456200E-01  0.460786E-01  0.456544E-01  0.443812E-01  0.423721E-01
  0.398083E-01  0.369129E-01  0.339183E-01  0.310358E-01  0.284347E-01  0.262289E-01
  0.244752E-01  0.231785E-01  0.223064E-01  0.218035E-01  0.216021E-01  0.216251E-01
  0.217872E-01  0.219982E-01  0.221727E-01  0.244411E-01  0.245612E-01  0.245370E-01
  0.243520E-01  0.240310E-01  0.236339E-01  0.232436E-01  0.229542E-01  0.228616E-01
  0.230587E-01  0.236338E-01  0.246663E-01  0.262180E-01  0.283188E-01  0.309509E-01
  0.340342E-01  0.374195E-01  0.408942E-01  0.442090E-01  0.471166E-01  0.494094E-01
  0.509379E-01  0.516082E-01  0.513736E-01  0.502368E-01  0.482646E-01  0.456002E-01
  0.424576E-01  0.390915E-01  0.357561E-01  0.326687E-01  0.299881E-01  0.278069E-01
  0.261536E-01  0.250038E-01  0.242974E-01  0.239561E-01  0.238933E-01  0.240175E-01
  0.242322E-01  0.244411E-01  0.268546E-01  0.270381E-01  0.270819E-01  0.269524E-01
  0.266647E-01  0.262793E-01  0.258865E-01  0.255892E-01  0.254913E-01  0.256941E-01
  0.262978E-01  0.273963E-01  0.290642E-01  0.313371E-01  0.341931E-01  0.375378E-01
  0.411963E-01  0.449211E-01  0.484259E-01  0.514455E-01  0.537909E-01  0.553679E-01
  0.561477E-01  0.561182E-01  0.552580E-01  0.535551E-01  0.510566E-01  0.479082E-01
  0.443510E-01  0.406740E-01  0.371536E-01  0.340094E-01  0.313853E-01  0.293475E-01
  0.278920E-01  0.269612E-01  0.264667E-01  0.263095E-01  0.263897E-01  0.266060E-01
  0.268546E-01  0.294065E-01  0.296664E-01  0.297970E-01  0.297443E-01  0.295101E-01
  0.291522E-01  0.287667E-01  0.284653E-01  0.283596E-01  0.285596E-01  0.291768E-01
  0.303198E-01  0.320750E-01  0.344809E-01  0.375059E-01  0.410322E-01  0.448474E-01
  0.486542E-01  0.521202E-01  0.549664E-01  0.570505E-01  0.583843E-01  0.590670E-01
  0.591778E-01  0.587002E-01  0.575286E-01  0.555537E-01  0.527702E-01  0.493348E-01
  0.455390E-01  0.417214E-01  0.381828E-01  0.351397E-01  0.327132E-01  0.309353E-01
  0.297636E-01  0.291063E-01  0.288520E-01  0.288895E-01  0.291109E-01  0.294065E-01
  0.320861E-01  0.324371E-01  0.326723E-01  0.327164E-01  0.325549E-01  0.322396E-01
  0.318700E-01  0.315659E-01  0.314466E-01  0.316299E-01  0.322387E-01  0.333960E-01
  0.351998E-01  0.376899E-01  0.408202E-01  0.444404E-01  0.482860E-01  0.519929E-01
  0.551701E-01  0.575277E-01  0.589949E-01  0.597356E-01  0.600344E-01  0.601200E-01
  0.600292E-01  0.595827E-01  0.584857E-01  0.565030E-01  0.536109E-01  0.500327E-01
  0.461481E-01  0.423539E-01  0.389648E-01  0.361791E-01  0.340823E-01  0.326629E-01
  0.318384E-01  0.314900E-01  0.314935E-01  0.317312E-01  0.320861E-01  0.348684E-01
  0.353273E-01  0.356852E-01  0.358459E-01  0.357767E-01  0.355198E-01  0.351757E-01
  0.348697E-01  0.347284E-01  0.348765E-01  0.354473E-01  0.365780E-01  0.383799E-01
  0.408953E-01  0.440630E-01  0.476948E-01  0.514627E-01  0.549218E-01  0.576098E-01
  0.592244E-01  0.597804E-01  0.596195E-01  0.592432E-01  0.590677E-01  0.592318E-01
  0.595352E-01  0.595246E-01  0.587044E-01  0.567838E-01  0.538201E-01  0.501736E-01
  0.463284E-01  0.427180E-01  0.396419E-01  0.372578E-01  0.356019E-01  0.346153E-01
  0.341816E-01  0.341658E-01  0.344372E-01  0.348684E-01  0.377062E-01  0.382896E-01
  0.387875E-01  0.390842E-01  0.391280E-01  0.389485E-01  0.386424E-01  0.383383E-01
  0.381673E-01  0.382599E-01  0.387578E-01  0.398123E-01  0.415498E-01  0.440209E-01
  0.471548E-01  0.507286E-01  0.543508E-01  0.574901E-01  0.596046E-01  0.603708E-01
  0.598821E-01  0.586539E-01  0.574017E-01  0.567337E-01  0.569192E-01  0.577982E-01
  0.588348E-01  0.593148E-01  0.586505E-01  0.566454E-01  0.535518E-01  0.498952E-01
  0.462269E-01  0.429651E-01  0.403570E-01  0.384999E-01  0.373722E-01  0.368709E-01
  0.368551E-01  0.371802E-01  0.377062E-01  0.405290E-01  0.412495E-01  0.418995E-01
  0.423481E-01  0.425250E-01  0.424439E-01  0.421928E-01  0.418986E-01  0.416946E-01
  0.417140E-01  0.421043E-01  0.430288E-01  0.446317E-01  0.469789E-01  0.500020E-01
  0.534586E-01  0.569091E-01  0.597471E-01  0.613508E-01  0.613562E-01  0.599027E-01
  0.576405E-01  0.554647E-01  0.541537E-01  0.541101E-01  0.552584E-01  0.570663E-01
  0.586968E-01  0.593122E-01  0.584315E-01  0.561177E-01  0.528654E-01  0.493107E-01
  0.459891E-01  0.432463E-01  0.412492E-01  0.400217E-01  0.394829E-01  0.394919E-01
  0.398919E-01  0.405290E-01  0.432449E-01  0.441083E-01  0.449134E-01  0.455199E-01
  0.458427E-01  0.458784E-01  0.457013E-01  0.454306E-01  0.451967E-01  0.451321E-01
  0.453860E-01  0.461302E-01  0.475268E-01  0.496639E-01  0.524912E-01  0.557708E-01
  0.590465E-01  0.616685E-01  0.629477E-01  0.624578E-01  0.603241E-01  0.572595E-01
  0.542793E-01  0.522967E-01  0.518366E-01  0.529269E-01  0.551021E-01  0.575048E-01
  0.591484E-01  0.593106E-01  0.578334E-01  0.551116E-01  0.518086E-01  0.485506E-01
  0.457749E-01  0.437181E-01  0.424514E-01  0.419193E-01  0.419857E-01  0.424832E-01
  0.432449E-01  0.457416E-01  0.467471E-01  0.476983E-01  0.484533E-01  0.489197E-01
  0.490805E-01  0.489935E-01  0.487641E-01  0.485127E-01  0.483648E-01  0.484656E-01
  0.489899E-01  0.501150E-01  0.519557E-01  0.544942E-01  0.575239E-01  0.606133E-01
  0.631172E-01  0.643130E-01  0.636989E-01  0.613170E-01  0.578427E-01  0.543272E-01
  0.517734E-01  0.508139E-01  0.515853E-01  0.537199E-01  0.564152E-01  0.586469E-01
  0.595476E-01  0.587713E-01  0.565780E-01  0.535984E-01  0.505017E-01  0.477916E-01
  0.457629E-01  0.445289E-01  0.440589E-01  0.442225E-01  0.448434E-01  0.457416E-01
  0.478862E-01  0.490290E-01  0.501071E-01  0.509847E-01  0.515730E-01  0.518502E-01
  0.518608E-01  0.516918E-01  0.514455E-01  0.512311E-01  0.511805E-01  0.514634E-01
  0.522667E-01  0.537330E-01  0.558870E-01  0.585764E-01  0.614331E-01  0.638709E-01
  0.651858E-01  0.648152E-01  0.626662E-01  0.592713E-01  0.556100E-01  0.527079E-01
  0.512834E-01  0.515804E-01  0.533426E-01  0.558675E-01  0.581838E-01  0.593923E-01
  0.590372E-01  0.572535E-01  0.545957E-01  0.517209E-01  0.491596E-01  0.472429E-01
  0.461149E-01  0.457649E-01  0.460680E-01  0.468396E-01  0.478862E-01  0.495338E-01
  0.508086E-01  0.519904E-01  0.529544E-01  0.536264E-01  0.539933E-01  0.540952E-01
  0.540017E-01  0.537899E-01  0.535412E-01  0.533621E-01  0.534056E-01  0.538596E-01
  0.548917E-01  0.565739E-01  0.588225E-01  0.613593E-01  0.637012E-01  0.652210E-01
  0.653413E-01  0.638281E-01  0.609964E-01  0.576414E-01  0.547167E-01  0.529771E-01
  0.527622E-01  0.539340E-01  0.559192E-01  0.578665E-01  0.589448E-01  0.586812E-01
  0.571258E-01  0.547378E-01  0.521142E-01  0.497674E-01  0.480356E-01  0.470789E-01
  0.469006E-01  0.473807E-01  0.483278E-01  0.495338E-01  0.505481E-01  0.519528E-01
  0.532211E-01  0.542383E-01  0.549521E-01  0.553708E-01  0.555432E-01  0.555281E-01
  0.553751E-01  0.551291E-01  0.548587E-01  0.546869E-01  0.547913E-01  0.553568E-01
  0.565025E-01  0.582175E-01  0.603243E-01  0.624648E-01  0.641314E-01  0.647924E-01
  0.641178E-01  0.621935E-01  0.595527E-01  0.569721E-01  0.551612E-01  0.545169E-01
  0.550166E-01  0.562378E-01  0.574975E-01  0.581075E-01  0.576563E-01  0.561575E-01
  0.539761E-01  0.516170E-01  0.495358E-01  0.480493E-01  0.473170E-01  0.473499E-01
  0.480337E-01  0.491734E-01  0.505481E-01  0.508270E-01  0.523674E-01  0.537204E-01
  0.547762E-01  0.555037E-01  0.559397E-01  0.561526E-01  0.562010E-01  0.561114E-01
  0.558903E-01  0.555617E-01  0.552086E-01  0.549860E-01  0.550851E-01  0.556641E-01
  0.567817E-01  0.583569E-01  0.601550E-01  0.618029E-01  0.628608E-01  0.629735E-01
  0.620506E-01  0.603550E-01  0.584156E-01  0.568055E-01  0.559135E-01  0.558067E-01
  0.562202E-01  0.566667E-01  0.566435E-01  0.558504E-01  0.543038E-01  0.522881E-01
  0.502045E-01  0.484287E-01  0.472338E-01  0.467648E-01  0.470345E-01  0.479360E-01
  0.492765E-01  0.508270E-01  0.503190E-01  0.520097E-01  0.534668E-01  0.545756E-01
  0.553180E-01  0.557560E-01  0.559822E-01  0.560637E-01  0.560143E-01  0.558091E-01
  0.554309E-01  0.549213E-01  0.544048E-01  0.540658E-01  0.540882E-01  0.545878E-01
  0.555669E-01  0.568977E-01  0.583294E-01  0.595296E-01  0.601766E-01  0.600874E-01
  0.593137E-01  0.581337E-01  0.569278E-01  0.560071E-01  0.554812E-01  0.552218E-01
  0.549342E-01  0.543075E-01  0.531689E-01  0.515607E-01  0.497065E-01  0.479113E-01
  0.464664E-01  0.455915E-01  0.454075E-01  0.459249E-01  0.470458E-01  0.485870E-01
  0.503190E-01  0.490208E-01  0.508813E-01  0.524785E-01  0.536831E-01  0.544749E-01
  0.549289E-01  0.551567E-01  0.552384E-01  0.551855E-01  0.549559E-01  0.545045E-01
  0.538407E-01  0.530594E-01  0.523287E-01  0.518406E-01  0.517486E-01  0.521195E-01
  0.529095E-01  0.539655E-01  0.550517E-01  0.559066E-01  0.563257E-01  0.562376E-01
  0.557277E-01  0.549872E-01  0.542114E-01  0.535015E-01  0.528208E-01  0.520299E-01
  0.509812E-01  0.496158E-01  0.480081E-01  0.463409E-01  0.448442E-01  0.437362E-01
  0.431854E-01  0.432864E-01  0.440447E-01  0.453734E-01  0.471055E-01  0.490208E-01
  0.469680E-01  0.490103E-01  0.507851E-01  0.521410E-01  0.530402E-01  0.535518E-01
  0.537938E-01  0.538560E-01  0.537563E-01  0.534501E-01  0.528828E-01  0.520483E-01
  0.510217E-01  0.499524E-01  0.490252E-01  0.484091E-01  0.482115E-01  0.484497E-01
  0.490438E-01  0.498336E-01  0.506181E-01  0.512106E-01  0.514902E-01  0.514284E-01
  0.510770E-01  0.505208E-01  0.498217E-01  0.489851E-01  0.479711E-01  0.467442E-01
  0.453263E-01  0.438170E-01  0.423745E-01  0.411773E-01  0.403903E-01  0.401413E-01
  0.405017E-01  0.414729E-01  0.429808E-01  0.448800E-01  0.469680E-01  0.442329E-01
  0.464455E-01  0.484144E-01  0.499654E-01  0.510307E-01  0.516555E-01  0.519460E-01
  0.519940E-01  0.518260E-01  0.514072E-01  0.506899E-01  0.496694E-01  0.484148E-01
  0.470616E-01  0.457798E-01  0.447345E-01  0.440500E-01  0.437815E-01  0.439014E-01
  0.443069E-01  0.448487E-01  0.453703E-01  0.457442E-01  0.458918E-01  0.457848E-01
  0.454303E-01  0.448472E-01  0.440484E-01  0.430417E-01  0.418511E-01  0.405408E-01
  0.392218E-01  0.380353E-01  0.371272E-01  0.366278E-01  0.366362E-01  0.372077E-01
  0.383428E-01  0.399819E-01  0.420045E-01  0.442329E-01  0.409321E-01  0.432694E-01
  0.454103E-01  0.471639E-01  0.484295E-01  0.492143E-01  0.495971E-01  0.496595E-01
  0.494344E-01  0.489030E-01  0.480346E-01  0.468376E-01  0.453856E-01  0.438079E-01
  0.422598E-01  0.408925E-01  0.398284E-01  0.391391E-01  0.388308E-01  0.388440E-01
  0.390722E-01  0.393914E-01  0.396862E-01  0.398647E-01  0.398631E-01  0.396458E-01
  0.392009E-01  0.385342E-01  0.376682E-01  0.366475E-01  0.355483E-01  0.344779E-01
  0.335610E-01  0.329213E-01  0.326660E-01  0.328759E-01  0.335967E-01  0.348321E-01
  0.365385E-01  0.386217E-01  0.409321E-01  0.372299E-01  0.396154E-01  0.418642E-01
  0.437811E-01  0.452380E-01  0.462011E-01  0.467106E-01  0.468266E-01  0.465827E-01
  0.459758E-01  0.449961E-01  0.436685E-01  0.420745E-01  0.403420E-01  0.386161E-01
  0.370334E-01  0.357049E-01  0.347031E-01  0.340508E-01  0.337185E-01  0.336352E-01
  0.337085E-01  0.338425E-01  0.339496E-01  0.339562E-01  0.338087E-01  0.334779E-01
  0.329612E-01  0.322801E-01  0.314800E-01  0.306310E-01  0.298259E-01  0.291703E-01
  0.287687E-01  0.287109E-01  0.290652E-01  0.298723E-01  0.311414E-01  0.328457E-01
  0.349154E-01  0.372299E-01  0.333247E-01  0.356666E-01  0.379314E-01  0.399329E-01
  0.415286E-01  0.426499E-01  0.432959E-01  0.434983E-01  0.432836E-01  0.426606E-01
  0.416381E-01  0.402552E-01  0.385989E-01  0.367943E-01  0.349793E-01  0.332797E-01
  0.317952E-01  0.305918E-01  0.296966E-01  0.290976E-01  0.287502E-01  0.285900E-01
  0.285434E-01  0.285357E-01  0.284966E-01  0.283684E-01  0.281152E-01  0.277276E-01
  0.272217E-01  0.266354E-01  0.260260E-01  0.254674E-01  0.250442E-01  0.248416E-01
  0.249348E-01  0.253817E-01  0.262203E-01  0.274655E-01  0.291045E-01  0.310890E-01
  0.333247E-01  0.294193E-01  0.316306E-01  0.338142E-01  0.358043E-01  0.374583E-01
  0.386850E-01  0.394486E-01  0.397507E-01  0.396053E-01  0.390265E-01  0.380368E-01
  0.366845E-01  0.350561E-01  0.332696E-01  0.314538E-01  0.297265E-01  0.281796E-01
  0.268730E-01  0.258331E-01  0.250558E-01  0.245138E-01  0.241642E-01  0.239546E-01
  0.238263E-01  0.237191E-01  0.235797E-01  0.233716E-01  0.230812E-01  0.227181E-01
  0.223108E-01  0.219028E-01  0.215494E-01  0.213149E-01  0.212663E-01  0.214651E-01
  0.219611E-01  0.227892E-01  0.239675E-01  0.254934E-01  0.273346E-01  0.294193E-01
  0.256910E-01  0.277044E-01  0.297250E-01  0.316133E-01  0.332388E-01  0.345016E-01
  0.353421E-01  0.357357E-01  0.356813E-01  0.351926E-01  0.342990E-01  0.330532E-01
  0.315363E-01  0.298536E-01  0.281205E-01  0.264453E-01  0.249142E-01  0.235842E-01
  0.224812E-01  0.216057E-01  0.209408E-01  0.204583E-01  0.201221E-01  0.198892E-01
  0.197122E-01  0.195467E-01  0.193597E-01  0.191358E-01  0.188785E-01  0.186072E-01
  0.183529E-01  0.181552E-01  0.180609E-01  0.181208E-01  0.183846E-01  0.188946E-01
  0.196823E-01  0.207665E-01  0.221492E-01  0.238087E-01  0.256910E-01  0.222735E-01
  0.240485E-01  0.258504E-01  0.275679E-01  0.290897E-01  0.303196E-01  0.311862E-01
  0.316470E-01  0.316864E-01  0.313132E-01  0.305580E-01  0.294730E-01  0.281308E-01
  0.266208E-01  0.250411E-01  0.234863E-01  0.220358E-01  0.207447E-01  0.196410E-01
  0.187301E-01  0.180024E-01  0.174399E-01  0.170178E-01  0.167055E-01  0.164680E-01
  0.162713E-01  0.160885E-01  0.159049E-01  0.157192E-01  0.155431E-01  0.153972E-01
  0.153089E-01  0.153108E-01  0.154403E-01  0.157364E-01  0.162347E-01  0.169629E-01
  0.179378E-01  0.191625E-01  0.206214E-01  0.222735E-01  0.192549E-01  0.207767E-01
  0.223327E-01  0.238374E-01  0.252014E-01  0.263407E-01  0.271838E-01  0.276793E-01
  0.278012E-01  0.275506E-01  0.269545E-01  0.260604E-01  0.249307E-01  0.236385E-01
  0.222622E-01  0.208801E-01  0.195613E-01  0.183580E-01  0.173007E-01  0.164007E-01
  0.156554E-01  0.150542E-01  0.145806E-01  0.142132E-01  0.139274E-01  0.136991E-01
  0.135086E-01  0.133435E-01  0.132004E-01  0.130847E-01  0.130095E-01  0.129928E-01
  0.130567E-01  0.132273E-01  0.135336E-01  0.140040E-01  0.146618E-01  0.155211E-01
  0.165846E-01  0.178397E-01  0.192549E-01  0.166837E-01  0.179583E-01  0.192653E-01
  0.205410E-01  0.217169E-01  0.227253E-01  0.235032E-01  0.239998E-01  0.241837E-01
  0.240489E-01  0.236150E-01  0.229213E-01  0.220189E-01  0.209649E-01  0.198190E-01
  0.186421E-01  0.174909E-01  0.164122E-01  0.154377E-01  0.145835E-01  0.138537E-01
  0.132438E-01  0.127439E-01  0.123401E-01  0.120162E-01  0.117569E-01  0.115495E-01
  0.113853E-01  0.112607E-01  0.111775E-01  0.111434E-01  0.111697E-01  0.112707E-01
  0.114631E-01  0.117665E-01  0.122013E-01  0.127853E-01  0.135298E-01  0.144369E-01
  0.154964E-01  0.166837E-01  0.145782E-01  0.156241E-01  0.166964E-01  0.177474E-01
  0.187263E-01  0.195824E-01  0.202662E-01  0.207341E-01  0.209556E-01  0.209198E-01
  0.206378E-01  0.201383E-01  0.194600E-01  0.186449E-01  0.177364E-01  0.167787E-01
  0.158158E-01  0.148869E-01  0.140224E-01  0.132412E-01  0.125518E-01  0.119551E-01
  0.114468E-01  0.110194E-01  0.106645E-01  0.103742E-01  0.101424E-01  0.996480E-02
  0.983923E-02  0.976631E-02  0.975011E-02  0.979749E-02  0.991683E-02  0.101176E-01
  0.104106E-01  0.108081E-01  0.113214E-01  0.119584E-01  0.127204E-01  0.136000E-01
  0.145782E-01  0.129346E-01  0.137765E-01  0.146368E-01  0.154799E-01  0.162692E-01
  0.169684E-01  0.175426E-01  0.179599E-01  0.181952E-01  0.182364E-01  0.180870E-01
  0.177647E-01  0.172954E-01  0.167074E-01  0.160297E-01  0.152923E-01  0.145265E-01
  0.137628E-01  0.130273E-01  0.123390E-01  0.117087E-01  0.111410E-01  0.106367E-01
  0.101943E-01  0.981238E-02  0.949002E-02  0.922719E-02  0.902426E-02  0.888176E-02
  0.880082E-02  0.878385E-02  0.883458E-02  0.895713E-02  0.915537E-02  0.943325E-02
  0.979515E-02  0.102456E-01  0.107879E-01  0.114220E-01  0.121422E-01  0.129346E-01
  0.117359E-01  0.123992E-01  0.130719E-01  0.137287E-01  0.143438E-01  0.148930E-01
  0.153543E-01  0.157079E-01  0.159372E-01  0.160323E-01  0.159921E-01  0.158244E-01
  0.155432E-01  0.151646E-01  0.147052E-01  0.141827E-01  0.136166E-01  0.130272E-01
  0.124341E-01  0.118530E-01  0.112947E-01  0.107666E-01  0.102737E-01  0.982064E-02
  0.941260E-02  0.905526E-02  0.875436E-02  0.851507E-02  0.834145E-02  0.823652E-02
  0.820264E-02  0.824168E-02  0.835471E-02  0.854149E-02  0.880065E-02  0.913018E-02
  0.952805E-02  0.999210E-02  0.105192E-01  0.111039E-01  0.117359E-01  0.109568E-01
  0.114665E-01  0.119749E-01  0.124661E-01  0.129243E-01  0.133351E-01  0.136872E-01
  0.139714E-01  0.141806E-01  0.143094E-01  0.143550E-01  0.143187E-01  0.142042E-01
  0.140171E-01  0.137634E-01  0.134497E-01  0.130843E-01  0.126765E-01  0.122365E-01
  0.117738E-01  0.112972E-01  0.108150E-01  0.103367E-01  0.987282E-02  0.943537E-02
  0.903659E-02  0.868812E-02  0.840025E-02  0.818123E-02  0.803703E-02  0.797123E-02
  0.798513E-02  0.807770E-02  0.824560E-02  0.848337E-02  0.878399E-02  0.913967E-02
  0.954254E-02  0.998498E-02  0.104593E-01  0.109568E-01  0.105676E-01  0.109484E-01
  0.113146E-01  0.116593E-01  0.119762E-01  0.122604E-01  0.125094E-01  0.127233E-01
  0.129030E-01  0.130492E-01  0.131607E-01  0.132350E-01  0.132691E-01  0.132596E-01
  0.132029E-01  0.130953E-01  0.129337E-01  0.127158E-01  0.124402E-01  0.121076E-01
  0.117216E-01  0.112905E-01  0.108272E-01  0.103485E-01  0.987351E-02  0.942171E-02
  0.901144E-02  0.865902E-02  0.837790E-02  0.817795E-02  0.806498E-02  0.804064E-02
  0.810262E-02  0.824504E-02  0.845905E-02  0.873349E-02  0.905571E-02  0.941243E-02
  0.979074E-02  0.101790E-01  0.105676E-01  0.105369E-01  0.108128E-01  0.110586E-01
  0.112752E-01  0.114654E-01  0.116336E-01  0.117858E-01  0.119300E-01  0.120747E-01
  0.122265E-01  0.123881E-01  0.125570E-01  0.127265E-01  0.128863E-01  0.130238E-01
  0.131250E-01  0.131750E-01  0.131586E-01  0.130616E-01  0.128732E-01  0.125895E-01
  0.122161E-01  0.117682E-01  0.112685E-01  0.107438E-01  0.102219E-01  0.972921E-02
  0.929015E-02  0.892507E-02  0.864912E-02  0.847132E-02  0.839433E-02  0.841490E-02
  0.852482E-02  0.871198E-02  0.896147E-02  0.925637E-02  0.957851E-02  0.990965E-02
  0.102333E-01  0.105369E-01  0.108339E-01  0.110271E-01  0.111739E-01  0.112807E-01
  0.113587E-01  0.114212E-01  0.114827E-01  0.115589E-01  0.116656E-01  0.118156E-01
  0.120167E-01  0.122695E-01  0.125664E-01  0.128928E-01  0.132278E-01  0.135466E-01
  0.138216E-01  0.140235E-01  0.141237E-01  0.140981E-01  0.139326E-01  0.136272E-01
  0.131975E-01  0.126710E-01  0.120824E-01  0.114687E-01  0.108671E-01  0.103121E-01
  0.983384E-02  0.945502E-02  0.918940E-02  0.904141E-02  0.900702E-02  0.907540E-02
  0.923088E-02  0.945462E-02  0.972562E-02  0.100212E-01  0.103180E-01  0.105945E-01
  0.108339E-01  0.122267E-01  0.123208E-01  0.123336E-01  0.122769E-01  0.121685E-01
  0.120301E-01  0.118851E-01  0.117580E-01  0.116715E-01  0.116439E-01  0.116858E-01
  0.117992E-01  0.119772E-01  0.122064E-01  0.124678E-01  0.127376E-01  0.129881E-01
  0.131890E-01  0.133112E-01  0.133305E-01  0.132331E-01  0.130180E-01  0.126980E-01
  0.122968E-01  0.118449E-01  0.113761E-01  0.109244E-01  0.105222E-01  0.101977E-01
  0.997218E-02  0.985872E-02  0.986051E-02  0.997128E-02  0.101765E-01  0.104557E-01
  0.107843E-01  0.111355E-01  0.114814E-01  0.117939E-01  0.120483E-01  0.122267E-01
  0.132037E-01  0.132507E-01  0.131953E-01  0.130529E-01  0.128483E-01  0.126115E-01
  0.123753E-01  0.121727E-01  0.120348E-01  0.119873E-01  0.120470E-01  0.122201E-01
  0.125011E-01  0.128734E-01  0.133113E-01  0.137809E-01  0.142419E-01  0.146503E-01
  0.149622E-01  0.151399E-01  0.151579E-01  0.150083E-01  0.147015E-01  0.142640E-01
  0.137334E-01  0.131538E-01  0.125712E-01  0.120304E-01  0.115714E-01  0.112255E-01
  0.110127E-01  0.109396E-01  0.110003E-01  0.111776E-01  0.114466E-01  0.117770E-01
  0.121365E-01  0.124910E-01  0.128064E-01  0.130518E-01  0.132037E-01  0.144631E-01
  0.144757E-01  0.143658E-01  0.141507E-01  0.138603E-01  0.135325E-01  0.132093E-01
  0.129336E-01  0.127456E-01  0.126790E-01  0.127579E-01  0.129935E-01  0.133830E-01
  0.139094E-01  0.145416E-01  0.152363E-01  0.159398E-01  0.165920E-01  0.171318E-01
  0.175043E-01  0.176696E-01  0.176086E-01  0.173266E-01  0.168511E-01  0.162269E-01
  0.155100E-01  0.147615E-01  0.140421E-01  0.134063E-01  0.128977E-01  0.125451E-01
  0.123605E-01  0.123401E-01  0.124656E-01  0.127078E-01  0.130308E-01  0.133951E-01
  0.137594E-01  0.140825E-01  0.143269E-01  0.144631E-01  0.159786E-01  0.159680E-01
  0.158162E-01  0.155411E-01  0.151764E-01  0.147664E-01  0.143626E-01  0.140185E-01
  0.137846E-01  0.137036E-01  0.138067E-01  0.141109E-01  0.146177E-01  0.153118E-01
  0.161596E-01  0.171099E-01  0.180950E-01  0.190367E-01  0.198529E-01  0.204677E-01
  0.208217E-01  0.208807E-01  0.206408E-01  0.201281E-01  0.193944E-01  0.185100E-01
  0.175549E-01  0.166098E-01  0.157479E-01  0.150273E-01  0.144871E-01  0.141463E-01
  0.140044E-01  0.140441E-01  0.142339E-01  0.145328E-01  0.148935E-01  0.152657E-01
  0.155995E-01  0.158491E-01  0.159786E-01  0.177201E-01  0.176967E-01  0.175151E-01
  0.171929E-01  0.167663E-01  0.162853E-01  0.158100E-01  0.154050E-01  0.151321E-01
  0.150439E-01  0.151789E-01  0.155606E-01  0.161962E-01  0.170746E-01  0.181629E-01
  0.194036E-01  0.207155E-01  0.219996E-01  0.231493E-01  0.240629E-01  0.246570E-01
  0.248770E-01  0.247050E-01  0.241620E-01  0.233058E-01  0.222224E-01  0.210150E-01
  0.197897E-01  0.186432E-01  0.176522E-01  0.168687E-01  0.163192E-01  0.160078E-01
  0.159189E-01  0.160209E-01  0.162696E-01  0.166108E-01  0.169843E-01  0.173291E-01
  0.175890E-01  0.177201E-01  0.196530E-01  0.196280E-01  0.194289E-01  0.190728E-01
  0.185976E-01  0.180584E-01  0.175235E-01  0.170681E-01  0.167656E-01  0.166790E-01
  0.168553E-01  0.173253E-01  0.181036E-01  0.191855E-01  0.205412E-01  0.221087E-01
  0.237932E-01  0.254734E-01  0.270147E-01  0.282862E-01  0.291765E-01  0.296064E-01
  0.295387E-01  0.289848E-01  0.280044E-01  0.266989E-01  0.251969E-01  0.236348E-01
  0.221383E-01  0.208088E-01  0.197157E-01  0.188963E-01  0.183599E-01  0.180929E-01
  0.180643E-01  0.182280E-01  0.185250E-01  0.188862E-01  0.192381E-01  0.195120E-01
  0.196530E-01  0.217394E-01  0.217249E-01  0.215225E-01  0.211467E-01  0.206371E-01
  0.200539E-01  0.194731E-01  0.189801E-01  0.186590E-01  0.185836E-01  0.188109E-01
  0.193810E-01  0.203172E-01  0.216226E-01  0.232708E-01  0.251964E-01  0.272909E-01
  0.294094E-01  0.313881E-01  0.330649E-01  0.342997E-01  0.349878E-01  0.350703E-01
  0.345429E-01  0.334605E-01  0.319341E-01  0.301151E-01  0.281720E-01  0.262646E-01
  0.245252E-01  0.230481E-01  0.218879E-01  0.210631E-01  0.205631E-01  0.203563E-01
  0.203948E-01  0.206157E-01  0.209428E-01  0.212919E-01  0.215803E-01  0.217394E-01
  0.239399E-01  0.239495E-01  0.237600E-01  0.233811E-01  0.228530E-01  0.222411E-01
  0.216296E-01  0.211127E-01  0.207847E-01  0.207299E-01  0.210170E-01  0.216978E-01
  0.228059E-01  0.243515E-01  0.263102E-01  0.286115E-01  0.311326E-01  0.337042E-01
  0.361324E-01  0.382259E-01  0.398213E-01  0.407956E-01  0.410732E-01  0.406310E-01
  0.395078E-01  0.378086E-01  0.356958E-01  0.333648E-01  0.310112E-01  0.288044E-01
  0.268722E-01  0.252961E-01  0.241125E-01  0.233190E-01  0.228840E-01  0.227549E-01
  0.228640E-01  0.231294E-01  0.234586E-01  0.237567E-01  0.239399E-01  0.262175E-01
  0.262638E-01  0.261059E-01  0.257436E-01  0.252156E-01  0.245923E-01  0.239659E-01
  0.234393E-01  0.231156E-01  0.230895E-01  0.234429E-01  0.242417E-01  0.255307E-01
  0.273252E-01  0.295990E-01  0.322723E-01  0.352033E-01  0.381955E-01  0.410234E-01
  0.434723E-01  0.453704E-01  0.466006E-01  0.470913E-01  0.468081E-01  0.457593E-01
  0.440147E-01  0.417160E-01  0.390649E-01  0.362875E-01  0.335960E-01  0.311618E-01
  0.291054E-01  0.274938E-01  0.263432E-01  0.256271E-01  0.252882E-01  0.252500E-01
  0.254237E-01  0.257108E-01  0.260079E-01  0.262175E-01  0.285395E-01  0.286327E-01
  0.285252E-01  0.282019E-01  0.276956E-01  0.270799E-01  0.264552E-01  0.259329E-01
  0.256240E-01  0.256331E-01  0.260564E-01  0.269751E-01  0.284455E-01  0.304857E-01
  0.330617E-01  0.360756E-01  0.393569E-01  0.426712E-01  0.457568E-01  0.483839E-01