 CRYSTAL
 PRIMVEC
    3.981555000    0.000007359   -0.000000000
   -0.879495265    3.745896970   -0.000000000
   -0.000000000   -0.000000000    4.116557455
 PRIMCOORD
           4           1
Si       -0.084853941    0.912616268    1.390692626
Si        1.993796648    1.583750246    0.572209181
Si        0.084862699    2.229791351    3.253540108
Si        1.987762341    0.543099069    2.404431616
BEGIN_BLOCK_DATAGRID_3D
3D_PWSCF
BEGIN_DATAGRID_3D_UNKNOWN
          41          37          41
  0.000000  0.000000  0.000000
    3.981555    0.000007   -0.000000
   -0.879495    3.745897   -0.000000
   -0.000000   -0.000000    4.116557
  0.122932E-01  0.125126E-01  0.126837E-01  0.128120E-01  0.129063E-01  0.129793E-01
  0.130476E-01  0.131308E-01  0.132479E-01  0.134138E-01  0.136368E-01  0.139177E-01
  0.142489E-01  0.146140E-01  0.149884E-01  0.153415E-01  0.156407E-01  0.158543E-01
  0.159536E-01  0.159152E-01  0.157248E-01  0.153821E-01  0.149026E-01  0.143156E-01
  0.136588E-01  0.129731E-01  0.122997E-01  0.116777E-01  0.111423E-01  0.107206E-01
  0.104285E-01  0.102695E-01  0.102366E-01  0.103160E-01  0.104910E-01  0.107424E-01
  0.110479E-01  0.113814E-01  0.117152E-01  0.120249E-01  0.122932E-01  0.130127E-01
  0.131568E-01  0.132356E-01  0.132585E-01  0.132412E-01  0.132048E-01  0.131757E-01
  0.131834E-01  0.132565E-01  0.134187E-01  0.136852E-01  0.140614E-01  0.145418E-01
  0.151084E-01  0.157301E-01  0.163646E-01  0.169619E-01  0.174700E-01  0.178395E-01
  0.180287E-01  0.180091E-01  0.177712E-01  0.173273E-01  0.167094E-01  0.159633E-01
  0.151425E-01  0.143025E-01  0.134983E-01  0.127798E-01  0.121867E-01  0.117441E-01
  0.114604E-01  0.113295E-01  0.113350E-01  0.114552E-01  0.116652E-01  0.119368E-01
  0.122386E-01  0.125373E-01  0.128027E-01  0.130127E-01  0.141007E-01  0.141895E-01
  0.141969E-01  0.141342E-01  0.140224E-01  0.138908E-01  0.137751E-01  0.137144E-01
  0.137474E-01  0.139068E-01  0.142160E-01  0.146867E-01  0.153172E-01  0.160904E-01
  0.169717E-01  0.179090E-01  0.188359E-01  0.196786E-01  0.203633E-01  0.208254E-01
  0.210167E-01  0.209138E-01  0.205217E-01  0.198728E-01  0.190211E-01  0.180341E-01
  0.169860E-01  0.159509E-01  0.149973E-01  0.141805E-01  0.135375E-01  0.130843E-01
  0.128178E-01  0.127207E-01  0.127666E-01  0.129239E-01  0.131571E-01  0.134284E-01
  0.136986E-01  0.139320E-01  0.141007E-01  0.155267E-01  0.155769E-01  0.155311E-01
  0.154006E-01  0.152106E-01  0.149978E-01  0.148069E-01  0.146870E-01  0.146863E-01
  0.148473E-01  0.152022E-01  0.157704E-01  0.165560E-01  0.175454E-01  0.187027E-01
  0.199688E-01  0.212621E-01  0.224863E-01  0.235407E-01  0.243321E-01  0.247869E-01
  0.248611E-01  0.245467E-01  0.238727E-01  0.229005E-01  0.217143E-01  0.204113E-01
  0.190904E-01  0.178430E-01  0.167435E-01  0.158429E-01  0.151669E-01  0.147174E-01
  0.144783E-01  0.144202E-01  0.145055E-01  0.146906E-01  0.149293E-01  0.151752E-01
  0.153858E-01  0.155267E-01  0.172646E-01  0.172915E-01  0.172092E-01  0.170273E-01
  0.167742E-01  0.164935E-01  0.162389E-01  0.160688E-01  0.160415E-01  0.162090E-01
  0.166134E-01  0.172834E-01  0.182316E-01  0.194499E-01  0.209038E-01  0.225283E-01
  0.242281E-01  0.258841E-01  0.273664E-01  0.285498E-01  0.293293E-01  0.296334E-01
  0.294343E-01  0.287519E-01  0.276522E-01  0.262377E-01  0.246328E-01  0.229672E-01
  0.213608E-01  0.199118E-01  0.186889E-01  0.177292E-01  0.170418E-01  0.166129E-01
  0.164121E-01  0.163974E-01  0.165180E-01  0.167184E-01  0.169425E-01  0.171388E-01
  0.172646E-01  0.192913E-01  0.193111E-01  0.192092E-01  0.189924E-01  0.186913E-01
  0.183557E-01  0.180483E-01  0.178369E-01  0.177890E-01  0.179664E-01  0.184220E-01
  0.191964E-01  0.203133E-01  0.217724E-01  0.235419E-01  0.255518E-01  0.276930E-01
  0.298241E-01  0.317853E-01  0.334174E-01  0.345806E-01  0.351714E-01  0.351358E-01
  0.344780E-01  0.332632E-01  0.316090E-01  0.296686E-01  0.276068E-01  0.255779E-01
  0.237095E-01  0.220931E-01  0.207825E-01  0.197962E-01  0.191246E-01  0.187372E-01
  0.185887E-01  0.186222E-01  0.187738E-01  0.189766E-01  0.191671E-01  0.192913E-01
  0.215850E-01  0.216158E-01  0.215134E-01  0.212799E-01  0.209471E-01  0.205706E-01
  0.202217E-01  0.199776E-01  0.199141E-01  0.201029E-01  0.206087E-01  0.214861E-01
  0.227719E-01  0.244756E-01  0.265681E-01  0.289742E-01  0.315714E-01  0.341964E-01
  0.366605E-01  0.387713E-01  0.403552E-01  0.412776E-01  0.414571E-01  0.408769E-01
  0.395918E-01  0.377251E-01  0.354524E-01  0.329728E-01  0.304786E-01  0.281322E-01
  0.260551E-01  0.243247E-01  0.229758E-01  0.220069E-01  0.213882E-01  0.210705E-01
  0.209913E-01  0.210790E-01  0.212568E-01  0.214482E-01  0.215850E-01  0.241232E-01
  0.241839E-01  0.241029E-01  0.238744E-01  0.235289E-01  0.231276E-01  0.227502E-01
  0.224825E-01  0.224088E-01  0.226098E-01  0.231625E-01  0.241365E-01  0.255827E-01
  0.275199E-01  0.299207E-01  0.327042E-01  0.357334E-01  0.388234E-01  0.417576E-01
  0.443152E-01  0.462986E-01  0.475545E-01  0.479850E-01  0.475534E-01  0.462916E-01
  0.443070E-01  0.417763E-01  0.389202E-01  0.359671E-01  0.331199E-01  0.305383E-01
  0.283324E-01  0.265633E-01  0.252452E-01  0.243532E-01  0.238339E-01  0.236171E-01
  0.236234E-01  0.237674E-01  0.239618E-01  0.241232E-01  0.268831E-01  0.269912E-01
  0.269551E-01  0.267562E-01  0.264209E-01  0.260136E-01  0.256220E-01  0.253407E-01
  0.252621E-01  0.254758E-01  0.260710E-01  0.271310E-01  0.287197E-01  0.308624E-01
  0.335310E-01  0.366351E-01  0.400200E-01  0.434750E-01  0.467557E-01  0.496209E-01
  0.518707E-01  0.533667E-01  0.540277E-01  0.538144E-01  0.527264E-01  0.508187E-01
  0.482227E-01  0.451435E-01  0.418297E-01  0.385277E-01  0.354469E-01  0.327440E-01
  0.305179E-01  0.288103E-01  0.276095E-01  0.268612E-01  0.264862E-01  0.263951E-01
  0.264947E-01  0.266893E-01  0.268831E-01  0.298426E-01  0.300139E-01  0.300463E-01
  0.299041E-01  0.296043E-01  0.292116E-01  0.288202E-01  0.285339E-01  0.284535E-01
  0.286780E-01  0.293077E-01  0.304384E-01  0.321434E-01  0.344501E-01  0.373239E-01
  0.406574E-01  0.442683E-01  0.479093E-01  0.513022E-01  0.541963E-01  0.564240E-01
  0.579177E-01  0.586744E-01  0.586966E-01  0.579585E-01  0.564246E-01  0.541089E-01
  0.511267E-01  0.476979E-01  0.441005E-01  0.406077E-01  0.374429E-01  0.347617E-01
  0.326474E-01  0.311141E-01  0.301159E-01  0.295680E-01  0.293694E-01  0.294178E-01
  0.296104E-01  0.298426E-01  0.329763E-01  0.332276E-01  0.333527E-01  0.332952E-01
  0.330580E-01  0.327014E-01  0.323243E-01  0.320384E-01  0.319540E-01  0.321799E-01
  0.328281E-01  0.340056E-01  0.357921E-01  0.382123E-01  0.412167E-01  0.446690E-01
  0.483420E-01  0.519324E-01  0.551174E-01  0.576473E-01  0.594274E-01  0.605270E-01
  0.610985E-01  0.612539E-01  0.609787E-01  0.601346E-01  0.585516E-01  0.561533E-01
  0.530373E-01  0.494620E-01  0.457616E-01  0.422515E-01  0.391714E-01  0.366681E-01
  0.347982E-01  0.335390E-01  0.328098E-01  0.325014E-01  0.325004E-01  0.326962E-01
  0.329763E-01  0.362466E-01  0.365980E-01  0.368406E-01  0.368964E-01  0.367498E-01
  0.364527E-01  0.361044E-01  0.358231E-01  0.357277E-01  0.359375E-01  0.365763E-01
  0.377633E-01  0.395848E-01  0.420607E-01  0.451193E-01  0.485821E-01  0.521564E-01
  0.554609E-01  0.581141E-01  0.598750E-01  0.607563E-01  0.610180E-01  0.610296E-01
  0.610757E-01  0.612119E-01  0.612340E-01  0.607748E-01  0.594888E-01  0.572339E-01
  0.541469E-01  0.505759E-01  0.469350E-01  0.435793E-01  0.407493E-01  0.385671E-01
  0.370514E-01  0.361413E-01  0.357283E-01  0.356889E-01  0.359020E-01  0.362466E-01
  0.395942E-01  0.400662E-01  0.404498E-01  0.406455E-01  0.406177E-01  0.404051E-01
  0.401035E-01  0.398340E-01  0.397216E-01  0.398939E-01  0.404868E-01  0.416332E-01
  0.434295E-01  0.458940E-01  0.489330E-01  0.523187E-01  0.556794E-01  0.585387E-01
  0.604441E-01  0.611637E-01  0.608317E-01  0.599202E-01  0.590362E-01  0.586637E-01
  0.589770E-01  0.597783E-01  0.605671E-01  0.607337E-01  0.598202E-01  0.577201E-01
  0.546959E-01  0.512214E-01  0.477791E-01  0.447335E-01  0.422990E-01  0.405561E-01
  0.394803E-01  0.389760E-01  0.389153E-01  0.391653E-01  0.395942E-01  0.429348E-01
  0.435421E-01  0.440821E-01  0.444372E-01  0.445516E-01  0.444482E-01  0.442146E-01
  0.439701E-01  0.438412E-01  0.439596E-01  0.444697E-01  0.455187E-01  0.472185E-01
  0.495941E-01  0.525399E-01  0.557871E-01  0.588898E-01  0.612749E-01  0.624107E-01
  0.620595E-01  0.604594E-01  0.582742E-01  0.563260E-01  0.552832E-01  0.554537E-01
  0.567107E-01  0.585257E-01  0.601192E-01  0.607374E-01  0.599587E-01  0.578462E-01
  0.548470E-01  0.515419E-01  0.484299E-01  0.458391E-01  0.439294E-01  0.427260E-01
  0.421572E-01  0.420976E-01  0.424046E-01  0.429348E-01  0.461568E-01  0.469026E-01
  0.475996E-01  0.481183E-01  0.483863E-01  0.484105E-01  0.482665E-01  0.480662E-01
  0.479309E-01  0.479890E-01  0.483874E-01  0.492849E-01  0.508121E-01  0.530121E-01
  0.557860E-01  0.588492E-01  0.617105E-01  0.637235E-01  0.642766E-01  0.630942E-01
  0.604603E-01  0.571675E-01  0.542013E-01  0.523801E-01  0.521344E-01  0.534386E-01
  0.558224E-01  0.584625E-01  0.604156E-01  0.609706E-01  0.599288E-01  0.576166E-01
  0.546452E-01  0.516240E-01  0.489965E-01  0.470093E-01  0.457433E-01  0.451561E-01
  0.451295E-01  0.455144E-01  0.461568E-01  0.491147E-01  0.499907E-01  0.508272E-01
  0.514918E-01  0.519046E-01  0.520610E-01  0.520235E-01  0.518907E-01  0.517697E-01
  0.517757E-01  0.520478E-01  0.527498E-01  0.540317E-01  0.559648E-01  0.584780E-01
  0.613068E-01  0.639640E-01  0.657781E-01  0.660771E-01  0.645088E-01  0.613124E-01
  0.573056E-01  0.535629E-01  0.510154E-01  0.502036E-01  0.512080E-01  0.536565E-01
  0.567762E-01  0.595654E-01  0.611298E-01  0.610362E-01  0.594400E-01  0.569074E-01
  0.541024E-01  0.515575E-01  0.495972E-01  0.483541E-01  0.478135E-01  0.478648E-01
  0.483529E-01  0.491147E-01  0.516268E-01  0.526172E-01  0.535597E-01  0.543300E-01
  0.548543E-01  0.551273E-01  0.552025E-01  0.551615E-01  0.550872E-01  0.550677E-01
  0.552202E-01  0.557022E-01  0.566794E-01  0.582577E-01  0.604124E-01  0.629338E-01
  0.653926E-01  0.671580E-01  0.675438E-01  0.661061E-01  0.629478E-01  0.587820E-01
  0.546661E-01  0.515945E-01  0.502075E-01  0.506925E-01  0.527859E-01  0.558121E-01
  0.588152E-01  0.608512E-01  0.613490E-01  0.603094E-01  0.582033E-01  0.556821E-01
  0.533176E-01  0.514847E-01  0.503547E-01  0.499341E-01  0.501162E-01  0.507383E-01
  0.516268E-01  0.534921E-01  0.545806E-01  0.555898E-01  0.564123E-01  0.569950E-01
  0.573472E-01  0.575241E-01  0.575916E-01  0.576015E-01  0.576003E-01  0.576655E-01
  0.579318E-01  0.585707E-01  0.597234E-01  0.614235E-01  0.635400E-01  0.657427E-01
  0.675035E-01  0.681892E-01  0.672960E-01  0.647457E-01  0.610311E-01  0.570619E-01
  0.538088E-01  0.519802E-01  0.518679E-01  0.533215E-01  0.557867E-01  0.584224E-01
  0.603518E-01  0.609852E-01  0.602307E-01  0.584516E-01  0.562286E-01  0.541135E-01
  0.524920E-01  0.515546E-01  0.513201E-01  0.516824E-01  0.524689E-01  0.534921E-01
  0.545322E-01  0.557109E-01  0.567583E-01  0.575860E-01  0.581709E-01  0.585514E-01
  0.587979E-01  0.589694E-01  0.590869E-01  0.591477E-01  0.591736E-01  0.592572E-01
  0.595590E-01  0.602477E-01  0.614175E-01  0.630255E-01  0.648592E-01  0.665296E-01
  0.675189E-01  0.673332E-01  0.657439E-01  0.629756E-01  0.596779E-01  0.566778E-01
  0.546744E-01  0.540353E-01  0.547254E-01  0.563321E-01  0.581788E-01  0.595403E-01
  0.599084E-01  0.591706E-01  0.575955E-01  0.556586E-01  0.538399E-01  0.524953E-01
  0.518117E-01  0.518122E-01  0.523906E-01  0.533647E-01  0.545322E-01  0.546321E-01
  0.559112E-01  0.569972E-01  0.578144E-01  0.583682E-01  0.587316E-01  0.590010E-01
  0.592410E-01  0.594524E-01  0.595875E-01  0.596087E-01  0.595518E-01  0.595469E-01
  0.597730E-01  0.603755E-01  0.613955E-01  0.627346E-01  0.641465E-01  0.652587E-01
  0.656559E-01  0.650436E-01  0.634216E-01  0.611422E-01  0.587883E-01  0.569436E-01
  0.559844E-01  0.559705E-01  0.566430E-01  0.575215E-01  0.580817E-01  0.579566E-01
  0.570659E-01  0.556086E-01  0.539453E-01  0.524554E-01  0.514350E-01  0.510477E-01
  0.513139E-01  0.521288E-01  0.533061E-01  0.546321E-01  0.537519E-01  0.551648E-01
  0.563284E-01  0.571669E-01  0.577011E-01  0.580311E-01  0.582812E-01  0.585316E-01
  0.587787E-01  0.589476E-01  0.589532E-01  0.587759E-01  0.585018E-01  0.582991E-01
  0.583438E-01  0.587448E-01  0.594999E-01  0.604855E-01  0.614663E-01  0.621381E-01
  0.622226E-01  0.615937E-01  0.603602E-01  0.588385E-01  0.574198E-01  0.564089E-01
  0.559111E-01  0.558044E-01  0.558048E-01  0.555955E-01  0.549661E-01  0.538929E-01
  0.525305E-01  0.511384E-01  0.499937E-01  0.493217E-01  0.492520E-01  0.497968E-01
  0.508558E-01  0.522466E-01  0.537519E-01  0.519119E-01  0.535052E-01  0.548142E-01
  0.557483E-01  0.563231E-01  0.566474E-01  0.568633E-01  0.570694E-01  0.572717E-01
  0.573905E-01  0.573188E-01  0.569995E-01  0.564775E-01  0.558943E-01  0.554317E-01
  0.552396E-01  0.553872E-01  0.558441E-01  0.564834E-01  0.571053E-01  0.574893E-01
  0.574738E-01  0.570246E-01  0.562495E-01  0.553432E-01  0.544927E-01  0.537929E-01
  0.532122E-01  0.526228E-01  0.518810E-01  0.509096E-01  0.497407E-01  0.485044E-01
  0.473863E-01  0.465811E-01  0.462511E-01  0.464914E-01  0.473055E-01  0.486003E-01
  0.502062E-01  0.519119E-01  0.491777E-01  0.509856E-01  0.525064E-01  0.536239E-01
  0.543282E-01  0.547127E-01  0.549191E-01  0.550579E-01  0.551511E-01  0.551331E-01
  0.549017E-01  0.543906E-01  0.536208E-01  0.527058E-01  0.518126E-01  0.511035E-01
  0.506889E-01  0.506020E-01  0.507936E-01  0.511437E-01  0.514939E-01  0.516957E-01
  0.516582E-01  0.513694E-01  0.508820E-01  0.502717E-01  0.495923E-01  0.488495E-01
  0.480107E-01  0.470445E-01  0.459623E-01  0.448347E-01  0.437790E-01  0.429347E-01
  0.424410E-01  0.424147E-01  0.429249E-01  0.439697E-01  0.454675E-01  0.472685E-01
  0.491777E-01  0.456671E-01  0.476826E-01  0.494421E-01  0.508027E-01  0.517161E-01
  0.522396E-01  0.524932E-01  0.525850E-01  0.525519E-01  0.523514E-01  0.519053E-01
  0.511626E-01  0.501432E-01  0.489437E-01  0.477090E-01  0.465910E-01  0.457125E-01
  0.451420E-01  0.448814E-01  0.448679E-01  0.449937E-01  0.451389E-01  0.452039E-01
  0.451273E-01  0.448856E-01  0.444814E-01  0.439266E-01  0.432306E-01  0.424014E-01
  0.414616E-01  0.404647E-01  0.394981E-01  0.386692E-01  0.380897E-01  0.378652E-01
  0.380834E-01  0.387974E-01  0.400062E-01  0.416448E-01  0.435887E-01  0.456671E-01
  0.415645E-01  0.437266E-01  0.456894E-01  0.472919E-01  0.484477E-01  0.491666E-01
  0.495296E-01  0.496270E-01  0.495015E-01  0.491346E-01  0.484792E-01  0.475119E-01
  0.462677E-01  0.448400E-01  0.433564E-01  0.419493E-01  0.407332E-01  0.397873E-01
  0.391416E-01  0.387722E-01  0.386109E-01  0.385679E-01  0.385553E-01  0.385009E-01
  0.383519E-01  0.380749E-01  0.376545E-01  0.370914E-01  0.364026E-01  0.356257E-01
  0.348242E-01  0.340838E-01  0.334997E-01  0.331645E-01  0.331612E-01  0.335584E-01
  0.344004E-01  0.356917E-01  0.373877E-01  0.393925E-01  0.415645E-01  0.371152E-01
  0.393218E-01  0.413963E-01  0.431738E-01  0.445409E-01  0.454628E-01  0.459737E-01
  0.461334E-01  0.459802E-01  0.455132E-01  0.447139E-01  0.435868E-01  0.421848E-01
  0.406056E-01  0.389676E-01  0.373865E-01  0.359614E-01  0.347662E-01  0.338404E-01
  0.331827E-01  0.327542E-01  0.324931E-01  0.323310E-01  0.322028E-01  0.320512E-01
  0.318307E-01  0.315124E-01  0.310880E-01  0.305706E-01  0.299948E-01  0.294172E-01
  0.289115E-01  0.285578E-01  0.284320E-01  0.285995E-01  0.291144E-01  0.300143E-01
  0.313107E-01  0.329786E-01  0.349506E-01  0.371152E-01  0.325903E-01  0.347282E-01
  0.367957E-01  0.386391E-01  0.401343E-01  0.412142E-01  0.418702E-01  0.421276E-01
  0.420112E-01  0.415292E-01  0.406839E-01  0.394999E-01  0.380417E-01  0.364089E-01
  0.347145E-01  0.330633E-01  0.315422E-01  0.302159E-01  0.291223E-01  0.282697E-01
  0.276381E-01  0.271882E-01  0.268722E-01  0.266395E-01  0.264404E-01  0.262298E-01
  0.259750E-01  0.256615E-01  0.252955E-01  0.249027E-01  0.245269E-01  0.242258E-01
  0.240630E-01  0.240988E-01  0.243848E-01  0.249629E-01  0.258649E-01  0.271060E-01
  0.286765E-01  0.305324E-01  0.325903E-01  0.282398E-01  0.302129E-01  0.321627E-01
  0.339563E-01  0.354745E-01  0.366339E-01  0.373951E-01  0.377526E-01  0.377149E-01
  0.372912E-01  0.364954E-01  0.353623E-01  0.339587E-01  0.323785E-01  0.307261E-01
  0.290984E-01  0.275747E-01  0.262132E-01  0.250490E-01  0.240931E-01  0.233359E-01
  0.227538E-01  0.223156E-01  0.219862E-01  0.217273E-01  0.215012E-01  0.212775E-01
  0.210395E-01  0.207871E-01  0.205367E-01  0.203187E-01  0.201748E-01  0.201520E-01
  0.202971E-01  0.206506E-01  0.212460E-01  0.221093E-01  0.232559E-01  0.246839E-01
  0.263653E-01  0.282398E-01  0.242606E-01  0.260055E-01  0.277561E-01  0.294057E-01
  0.308499E-01  0.320035E-01  0.328106E-01  0.332443E-01  0.332983E-01  0.329781E-01
  0.323013E-01  0.313044E-01  0.300485E-01  0.286150E-01  0.270945E-01  0.255731E-01
  0.241237E-01  0.228013E-01  0.216399E-01  0.206534E-01  0.198392E-01  0.191834E-01
  0.186667E-01  0.182653E-01  0.179525E-01  0.177002E-01  0.174838E-01  0.172879E-01
  0.171091E-01  0.169561E-01  0.168482E-01  0.168127E-01  0.168821E-01  0.170903E-01
  0.174695E-01  0.180471E-01  0.188446E-01  0.198751E-01  0.211382E-01  0.226147E-01
  0.242606E-01  0.207849E-01  0.222731E-01  0.237796E-01  0.252243E-01  0.265230E-01
  0.275987E-01  0.283919E-01  0.288648E-01  0.290008E-01  0.288003E-01  0.282790E-01
  0.274694E-01  0.264217E-01  0.252014E-01  0.238812E-01  0.225330E-01  0.212208E-01
  0.199954E-01  0.188915E-01  0.179270E-01  0.171056E-01  0.164218E-01  0.158638E-01
  0.154163E-01  0.150610E-01  0.147790E-01  0.145533E-01  0.143722E-01  0.142314E-01
  0.141353E-01  0.140949E-01  0.141267E-01  0.142507E-01  0.144895E-01  0.148667E-01
  0.154049E-01  0.161217E-01  0.170271E-01  0.181196E-01  0.193833E-01  0.207849E-01
  0.178846E-01  0.191159E-01  0.203666E-01  0.215793E-01  0.226909E-01  0.236391E-01
  0.243698E-01  0.248436E-01  0.250393E-01  0.249526E-01  0.245948E-01  0.239909E-01
  0.231784E-01  0.222051E-01  0.211255E-01  0.199951E-01  0.188661E-01  0.177831E-01
  0.167794E-01  0.158761E-01  0.150831E-01  0.144019E-01  0.138277E-01  0.133516E-01
  0.129624E-01  0.126491E-01  0.124018E-01  0.122139E-01  0.120828E-01  0.120107E-01
  0.120038E-01  0.120710E-01  0.122229E-01  0.124720E-01  0.128334E-01  0.133230E-01
  0.139548E-01  0.147356E-01  0.156625E-01  0.167209E-01  0.178846E-01  0.155834E-01
  0.165764E-01  0.175830E-01  0.185636E-01  0.194740E-01  0.202682E-01  0.209035E-01
  0.213459E-01  0.215747E-01  0.215829E-01  0.213769E-01  0.209730E-01  0.203958E-01
  0.196766E-01  0.188516E-01  0.179604E-01  0.170426E-01  0.161340E-01  0.152639E-01
  0.144534E-01  0.137163E-01  0.130596E-01  0.124849E-01  0.119899E-01  0.115704E-01
  0.112224E-01  0.109431E-01  0.107313E-01  0.105875E-01  0.105137E-01  0.105137E-01
  0.105917E-01  0.107516E-01  0.109981E-01  0.113374E-01  0.117784E-01  0.123294E-01
  0.129939E-01  0.137678E-01  0.146379E-01  0.155834E-01  0.138727E-01  0.146542E-01
  0.154408E-01  0.162060E-01  0.169204E-01  0.175534E-01  0.180760E-01  0.184639E-01
  0.187009E-01  0.187801E-01  0.187035E-01  0.184799E-01  0.181220E-01  0.176463E-01
  0.170729E-01  0.164262E-01  0.157328E-01  0.150186E-01  0.143062E-01  0.136135E-01
  0.129544E-01  0.123389E-01  0.117744E-01  0.112656E-01  0.108156E-01  0.104277E-01
  0.101061E-01  0.985535E-02  0.967976E-02  0.958304E-02  0.956812E-02  0.963650E-02
  0.978791E-02  0.100210E-01  0.103352E-01  0.107316E-01  0.112118E-01  0.117749E-01
  0.124148E-01  0.131195E-01  0.138727E-01  0.127261E-01  0.133250E-01  0.139188E-01
  0.144913E-01  0.150247E-01  0.155016E-01  0.159059E-01  0.162251E-01  0.164501E-01
  0.165767E-01  0.166046E-01  0.165365E-01  0.163759E-01  0.161268E-01  0.157954E-01
  0.153916E-01  0.149290E-01  0.144223E-01  0.138853E-01  0.133293E-01  0.127650E-01
  0.122032E-01  0.116556E-01  0.111339E-01  0.106496E-01  0.102139E-01  0.983786E-02
  0.953228E-02  0.930635E-02  0.916684E-02  0.911732E-02  0.915799E-02  0.928584E-02
  0.949566E-02  0.978168E-02  0.101386E-01  0.105609E-01  0.110416E-01  0.115709E-01
  0.121368E-01  0.127261E-01  0.121080E-01  0.125528E-01  0.129804E-01  0.133831E-01
  0.137530E-01  0.140837E-01  0.143710E-01  0.146136E-01  0.148116E-01  0.149654E-01
  0.150750E-01  0.151395E-01  0.151557E-01  0.151182E-01  0.150211E-01  0.148607E-01
  0.146364E-01  0.143501E-01  0.140040E-01  0.136008E-01  0.131450E-01  0.126459E-01
  0.121182E-01  0.115806E-01  0.110532E-01  0.105561E-01  0.101085E-01  0.972804E-02
  0.943027E-02  0.922644E-02  0.912230E-02  0.911779E-02  0.920804E-02  0.938511E-02
  0.963950E-02  0.996081E-02  0.103372E-01  0.107548E-01  0.111984E-01  0.116535E-01
  0.121080E-01  0.119780E-01  0.122967E-01  0.125836E-01  0.128383E-01  0.130619E-01
  0.132576E-01  0.134322E-01  0.135949E-01  0.137554E-01  0.139205E-01  0.140933E-01
  0.142722E-01  0.144503E-01  0.146156E-01  0.147517E-01  0.148414E-01  0.148687E-01
  0.148201E-01  0.146839E-01  0.144512E-01  0.141183E-01  0.136910E-01  0.131852E-01
  0.126257E-01  0.120417E-01  0.114630E-01  0.109187E-01  0.104357E-01  0.100378E-01
  0.974275E-02  0.956027E-02  0.949118E-02  0.952919E-02  0.966368E-02  0.988185E-02
  0.101691E-01  0.105080E-01  0.108784E-01  0.112586E-01  0.116296E-01  0.119780E-01
  0.122932E-01  0.125126E-01  0.126837E-01  0.128120E-01  0.129063E-01  0.129793E-01
  0.130476E-01  0.131308E-01  0.132479E-01  0.134138E-01  0.136368E-01  0.139177E-01
  0.142489E-01  0.146140E-01  0.149884E-01  0.153415E-01  0.156407E-01  0.158543E-01
  0.159536E-01  0.159152E-01  0.157248E-01  0.153821E-01  0.149026E-01  0.143156E-01
  0.136588E-01  0.129731E-01  0.122997E-01  0.116777E-01  0.111423E-01  0.107206E-01
  0.104285E-01  0.102695E-01  0.102366E-01  0.103160E-01  0.104910E-01  0.107424E-01
  0.110479E-01  0.113814E-01  0.117152E-01  0.120249E-01  0.122932E-01  0.137885E-01
  0.139016E-01  0.139306E-01  0.138858E-01  0.137829E-01  0.136425E-01  0.134903E-01
  0.133547E-01  0.132621E-01  0.132329E-01  0.132790E-01  0.134033E-01  0.135998E-01
  0.138536E-01  0.141417E-01  0.144351E-01  0.147016E-01  0.149098E-01  0.150311E-01
  0.150427E-01  0.149300E-01  0.146904E-01  0.143355E-01  0.138893E-01  0.133852E-01
  0.128610E-01  0.123553E-01  0.119048E-01  0.115418E-01  0.112908E-01  0.111656E-01
  0.111685E-01  0.112908E-01  0.115160E-01  0.118225E-01  0.121850E-01  0.125742E-01
  0.129583E-01  0.133051E-01  0.135876E-01  0.137885E-01  0.149532E-01  0.150101E-01
  0.149603E-01  0.148182E-01  0.146067E-01  0.143554E-01  0.141005E-01  0.138804E-01
  0.137316E-01  0.136833E-01  0.137541E-01  0.139513E-01  0.142702E-01  0.146942E-01
  0.151940E-01  0.157293E-01  0.162523E-01  0.167128E-01  0.170638E-01  0.172663E-01
  0.172938E-01  0.171366E-01  0.168035E-01  0.163211E-01  0.157295E-01  0.150775E-01
  0.144174E-01  0.138010E-01  0.132745E-01  0.128741E-01  0.126222E-01  0.125257E-01
  0.125769E-01  0.127575E-01  0.130411E-01  0.133963E-01  0.137871E-01  0.141744E-01
  0.145188E-01  0.147862E-01  0.149532E-01  0.164940E-01  0.165113E-01  0.163996E-01
  0.161754E-01  0.158674E-01  0.155148E-01  0.151640E-01  0.148648E-01  0.146637E-01
  0.145990E-01  0.146969E-01  0.149702E-01  0.154179E-01  0.160240E-01  0.167558E-01
  0.175634E-01  0.183833E-01  0.191441E-01  0.197760E-01  0.202187E-01  0.204289E-01
  0.203849E-01  0.200901E-01  0.195711E-01  0.188752E-01  0.180641E-01  0.172076E-01
  0.163761E-01  0.156336E-01  0.150308E-01  0.146005E-01  0.143566E-01  0.142950E-01
  0.143970E-01  0.146331E-01  0.149653E-01  0.153495E-01  0.157384E-01  0.160847E-01
  0.163468E-01  0.164940E-01  0.183736E-01  0.183656E-01  0.182079E-01  0.179167E-01
  0.175259E-01  0.170832E-01  0.166463E-01  0.162760E-01  0.160298E-01  0.159552E-01
  0.160865E-01  0.164435E-01  0.170308E-01  0.178358E-01  0.188249E-01  0.199412E-01
  0.211055E-01  0.222240E-01  0.231997E-01  0.239456E-01  0.243949E-01  0.245084E-01
  0.242781E-01  0.237281E-01  0.229117E-01  0.219061E-01  0.208031E-01  0.196978E-01
  0.186766E-01  0.178081E-01  0.171383E-01  0.166895E-01  0.164627E-01  0.164411E-01
  0.165936E-01  0.168771E-01  0.172393E-01  0.176232E-01  0.179719E-01  0.182349E-01
  0.183736E-01  0.205494E-01  0.205296E-01  0.203412E-01  0.199991E-01  0.195407E-01
  0.190220E-01  0.185113E-01  0.180807E-01  0.177984E-01  0.177219E-01  0.178949E-01
  0.183461E-01  0.190881E-01  0.201138E-01  0.213907E-01  0.228556E-01  0.244146E-01
  0.259503E-01  0.273364E-01  0.284543E-01  0.292083E-01  0.295352E-01  0.294096E-01
  0.288470E-01  0.279043E-01  0.266745E-01  0.252754E-01  0.238322E-01  0.224603E-01
  0.212517E-01  0.202696E-01  0.195474E-01  0.190928E-01  0.188922E-01  0.189142E-01
  0.191125E-01  0.194279E-01  0.197936E-01  0.201414E-01  0.204097E-01  0.205494E-01
  0.229729E-01  0.229554E-01  0.227530E-01  0.223774E-01  0.218688E-01  0.212907E-01
  0.207216E-01  0.202441E-01  0.199365E-01  0.198668E-01  0.200902E-01  0.206470E-01
  0.215604E-01  0.228300E-01  0.244241E-01  0.262733E-01  0.282687E-01  0.302694E-01
  0.321192E-01  0.336671E-01  0.347859E-01  0.353845E-01  0.354151E-01  0.348785E-01
  0.338285E-01  0.323695E-01  0.306448E-01  0.288126E-01  0.270221E-01  0.253952E-01
  0.240184E-01  0.229427E-01  0.221870E-01  0.217428E-01  0.215793E-01  0.216471E-01
  0.218819E-01  0.222082E-01  0.225467E-01  0.228224E-01  0.229729E-01  0.255908E-01
  0.255916E-01  0.253945E-01  0.250058E-01  0.244671E-01  0.238489E-01  0.232392E-01
  0.227303E-01  0.224099E-01  0.223568E-01  0.226394E-01  0.233124E-01  0.244110E-01
  0.259413E-01  0.278708E-01  0.301217E-01  0.325691E-01  0.350489E-01  0.373765E-01
  0.393712E-01  0.408794E-01  0.417873E-01  0.420269E-01  0.415796E-01  0.404847E-01
  0.388444E-01  0.368158E-01  0.345860E-01  0.323399E-01  0.302341E-01  0.283863E-01
  0.268740E-01  0.257362E-01  0.249762E-01  0.245662E-01  0.244537E-01  0.245679E-01
  0.248263E-01  0.251400E-01  0.254209E-01  0.255908E-01  0.283497E-01  0.283838E-01
  0.282138E-01  0.278362E-01  0.272912E-01  0.266551E-01  0.260248E-01  0.255019E-01
  0.251829E-01  0.251573E-01  0.255076E-01  0.263044E-01  0.275947E-01  0.293890E-01
  0.316502E-01  0.342877E-01  0.371566E-01  0.400668E-01  0.428061E-01  0.451732E-01
  0.470058E-01  0.481925E-01  0.486655E-01  0.483928E-01  0.473836E-01  0.457059E-01
  0.434974E-01  0.409517E-01  0.382827E-01  0.356875E-01  0.333248E-01  0.313102E-01
  0.297151E-01  0.285664E-01  0.278470E-01  0.275026E-01  0.274550E-01  0.276130E-01
  0.278796E-01  0.281562E-01  0.283497E-01  0.311994E-01  0.312780E-01  0.311565E-01
  0.308165E-01  0.302925E-01  0.296635E-01  0.290345E-01  0.285158E-01  0.282129E-01
  0.282260E-01  0.286517E-01  0.295754E-01  0.310540E-01  0.330984E-01  0.356606E-01
  0.386285E-01  0.418257E-01  0.450248E-01  0.479830E-01  0.504920E-01  0.524192E-01
  0.537101E-01  0.543518E-01  0.543294E-01  0.536124E-01  0.521849E-01  0.500948E-01
  0.474812E-01  0.445568E-01  0.415589E-01  0.387046E-01  0.361665E-01  0.340660E-01
  0.324689E-01  0.313817E-01  0.307564E-01  0.305078E-01  0.305338E-01  0.307283E-01
  0.309851E-01  0.311994E-01  0.340927E-01  0.342217E-01  0.341671E-01  0.338914E-01
  0.334172E-01  0.328222E-01  0.322167E-01  0.317199E-01  0.314463E-01  0.315070E-01
  0.320121E-01  0.330595E-01  0.347130E-01  0.369778E-01  0.397865E-01  0.429900E-01
  0.463583E-01  0.496031E-01  0.524392E-01  0.546708E-01  0.562509E-01  0.572658E-01
  0.578465E-01  0.580613E-01  0.578583E-01  0.570939E-01  0.556298E-01  0.534374E-01
  0.506443E-01  0.474987E-01  0.442913E-01  0.412853E-01  0.386815E-01  0.366064E-01
  0.351081E-01  0.341592E-01  0.336748E-01  0.335419E-01  0.336429E-01  0.338641E-01
  0.340927E-01  0.369795E-01  0.371637E-01  0.371914E-01  0.370042E-01  0.366082E-01
  0.360739E-01  0.355139E-01  0.350543E-01  0.348190E-01  0.349304E-01  0.355111E-01
  0.366705E-01  0.384754E-01  0.409208E-01  0.439081E-01  0.472316E-01  0.505764E-01
  0.535594E-01  0.558371E-01  0.572465E-01  0.578894E-01  0.580828E-01  0.581951E-01
  0.584601E-01  0.588621E-01  0.591387E-01  0.589007E-01  0.578209E-01  0.557950E-01
  0.529851E-01  0.497346E-01  0.464299E-01  0.433977E-01  0.408612E-01  0.389351E-01
  0.376322E-01  0.368830E-01  0.365702E-01  0.365642E-01  0.367405E-01  0.369795E-01
  0.398017E-01  0.400483E-01  0.401726E-01  0.400958E-01  0.398042E-01  0.393564E-01
  0.388626E-01  0.384534E-01  0.382608E-01  0.384180E-01  0.390604E-01  0.403081E-01
  0.422312E-01  0.448113E-01  0.479109E-01  0.512481E-01  0.543928E-01  0.568344E-01
  0.581549E-01  0.582445E-01  0.574057E-01  0.562471E-01  0.554260E-01  0.553919E-01
  0.562335E-01  0.576486E-01  0.590365E-01  0.597147E-01  0.591971E-01  0.573910E-01
  0.545906E-01  0.512955E-01  0.480016E-01  0.450795E-01  0.427462E-01  0.410797E-01
  0.400464E-01  0.395385E-01  0.394185E-01  0.395495E-01  0.398017E-01  0.424940E-01
  0.428125E-01  0.430467E-01  0.430987E-01  0.429344E-01  0.425967E-01  0.421889E-01
  0.418420E-01  0.416937E-01  0.418857E-01  0.425653E-01  0.438652E-01  0.458616E-01
  0.485265E-01  0.516835E-01  0.549680E-01  0.578187E-01  0.595768E-01  0.597379E-01
  0.582529E-01  0.556481E-01  0.528372E-01  0.507559E-01  0.500544E-01  0.509532E-01
  0.532112E-01  0.561584E-01  0.588462E-01  0.603624E-01  0.601967E-01  0.584188E-01
  0.555475E-01  0.522472E-01  0.490785E-01  0.464037E-01  0.443952E-01  0.430765E-01
  0.423670E-01  0.421312E-01  0.422210E-01  0.424940E-01  0.449888E-01  0.453866E-01
  0.457394E-01  0.459329E-01  0.459127E-01  0.457041E-01  0.453992E-01  0.451257E-01
  0.450218E-01  0.452344E-01  0.459201E-01  0.472250E-01  0.492374E-01  0.519298E-01
  0.551006E-01  0.583176E-01  0.608999E-01  0.620414E-01  0.611372E-01  0.581752E-01