 CRYSTAL
 PRIMVEC
    4.248972873    0.000007853   -0.000000000
   -0.938565842    3.997487065   -0.000000000
   -0.000000000   -0.000000000    4.393042657
 PRIMCOORD
           4           1
Si       -0.090553086    0.973911390    1.484097355
Si        2.127708363    1.690121532    0.610641140
Si        0.090562432    2.379553457    3.472061459
Si        2.121268767    0.579575872    2.565923292
BEGIN_BLOCK_DATAGRID_3D
3D_PWSCF
BEGIN_DATAGRID_3D_UNKNOWN
          41          41          46
  0.000000  0.000000  0.000000
    4.248973    0.000008   -0.000000
   -0.938566    3.997487   -0.000000
   -0.000000   -0.000000    4.393043
  0.842518E-02  0.857636E-02  0.868894E-02  0.876798E-02  0.882463E-02  0.887265E-02
  0.892516E-02  0.899326E-02  0.908631E-02  0.921205E-02  0.937547E-02  0.957705E-02
  0.981207E-02  0.100712E-01  0.103411E-01  0.106037E-01  0.108357E-01  0.110096E-01
  0.110989E-01  0.110835E-01  0.109545E-01  0.107138E-01  0.103728E-01  0.995149E-02
  0.947741E-02  0.898298E-02  0.850087E-02  0.805923E-02  0.767937E-02  0.737612E-02
  0.715918E-02  0.703370E-02  0.699962E-02  0.705056E-02  0.717372E-02  0.735150E-02
  0.756441E-02  0.779386E-02  0.802324E-02  0.823788E-02  0.842518E-02  0.894893E-02
  0.904635E-02  0.909099E-02  0.909095E-02  0.906269E-02  0.902678E-02  0.900380E-02
  0.901233E-02  0.906893E-02  0.918802E-02  0.938006E-02  0.964883E-02  0.998971E-02
  0.103900E-01  0.108300E-01  0.112834E-01  0.117166E-01  0.120903E-01  0.123641E-01
  0.125040E-01  0.124890E-01  0.123132E-01  0.119864E-01  0.115321E-01  0.109857E-01
  0.103897E-01  0.978808E-02  0.922014E-02  0.871736E-02  0.830275E-02  0.799146E-02
  0.779107E-02  0.770129E-02  0.771373E-02  0.781236E-02  0.797548E-02  0.817871E-02
  0.839808E-02  0.861177E-02  0.880064E-02  0.894893E-02  0.970314E-02  0.976059E-02
  0.975196E-02  0.968719E-02  0.958651E-02  0.947621E-02  0.938384E-02  0.933566E-02
  0.935619E-02  0.946767E-02  0.968747E-02  0.100242E-01  0.104749E-01  0.110248E-01
  0.116486E-01  0.123117E-01  0.129701E-01  0.135717E-01  0.140607E-01  0.143863E-01
  0.145113E-01  0.144186E-01  0.141131E-01  0.136208E-01  0.129852E-01  0.122610E-01
  0.115057E-01  0.107725E-01  0.101063E-01  0.954105E-02  0.910021E-02  0.879556E-02
  0.862736E-02  0.858499E-02  0.864882E-02  0.879268E-02  0.898690E-02  0.920133E-02
  0.940774E-02  0.958150E-02  0.970314E-02  0.106678E-01  0.106976E-01  0.106488E-01
  0.105321E-01  0.103703E-01  0.101944E-01  0.100385E-01  0.993727E-02  0.992388E-02
  0.100293E-01  0.102789E-01  0.106874E-01  0.112551E-01  0.119668E-01  0.127931E-01
  0.136918E-01  0.146081E-01  0.154755E-01  0.162205E-01  0.167718E-01  0.170719E-01
  0.170879E-01  0.168162E-01  0.162836E-01  0.155419E-01  0.146596E-01  0.137113E-01
  0.127678E-01  0.118906E-01  0.111280E-01  0.105141E-01  0.100667E-01  0.978845E-02
  0.966726E-02  0.967986E-02  0.979508E-02  0.997713E-02  0.101887E-01  0.103940E-01
  0.105617E-01  0.106678E-01  0.118217E-01  0.118357E-01  0.117592E-01  0.116028E-01
  0.113908E-01  0.111580E-01  0.109453E-01  0.107961E-01  0.107532E-01  0.108571E-01
  0.111411E-01  0.116270E-01  0.123200E-01  0.132071E-01  0.142573E-01  0.154225E-01
  0.166370E-01  0.178181E-01  0.188709E-01  0.196992E-01  0.202201E-01  0.203796E-01
  0.201615E-01  0.195902E-01  0.187257E-01  0.176524E-01  0.164655E-01  0.152592E-01
  0.141163E-01  0.131029E-01  0.122655E-01  0.116297E-01  0.112012E-01  0.109683E-01
  0.109052E-01  0.109758E-01  0.111374E-01  0.113444E-01  0.115521E-01  0.117212E-01
  0.118217E-01  0.131433E-01  0.131530E-01  0.130612E-01  0.128774E-01  0.126265E-01
  0.123463E-01  0.120846E-01  0.118940E-01  0.118284E-01  0.119374E-01  0.122628E-01
  0.128333E-01  0.136606E-01  0.147370E-01  0.160336E-01  0.174988E-01  0.190563E-01
  0.206054E-01  0.220260E-01  0.231920E-01  0.239896E-01  0.243379E-01  0.242028E-01
  0.236025E-01  0.226032E-01  0.213062E-01  0.198319E-01  0.183029E-01  0.168305E-01
  0.155042E-01  0.143860E-01  0.135098E-01  0.128849E-01  0.125002E-01  0.123287E-01
  0.123307E-01  0.124570E-01  0.126527E-01  0.128631E-01  0.130391E-01  0.131433E-01
  0.146136E-01  0.146305E-01  0.145365E-01  0.143384E-01  0.140604E-01  0.137430E-01
  0.134405E-01  0.132161E-01  0.131347E-01  0.132565E-01  0.136308E-01  0.142938E-01
  0.152652E-01  0.165456E-01  0.181114E-01  0.199095E-01  0.218537E-01  0.238234E-01
  0.256706E-01  0.272357E-01  0.283701E-01  0.289606E-01  0.289494E-01  0.283431E-01
  0.272103E-01  0.256681E-01  0.238633E-01  0.219522E-01  0.200811E-01  0.183706E-01
  0.169047E-01  0.157289E-01  0.148560E-01  0.142745E-01  0.139561E-01  0.138586E-01
  0.139278E-01  0.141004E-01  0.143102E-01  0.144969E-01  0.146136E-01  0.162195E-01
  0.162561E-01  0.161737E-01  0.159752E-01  0.156830E-01  0.153392E-01  0.150045E-01
  0.147526E-01  0.146608E-01  0.148000E-01  0.152284E-01  0.159904E-01  0.171155E-01
  0.186145E-01  0.204705E-01  0.226299E-01  0.249953E-01  0.274251E-01  0.297425E-01
  0.317539E-01  0.332755E-01  0.341602E-01  0.343220E-01  0.337499E-01  0.325081E-01
  0.307245E-01  0.285698E-01  0.262338E-01  0.239024E-01  0.217349E-01  0.198471E-01
  0.183036E-01  0.171245E-01  0.162975E-01  0.157909E-01  0.155596E-01  0.155456E-01
  0.156787E-01  0.158818E-01  0.160818E-01  0.162195E-01  0.179564E-01  0.180257E-01
  0.179699E-01  0.177859E-01  0.174932E-01  0.171345E-01  0.167760E-01  0.165015E-01
  0.164008E-01  0.165569E-01  0.170386E-01  0.179007E-01  0.191846E-01  0.209122E-01
  0.230732E-01  0.256112E-01  0.284152E-01  0.313202E-01  0.341202E-01  0.365908E-01
  0.385182E-01  0.397277E-01  0.401079E-01  0.396259E-01  0.383325E-01  0.363537E-01
  0.338735E-01  0.311092E-01  0.282853E-01  0.256050E-01  0.232254E-01  0.212426E-01
  0.196932E-01  0.185680E-01  0.178312E-01  0.174320E-01  0.173083E-01  0.173841E-01
  0.175731E-01  0.177885E-01  0.179564E-01  0.198249E-01  0.199412E-01  0.199276E-01
  0.197737E-01  0.194949E-01  0.191335E-01  0.187597E-01  0.184664E-01  0.183553E-01
  0.185221E-01  0.190485E-01  0.200028E-01  0.214404E-01  0.233950E-01  0.258615E-01
  0.287770E-01  0.320118E-01  0.353722E-01  0.386202E-01  0.415040E-01  0.437926E-01
  0.453037E-01  0.459184E-01  0.455885E-01  0.443403E-01  0.422755E-01  0.395656E-01
  0.364367E-01  0.331438E-01  0.299358E-01  0.270202E-01  0.245380E-01  0.225561E-01
  0.210790E-01  0.200700E-01  0.194716E-01  0.192143E-01  0.192166E-01  0.193840E-01
  0.196168E-01  0.198249E-01  0.218259E-01  0.220046E-01  0.220506E-01  0.219435E-01
  0.216932E-01  0.213411E-01  0.209605E-01  0.206516E-01  0.205269E-01  0.206948E-01
  0.212512E-01  0.222800E-01  0.238526E-01  0.260150E-01  0.287653E-01  0.320310E-01
  0.356563E-01  0.394090E-01  0.430092E-01  0.461780E-01  0.486864E-01  0.503811E-01
  0.511781E-01  0.510413E-01  0.499704E-01  0.480093E-01  0.452689E-01  0.419418E-01
  0.382906E-01  0.346077E-01  0.311610E-01  0.281511E-01  0.256920E-01  0.238166E-01
  0.224970E-01  0.216713E-01  0.212610E-01  0.211766E-01  0.213159E-01  0.215679E-01
  0.218259E-01  0.239584E-01  0.242157E-01  0.243407E-01  0.242990E-01  0.240930E-01
  0.237619E-01  0.233816E-01  0.230589E-01  0.229159E-01  0.230731E-01  0.236408E-01
  0.247191E-01  0.263955E-01  0.287275E-01  0.317155E-01  0.352739E-01  0.392140E-01
  0.432500E-01  0.470431E-01  0.502813E-01  0.527579E-01  0.543986E-01  0.552200E-01
  0.552534E-01  0.544906E-01  0.528893E-01  0.504332E-01  0.472065E-01  0.434284E-01
  0.394184E-01  0.355153E-01  0.319996E-01  0.290524E-01  0.267520E-01  0.250936E-01
  0.240187E-01  0.234410E-01  0.232609E-01  0.233678E-01  0.236409E-01  0.239584E-01
  0.262197E-01  0.265726E-01  0.267980E-01  0.268434E-01  0.266997E-01  0.264015E-01
  0.260265E-01  0.256881E-01  0.255182E-01  0.256489E-01  0.262047E-01  0.273014E-01
  0.290406E-01  0.314895E-01  0.346486E-01  0.384174E-01  0.425677E-01  0.467453E-01
  0.505320E-01  0.535707E-01  0.556919E-01  0.569498E-01  0.575334E-01  0.576130E-01
  0.572196E-01  0.562242E-01  0.544277E-01  0.517132E-01  0.481674E-01  0.440900E-01
  0.398903E-01  0.359525E-01  0.325507E-01  0.298294E-01  0.278228E-01  0.264877E-01
  0.257360E-01  0.254582E-01  0.255337E-01  0.258323E-01  0.262197E-01  0.286030E-01
  0.290702E-01  0.294188E-01  0.295754E-01  0.295147E-01  0.292630E-01  0.288975E-01
  0.285379E-01  0.283261E-01  0.284071E-01  0.289195E-01  0.299941E-01  0.317455E-01
  0.342477E-01  0.374993E-01  0.413835E-01  0.456296E-01  0.498064E-01  0.534003E-01
  0.559950E-01  0.574615E-01  0.580115E-01  0.580570E-01  0.579681E-01  0.578756E-01
  0.576053E-01  0.567697E-01  0.549832E-01  0.520962E-01  0.483020E-01  0.440473E-01
  0.398342E-01  0.360592E-01  0.329570E-01  0.306185E-01  0.290294E-01  0.281092E-01
  0.277419E-01  0.277962E-01  0.281318E-01  0.286030E-01  0.310887E-01  0.316913E-01
  0.321866E-01  0.324790E-01  0.325239E-01  0.323348E-01  0.319848E-01  0.315976E-01
  0.313253E-01  0.313258E-01  0.317523E-01  0.327510E-01  0.344498E-01  0.369299E-01
  0.401882E-01  0.440923E-01  0.483331E-01  0.524054E-01  0.556966E-01  0.577185E-01
  0.583690E-01  0.580121E-01  0.572901E-01  0.567976E-01  0.568119E-01  0.571816E-01
  0.573893E-01  0.567842E-01  0.549123E-01  0.517584E-01  0.477341E-01  0.434412E-01
  0.394163E-01  0.360088E-01  0.333830E-01  0.315671E-01  0.304993E-01  0.300637E-01
  0.301191E-01  0.305133E-01  0.310887E-01  0.336304E-01  0.343922E-01  0.350570E-01
  0.355083E-01  0.356810E-01  0.355727E-01  0.352482E-01  0.348317E-01  0.344827E-01
  0.343704E-01  0.346616E-01  0.355181E-01  0.370834E-01  0.394508E-01  0.426202E-01
  0.464517E-01  0.506106E-01  0.545361E-01  0.575299E-01  0.590241E-01  0.589094E-01
  0.576562E-01  0.560989E-01  0.550388E-01  0.549163E-01  0.556635E-01  0.567275E-01
  0.572732E-01  0.565527E-01  0.542775E-01  0.507341E-01  0.465676E-01  0.424432E-01
  0.388349E-01  0.359936E-01  0.340004E-01  0.328220E-01  0.323512E-01  0.324401E-01
  0.329235E-01  0.336304E-01  0.361458E-01  0.370913E-01  0.379460E-01  0.385749E-01
  0.388944E-01  0.388856E-01  0.386016E-01  0.381621E-01  0.377293E-01  0.374796E-01
  0.375896E-01  0.382345E-01  0.395756E-01  0.417247E-01  0.446964E-01  0.483583E-01
  0.523734E-01  0.561598E-01  0.589648E-01  0.601414E-01  0.595239E-01  0.576073E-01
  0.553396E-01  0.536802E-01  0.532225E-01  0.540164E-01  0.555589E-01  0.569462E-01
  0.572263E-01  0.558487E-01  0.529148E-01  0.490375E-01  0.449636E-01  0.412767E-01
  0.383139E-01  0.362129E-01  0.349756E-01  0.345112E-01  0.346709E-01  0.352778E-01
  0.361458E-01  0.385203E-01  0.396690E-01  0.407276E-01  0.415457E-01  0.420249E-01
  0.421317E-01  0.419063E-01  0.414589E-01  0.409480E-01  0.405508E-01  0.404478E-01
  0.408223E-01  0.418519E-01  0.436725E-01  0.463263E-01  0.497080E-01  0.535090E-01
  0.571709E-01  0.599353E-01  0.610935E-01  0.603776E-01  0.582034E-01  0.555234E-01
  0.533829E-01  0.525009E-01  0.530554E-01  0.546464E-01  0.564053E-01  0.573019E-01
  0.566082E-01  0.542431E-01  0.507276E-01  0.468231E-01  0.431800E-01  0.402027E-01
  0.380791E-01  0.368466E-01  0.364358E-01  0.367037E-01  0.374654E-01  0.385203E-01
  0.406200E-01  0.419817E-01  0.432470E-01  0.442541E-01  0.448951E-01  0.451272E-01
  0.449783E-01  0.445445E-01  0.439731E-01  0.434345E-01  0.431061E-01  0.431724E-01
  0.438219E-01  0.452151E-01  0.474309E-01  0.504095E-01  0.538991E-01  0.574094E-01
  0.602344E-01  0.616469E-01  0.612585E-01  0.593135E-01  0.566419E-01  0.542770E-01
  0.530163E-01  0.531587E-01  0.544337E-01  0.560800E-01  0.571083E-01  0.567336E-01
  0.547510E-01  0.515690E-01  0.479007E-01  0.444060E-01  0.415213E-01  0.394681E-01
  0.383124E-01  0.380069E-01  0.384188E-01  0.393607E-01  0.406200E-01  0.423071E-01
  0.438809E-01  0.453432E-01  0.465245E-01  0.473152E-01  0.476709E-01  0.476110E-01
  0.472145E-01  0.466087E-01  0.459486E-01  0.454011E-01  0.451456E-01  0.453744E-01
  0.462678E-01  0.479434E-01  0.503971E-01  0.534526E-01  0.567197E-01  0.595964E-01
  0.613980E-01  0.616451E-01  0.603662E-01  0.581589E-01  0.559243E-01  0.544607E-01
  0.541596E-01  0.548884E-01  0.560404E-01  0.567592E-01  0.563175E-01  0.544699E-01
  0.515269E-01  0.481127E-01  0.448421E-01  0.421443E-01  0.402513E-01  0.392464E-01
  0.390999E-01  0.396909E-01  0.408338E-01  0.423071E-01  0.434507E-01  0.452307E-01
  0.468730E-01  0.482038E-01  0.491193E-01  0.495837E-01  0.496150E-01  0.492749E-01
  0.486637E-01  0.479105E-01  0.471648E-01  0.465956E-01  0.463928E-01  0.467494E-01
  0.478162E-01  0.496458E-01  0.521423E-01  0.550267E-01  0.578296E-01  0.599651E-01
  0.609299E-01  0.605626E-01  0.591767E-01  0.574345E-01  0.560316E-01  0.553929E-01
  0.555121E-01  0.559647E-01  0.560886E-01  0.552982E-01  0.533812E-01  0.505799E-01
  0.474139E-01  0.444170E-01  0.419787E-01  0.403211E-01  0.395326E-01  0.395946E-01
  0.403971E-01  0.417583E-01  0.434507E-01  0.439358E-01  0.459168E-01  0.477258E-01
  0.491844E-01  0.501986E-01  0.507492E-01  0.508621E-01  0.505871E-01  0.499942E-01
  0.491784E-01  0.482637E-01  0.474049E-01  0.467859E-01  0.466050E-01  0.470378E-01
  0.481854E-01  0.500261E-01  0.523842E-01  0.549225E-01  0.571826E-01  0.587060E-01
  0.592195E-01  0.587824E-01  0.577710E-01  0.566874E-01  0.559099E-01  0.555200E-01
  0.552746E-01  0.547330E-01  0.534936E-01  0.514215E-01  0.487191E-01  0.458043E-01
  0.431162E-01  0.409876E-01  0.396178E-01  0.390919E-01  0.393969E-01  0.404324E-01
  0.420223E-01  0.439358E-01  0.436751E-01  0.458537E-01  0.478275E-01  0.494089E-01
  0.505104E-01  0.511306E-01  0.513108E-01  0.510974E-01  0.505344E-01  0.496800E-01
  0.486271E-01  0.475121E-01  0.465118E-01  0.458254E-01  0.456433E-01  0.461026E-01
  0.472416E-01  0.489696E-01  0.510610E-01  0.531804E-01  0.549527E-01  0.560780E-01
  0.564480E-01  0.561863E-01  0.555676E-01  0.548579E-01  0.541684E-01  0.534036E-01
  0.523284E-01  0.507245E-01  0.485464E-01  0.459750E-01  0.433411E-01  0.409933E-01
  0.392056E-01  0.381508E-01  0.379066E-01  0.384643E-01  0.397331E-01  0.415465E-01
  0.436751E-01  0.426263E-01  0.449929E-01  0.471374E-01  0.488573E-01  0.500599E-01
  0.507532E-01  0.509935E-01  0.508317E-01  0.502967E-01  0.494158E-01  0.482501E-01
  0.469160E-01  0.455822E-01  0.444471E-01  0.437081E-01  0.435235E-01  0.439736E-01
  0.450318E-01  0.465570E-01  0.483129E-01  0.500121E-01  0.513823E-01  0.522410E-01
  0.525441E-01  0.523733E-01  0.518614E-01  0.510984E-01  0.500787E-01  0.487214E-01
  0.469547E-01  0.448090E-01  0.424525E-01  0.401479E-01  0.381689E-01  0.367377E-01
  0.360011E-01  0.360303E-01  0.368217E-01  0.382971E-01  0.403052E-01  0.426263E-01
  0.408070E-01  0.433351E-01  0.456499E-01  0.475314E-01  0.488689E-01  0.496623E-01
  0.499722E-01  0.498563E-01  0.493404E-01  0.484346E-01  0.471752E-01  0.456598E-01
  0.440485E-01  0.425385E-01  0.413287E-01  0.405859E-01  0.404140E-01  0.408287E-01
  0.417493E-01  0.430129E-01  0.444057E-01  0.457026E-01  0.467105E-01  0.473051E-01
  0.474455E-01  0.471556E-01  0.464802E-01  0.454481E-01  0.440668E-01  0.423566E-01
  0.403966E-01  0.383445E-01  0.364127E-01  0.348183E-01  0.337411E-01  0.333056E-01
  0.335768E-01  0.345582E-01  0.361889E-01  0.383387E-01  0.408070E-01  0.382999E-01
  0.409385E-01  0.434000E-01  0.454519E-01  0.469568E-01  0.478887E-01  0.482941E-01
  0.482313E-01  0.477308E-01  0.468007E-01  0.454663E-01  0.438110E-01  0.419861E-01
  0.401859E-01  0.386079E-01  0.374190E-01  0.367308E-01  0.365820E-01  0.369320E-01
  0.376710E-01  0.386427E-01  0.396697E-01  0.405788E-01  0.412244E-01  0.415092E-01
  0.413911E-01  0.408725E-01  0.399809E-01  0.387578E-01  0.372645E-01  0.355998E-01
  0.339083E-01  0.323659E-01  0.311482E-01  0.304023E-01  0.302324E-01  0.306979E-01
  0.318109E-01  0.335301E-01  0.357511E-01  0.382999E-01  0.352446E-01  0.379198E-01
  0.404730E-01  0.426703E-01  0.443493E-01  0.454467E-01  0.459782E-01  0.459896E-01
  0.455156E-01  0.445739E-01  0.431925E-01  0.414489E-01  0.394849E-01  0.374880E-01
  0.356515E-01  0.341386E-01  0.330597E-01  0.324615E-01  0.323266E-01  0.325824E-01
  0.331172E-01  0.337967E-01  0.344775E-01  0.350228E-01  0.353208E-01  0.353006E-01
  0.349369E-01  0.342433E-01  0.332622E-01  0.320614E-01  0.307373E-01  0.294169E-01
  0.282468E-01  0.273721E-01  0.269139E-01  0.269597E-01  0.275632E-01  0.287442E-01
  0.304806E-01  0.326953E-01  0.352446E-01  0.318202E-01  0.344446E-01  0.370078E-01
  0.392875E-01  0.411068E-01  0.423662E-01  0.430413E-01  0.431529E-01  0.427330E-01
  0.418112E-01  0.404279E-01  0.386616E-01  0.366448E-01  0.345525E-01  0.325693E-01
  0.308526E-01  0.295092E-01  0.285870E-01  0.280800E-01  0.279394E-01  0.280870E-01
  0.284247E-01  0.288403E-01  0.292174E-01  0.294507E-01  0.294636E-01  0.292178E-01
  0.287134E-01  0.279814E-01  0.270788E-01  0.260867E-01  0.251100E-01  0.242692E-01
  0.236841E-01  0.234562E-01  0.236598E-01  0.243437E-01  0.255325E-01  0.272200E-01
  0.293536E-01  0.318202E-01  0.282249E-01  0.307108E-01  0.331899E-01  0.354627E-01
  0.373519E-01  0.387329E-01  0.395435E-01  0.397732E-01  0.394421E-01  0.385869E-01
  0.372612E-01  0.355481E-01  0.335709E-01  0.314876E-01  0.294675E-01  0.276594E-01
  0.261669E-01  0.250389E-01  0.242757E-01  0.238433E-01  0.236867E-01  0.237355E-01
  0.239055E-01  0.241030E-01  0.242377E-01  0.242388E-01  0.240659E-01  0.237105E-01
  0.231914E-01  0.225498E-01  0.218472E-01  0.211640E-01  0.205955E-01  0.202392E-01
  0.201809E-01  0.204858E-01  0.211981E-01  0.223445E-01  0.239286E-01  0.259171E-01
  0.282249E-01  0.246525E-01  0.269253E-01  0.292325E-01  0.314036E-01  0.332737E-01
  0.347083E-01  0.356189E-01  0.359660E-01  0.357520E-01  0.350115E-01  0.338054E-01
  0.322200E-01  0.303693E-01  0.283917E-01  0.264363E-01  0.246388E-01  0.230983E-01
  0.218660E-01  0.209491E-01  0.203247E-01  0.199534E-01  0.197847E-01  0.197559E-01
  0.197942E-01  0.198260E-01  0.197914E-01  0.196534E-01  0.194005E-01  0.190424E-01
  0.186060E-01  0.181342E-01  0.176847E-01  0.173286E-01  0.171431E-01  0.172005E-01
  0.175585E-01  0.182583E-01  0.193253E-01  0.207672E-01  0.225634E-01  0.246525E-01
  0.212710E-01  0.232795E-01  0.253477E-01  0.273365E-01  0.291016E-01  0.305127E-01
  0.314697E-01  0.319129E-01  0.318265E-01  0.312357E-01  0.301994E-01  0.288015E-01
  0.271458E-01  0.253517E-01  0.235454E-01  0.218453E-01  0.203429E-01  0.190908E-01
  0.181039E-01  0.173703E-01  0.168628E-01  0.165450E-01  0.163703E-01  0.162828E-01
  0.162245E-01  0.161468E-01  0.160190E-01  0.158294E-01  0.155820E-01  0.152935E-01
  0.149918E-01  0.147162E-01  0.145174E-01  0.144539E-01  0.145846E-01  0.149605E-01
  0.156190E-01  0.165832E-01  0.178606E-01  0.194378E-01  0.212710E-01  0.182057E-01
  0.199271E-01  0.217183E-01  0.234705E-01  0.250639E-01  0.263825E-01  0.273278E-01
  0.278311E-01  0.278629E-01  0.274352E-01  0.265971E-01  0.254237E-01  0.240067E-01
  0.224470E-01  0.208492E-01  0.193124E-01  0.179168E-01  0.167135E-01  0.157239E-01
  0.149460E-01  0.143638E-01  0.139524E-01  0.136775E-01  0.134971E-01  0.133667E-01
  0.132484E-01  0.131174E-01  0.129633E-01  0.127868E-01  0.125975E-01  0.124129E-01
  0.122591E-01  0.121710E-01  0.121910E-01  0.123651E-01  0.127356E-01  0.133355E-01
  0.141849E-01  0.152899E-01  0.166406E-01  0.182057E-01  0.155336E-01  0.169712E-01
  0.184770E-01  0.199681E-01  0.213498E-01  0.225256E-01  0.234083E-01  0.239308E-01
  0.240562E-01  0.237842E-01  0.231498E-01  0.222142E-01  0.210541E-01  0.197529E-01
  0.183959E-01  0.170634E-01  0.158226E-01  0.147200E-01  0.137800E-01  0.130086E-01
  0.123992E-01  0.119363E-01  0.115963E-01  0.113493E-01  0.111629E-01  0.110087E-01
  0.108676E-01  0.107304E-01  0.105959E-01  0.104689E-01  0.103602E-01  0.102868E-01
  0.102727E-01  0.103475E-01  0.105444E-01  0.108958E-01  0.114286E-01  0.121600E-01
  0.130955E-01  0.142277E-01  0.155336E-01  0.132891E-01  0.144644E-01  0.156989E-01
  0.169305E-01  0.180867E-01  0.190922E-01  0.198764E-01  0.203810E-01  0.205687E-01
  0.204303E-01  0.199864E-01  0.192817E-01  0.183761E-01  0.173360E-01  0.162290E-01
  0.151185E-01  0.140590E-01  0.130906E-01  0.122378E-01  0.115114E-01  0.109113E-01
  0.104296E-01  0.100517E-01  0.975828E-02  0.952805E-02  0.934175E-02  0.918544E-02
  0.905153E-02  0.893778E-02  0.884615E-02  0.878286E-02  0.875906E-02  0.879091E-02
  0.889853E-02  0.910406E-02  0.942957E-02  0.989440E-02  0.105124E-01  0.112892E-01
  0.122204E-01  0.132891E-01  0.114769E-01  0.124196E-01  0.134096E-01  0.144005E-01
  0.153382E-01  0.161669E-01  0.168336E-01  0.172929E-01  0.175123E-01  0.174784E-01
  0.171996E-01  0.167047E-01  0.160364E-01  0.152446E-01  0.143807E-01  0.134933E-01
  0.126247E-01  0.118078E-01  0.110653E-01  0.104098E-01  0.984562E-02  0.937005E-02
  0.897561E-02  0.865187E-02  0.838732E-02  0.817116E-02  0.799487E-02  0.785305E-02
  0.774347E-02  0.766668E-02  0.762611E-02  0.762879E-02  0.768541E-02  0.780909E-02
  0.801335E-02  0.831084E-02  0.871292E-02  0.922897E-02  0.986436E-02  0.106175E-01
  0.114769E-01  0.100838E-01  0.108250E-01  0.116010E-01  0.123775E-01  0.131156E-01
  0.137758E-01  0.143211E-01  0.147192E-01  0.149452E-01  0.149856E-01  0.148408E-01
  0.145263E-01  0.140694E-01  0.135045E-01  0.128682E-01  0.121956E-01  0.115174E-01
  0.108588E-01  0.102386E-01  0.966948E-02  0.915804E-02  0.870552E-02  0.830981E-02
  0.796757E-02  0.767541E-02  0.743019E-02  0.722893E-02  0.706929E-02  0.695013E-02
  0.687183E-02  0.683645E-02  0.684828E-02  0.691394E-02  0.704136E-02  0.723766E-02
  0.750808E-02  0.785657E-02  0.828704E-02  0.880294E-02  0.940425E-02  0.100838E-01
  0.908602E-02  0.965571E-02  0.102472E-01  0.108367E-01  0.113980E-01  0.119052E-01
  0.123345E-01  0.126650E-01  0.128797E-01  0.129676E-01  0.129257E-01  0.127599E-01
  0.124852E-01  0.121225E-01  0.116952E-01  0.112258E-01  0.107337E-01  0.102350E-01
  0.974324E-02  0.926904E-02  0.881996E-02  0.840026E-02  0.801223E-02  0.765815E-02
  0.734127E-02  0.706525E-02  0.683288E-02  0.664569E-02  0.650470E-02  0.641113E-02
  0.636686E-02  0.637460E-02  0.643798E-02  0.656078E-02  0.674528E-02  0.699114E-02
  0.729631E-02  0.765920E-02  0.807960E-02  0.855679E-02  0.908602E-02  0.845322E-02
  0.888041E-02  0.931513E-02  0.974319E-02  0.101498E-01  0.105208E-01  0.108432E-01
  0.111051E-01  0.112969E-01  0.114116E-01  0.114456E-01  0.113996E-01  0.112795E-01
  0.110953E-01  0.108588E-01  0.105811E-01  0.102702E-01  0.993229E-02  0.957329E-02
  0.919991E-02  0.881922E-02  0.843761E-02  0.806111E-02  0.769677E-02  0.735359E-02
  0.704158E-02  0.676960E-02  0.654399E-02  0.636883E-02  0.624713E-02  0.618148E-02
  0.617413E-02  0.622668E-02  0.633945E-02  0.651047E-02  0.673493E-02  0.700618E-02
  0.731786E-02  0.766544E-02  0.804549E-02  0.845322E-02  0.815243E-02  0.846450E-02
  0.876873E-02  0.905919E-02  0.933132E-02  0.958143E-02  0.980586E-02  0.100009E-01
  0.101630E-01  0.102897E-01  0.103790E-01  0.104295E-01  0.104413E-01  0.104159E-01
  0.103554E-01  0.102601E-01  0.101272E-01  0.995220E-02  0.973155E-02  0.946572E-02
  0.915924E-02  0.881937E-02  0.845513E-02  0.807802E-02  0.770259E-02  0.734537E-02
  0.702192E-02  0.674439E-02  0.652101E-02  0.635738E-02  0.625757E-02  0.622427E-02
  0.625801E-02  0.635632E-02  0.651322E-02  0.671966E-02  0.696496E-02  0.723884E-02
  0.753271E-02  0.783948E-02  0.815243E-02  0.815212E-02  0.837355E-02  0.857147E-02
  0.874639E-02  0.890247E-02  0.904536E-02  0.918010E-02  0.931040E-02  0.943906E-02
  0.956821E-02  0.969877E-02  0.982954E-02  0.995723E-02  0.100771E-01  0.101829E-01
  0.102654E-01  0.103114E-01  0.103050E-01  0.102318E-01  0.100836E-01  0.985949E-02
  0.956564E-02  0.921306E-02  0.881755E-02  0.839973E-02  0.798341E-02  0.759195E-02
  0.724458E-02  0.695510E-02  0.673280E-02  0.658399E-02  0.651235E-02  0.651805E-02
  0.659650E-02  0.673810E-02  0.692946E-02  0.715571E-02  0.740274E-02  0.765818E-02
  0.791116E-02  0.815212E-02  0.842518E-02  0.857636E-02  0.868894E-02  0.876798E-02
  0.882463E-02  0.887265E-02  0.892516E-02  0.899326E-02  0.908631E-02  0.921205E-02
  0.937547E-02  0.957705E-02  0.981207E-02  0.100712E-01  0.103411E-01  0.106037E-01
  0.108357E-01  0.110096E-01  0.110989E-01  0.110835E-01  0.109545E-01  0.107138E-01
  0.103728E-01  0.995149E-02  0.947741E-02  0.898298E-02  0.850087E-02  0.805923E-02
  0.767937E-02  0.737612E-02  0.715918E-02  0.703370E-02  0.699962E-02  0.705056E-02
  0.717372E-02  0.735150E-02  0.756441E-02  0.779386E-02  0.802324E-02  0.823788E-02
  0.842518E-02  0.946980E-02  0.954444E-02  0.955205E-02  0.950310E-02  0.941545E-02
  0.930995E-02  0.920645E-02  0.912209E-02  0.907132E-02  0.906584E-02  0.911338E-02
  0.921604E-02  0.936962E-02  0.956445E-02  0.978642E-02  0.100171E-01  0.102334E-01
  0.104086E-01  0.105162E-01  0.105357E-01  0.104564E-01  0.102790E-01  0.100144E-01
  0.968159E-02  0.930586E-02  0.891616E-02  0.854172E-02  0.820873E-02  0.793823E-02
  0.774550E-02  0.764016E-02  0.762602E-02  0.770057E-02  0.785436E-02  0.807124E-02
  0.833001E-02  0.860716E-02  0.887952E-02  0.912582E-02  0.932747E-02  0.946980E-02
  0.102913E-01  0.103230E-01  0.102689E-01  0.101429E-01  0.996854E-02  0.977413E-02
  0.958765E-02  0.943430E-02  0.933617E-02  0.931183E-02  0.937448E-02  0.952932E-02
  0.977211E-02  0.100898E-01  0.104619E-01  0.108618E-01  0.112566E-01  0.116088E-01
  0.118795E-01  0.120354E-01  0.120545E-01  0.119299E-01  0.116703E-01  0.112984E-01
  0.108478E-01  0.103577E-01  0.986827E-02  0.941620E-02  0.903217E-02  0.873974E-02
  0.855439E-02  0.848272E-02  0.852195E-02  0.866002E-02  0.887674E-02  0.914595E-02
  0.943848E-02  0.972493E-02  0.997775E-02  0.101728E-01  0.102913E-01  0.113537E-01
  0.113541E-01  0.112506E-01  0.110590E-01  0.108073E-01  0.105302E-01  0.102637E-01
  0.100417E-01  0.989497E-02  0.985051E-02  0.992855E-02  0.101389E-01  0.104787E-01
  0.109322E-01  0.114734E-01  0.120671E-01  0.126702E-01  0.132327E-01  0.137017E-01
  0.140281E-01  0.141746E-01  0.141226E-01  0.138759E-01  0.134598E-01  0.129165E-01
  0.122979E-01  0.116580E-01  0.110468E-01  0.105075E-01  0.100747E-01  0.977199E-02
  0.961073E-02  0.958897E-02  0.969248E-02  0.989695E-02  0.101709E-01  0.104787E-01
  0.107836E-01  0.110504E-01  0.112482E-01  0.113537E-01  0.126324E-01  0.126132E-01
  0.124723E-01  0.122267E-01  0.119075E-01  0.115547E-01  0.112124E-01  0.109239E-01
  0.107301E-01  0.106677E-01  0.107648E-01  0.110373E-01  0.114849E-01  0.120913E-01
  0.128257E-01  0.136454E-01  0.144959E-01  0.153130E-01  0.160264E-01  0.165673E-01
  0.168790E-01  0.169272E-01  0.167069E-01  0.162438E-01  0.155893E-01  0.148101E-01
  0.139775E-01  0.131593E-01  0.124150E-01  0.117925E-01  0.113258E-01  0.110325E-01
  0.109134E-01  0.109535E-01  0.111253E-01  0.113919E-01  0.117102E-01  0.120346E-01
  0.123208E-01  0.125298E-01  0.126324E-01  0.140975E-01  0.140703E-01  0.139048E-01
  0.136177E-01  0.132419E-01  0.128222E-01  0.124104E-01  0.120607E-01  0.118253E-01
  0.117510E-01  0.118745E-01  0.122181E-01  0.127861E-01  0.135642E-01  0.145201E-01
  0.156044E-01  0.167510E-01  0.178785E-01  0.188947E-01  0.197063E-01  0.202321E-01
  0.204171E-01  0.202438E-01  0.197356E-01  0.189519E-01  0.179759E-01  0.169009E-01
  0.158180E-01  0.148084E-01  0.139377E-01  0.132520E-01  0.127758E-01  0.125133E-01
  0.124507E-01  0.125590E-01  0.127967E-01  0.131134E-01  0.134533E-01  0.137610E-01
  0.139878E-01  0.140975E-01  0.157134E-01  0.156901E-01  0.155134E-01  0.151986E-01
  0.147789E-01  0.143033E-01  0.138317E-01  0.134298E-01  0.131622E-01  0.130861E-01
  0.132465E-01  0.136724E-01  0.143751E-01  0.153455E-01  0.165537E-01  0.179458E-01
  0.194435E-01  0.209450E-01  0.223316E-01  0.234799E-01  0.242790E-01  0.246484E-01
  0.245532E-01  0.240107E-01  0.230860E-01  0.218790E-01  0.205079E-01  0.190935E-01
  0.177464E-01  0.165564E-01  0.155859E-01  0.148676E-01  0.144086E-01  0.141957E-01
  0.141996E-01  0.143764E-01  0.146696E-01  0.150131E-01  0.153394E-01  0.155879E-01
  0.157134E-01  0.174430E-01  0.174352E-01  0.172614E-01  0.169337E-01  0.164850E-01
  0.159671E-01  0.154481E-01  0.150059E-01  0.147180E-01  0.146525E-01  0.148625E-01
  0.153845E-01  0.162383E-01  0.174240E-01  0.189166E-01  0.206598E-01  0.225622E-01
  0.244993E-01  0.263218E-01  0.278727E-01  0.290075E-01  0.296166E-01  0.296432E-01
  0.290931E-01  0.280323E-01  0.265747E-01  0.248634E-01  0.230525E-01  0.212892E-01
  0.196969E-01  0.183626E-01  0.173318E-01  0.166151E-01  0.161982E-01  0.160500E-01
  0.161251E-01  0.163629E-01  0.166893E-01  0.170246E-01  0.172948E-01  0.174430E-01
  0.192529E-01  0.192716E-01  0.191150E-01  0.187905E-01  0.183290E-01  0.177845E-01
  0.172326E-01  0.167631E-01  0.164668E-01  0.164236E-01  0.166954E-01  0.173277E-01
  0.183510E-01  0.197760E-01  0.215840E-01  0.237158E-01  0.260654E-01  0.284828E-01
  0.307868E-01  0.327861E-01  0.343042E-01  0.352032E-01  0.354029E-01  0.348925E-01
  0.337307E-01  0.320367E-01  0.299726E-01  0.277240E-01  0.254780E-01  0.234003E-01
  0.216137E-01  0.201874E-01  0.191410E-01  0.184595E-01  0.181071E-01  0.180349E-01
  0.181792E-01  0.184607E-01  0.187893E-01  0.190771E-01  0.192529E-01  0.211180E-01
  0.211735E-01  0.210484E-01  0.207435E-01  0.202865E-01  0.197323E-01  0.191626E-01
  0.186781E-01  0.183829E-01  0.183695E-01  0.187112E-01  0.194652E-01  0.206740E-01
  0.223595E-01  0.245076E-01  0.270528E-01  0.298701E-01  0.327803E-01  0.355680E-01
  0.380112E-01  0.399110E-01  0.411149E-01  0.415291E-01  0.411253E-01  0.399430E-01
  0.380873E-01  0.357207E-01  0.330484E-01  0.302949E-01  0.276732E-01  0.253539E-01
  0.234444E-01  0.219867E-01  0.209713E-01  0.203584E-01  0.200919E-01  0.201034E-01
  0.203094E-01  0.206123E-01  0.209109E-01  0.211180E-01  0.230204E-01  0.231229E-01
  0.230439E-01  0.227749E-01  0.223396E-01  0.217927E-01  0.212204E-01  0.207322E-01
  0.204446E-01  0.204633E-01  0.208762E-01  0.217551E-01  0.231570E-01  0.251139E-01
  0.276127E-01  0.305756E-01  0.338504E-01  0.372183E-01  0.404227E-01  0.432150E-01