 CRYSTAL
 PRIMVEC
    3.714137127    0.000006865   -0.000000000
   -0.820424687    3.494306875   -0.000000000
   -0.000000000   -0.000000000    3.840072253
 PRIMCOORD
           4           1
Si       -0.079154796    0.851321145    1.297287897
Si        1.859884933    1.477378961    0.533777221
Si        0.079162965    2.080029245    3.035018757
Si        1.854255915    0.506622266    2.242939940
BEGIN_BLOCK_DATAGRID_3D
3D_PWSCF
BEGIN_DATAGRID_3D_UNKNOWN
          37          37          37
  0.000000  0.000000  0.000000
    3.714137    0.000007   -0.000000
   -0.820425    3.494307   -0.000000
   -0.000000   -0.000000    3.840072
  0.179405E-01  0.183075E-01  0.186024E-01  0.188270E-01  0.189973E-01  0.191418E-01
  0.192949E-01  0.194901E-01  0.197542E-01  0.201035E-01  0.205414E-01  0.210552E-01
  0.216131E-01  0.221646E-01  0.226462E-01  0.229918E-01  0.231449E-01  0.230671E-01
  0.227413E-01  0.221723E-01  0.213870E-01  0.204355E-01  0.193892E-01  0.183322E-01
  0.173466E-01  0.165000E-01  0.158384E-01  0.153882E-01  0.151588E-01  0.151436E-01
  0.153186E-01  0.156437E-01  0.160699E-01  0.165487E-01  0.170397E-01  0.175117E-01
  0.179405E-01  0.187792E-01  0.190352E-01  0.192072E-01  0.193023E-01  0.193443E-01
  0.193721E-01  0.194336E-01  0.195772E-01  0.198437E-01  0.202608E-01  0.208387E-01
  0.215668E-01  0.224090E-01  0.233037E-01  0.241682E-01  0.249107E-01  0.254444E-01
  0.257001E-01  0.256332E-01  0.252282E-01  0.245024E-01  0.235092E-01  0.223356E-01
  0.210891E-01  0.198775E-01  0.187907E-01  0.178918E-01  0.172191E-01  0.167912E-01
  0.166081E-01  0.166491E-01  0.168725E-01  0.172207E-01  0.176327E-01  0.180548E-01
  0.184464E-01  0.187792E-01  0.201158E-01  0.202815E-01  0.203492E-01  0.203306E-01
  0.202571E-01  0.201783E-01  0.201555E-01  0.202513E-01  0.205204E-01  0.210022E-01
  0.217160E-01  0.226568E-01  0.237893E-01  0.250451E-01  0.263251E-01  0.275104E-01
  0.284793E-01  0.291243E-01  0.293656E-01  0.291610E-01  0.285144E-01  0.274809E-01
  0.261632E-01  0.246947E-01  0.232132E-01  0.218359E-01  0.206471E-01  0.196997E-01
  0.190225E-01  0.186238E-01  0.184888E-01  0.185777E-01  0.188285E-01  0.191688E-01
  0.195302E-01  0.198583E-01  0.201158E-01  0.219154E-01  0.220112E-01  0.219946E-01
  0.218802E-01  0.217065E-01  0.215338E-01  0.214363E-01  0.214907E-01  0.217647E-01
  0.223101E-01  0.231573E-01  0.243099E-01  0.257381E-01  0.273712E-01  0.290967E-01
  0.307692E-01  0.322286E-01  0.333228E-01  0.339289E-01  0.339715E-01  0.334357E-01
  0.323744E-01  0.309040E-01  0.291844E-01  0.273869E-01  0.256623E-01  0.241234E-01
  0.228433E-01  0.218636E-01  0.212006E-01  0.208454E-01  0.207616E-01  0.208864E-01
  0.211398E-01  0.214396E-01  0.217151E-01  0.219154E-01  0.241512E-01  0.241968E-01
  0.241168E-01  0.239263E-01  0.236698E-01  0.234174E-01  0.232556E-01  0.232743E-01
  0.235552E-01  0.241632E-01  0.251413E-01  0.265044E-01  0.282303E-01  0.302488E-01
  0.324375E-01  0.346267E-01  0.366181E-01  0.382120E-01  0.392380E-01  0.395812E-01
  0.392023E-01  0.381459E-01  0.365360E-01  0.345545E-01  0.324055E-01  0.302793E-01
  0.283263E-01  0.266498E-01  0.253106E-01  0.243348E-01  0.237177E-01  0.234244E-01
  0.233922E-01  0.235371E-01  0.237665E-01  0.239938E-01  0.241512E-01  0.268045E-01
  0.268188E-01  0.266973E-01  0.264526E-01  0.261327E-01  0.258157E-01  0.255993E-01
  0.255864E-01  0.258731E-01  0.265394E-01  0.276428E-01  0.292101E-01  0.312263E-01
  0.336225E-01  0.362680E-01  0.389723E-01  0.415026E-01  0.436154E-01  0.450941E-01
  0.457845E-01  0.456187E-01  0.446251E-01  0.429243E-01  0.407079E-01  0.382063E-01
  0.356487E-01  0.332311E-01  0.310985E-01  0.293424E-01  0.280055E-01  0.270880E-01
  0.265541E-01  0.263383E-01  0.263535E-01  0.265003E-01  0.266790E-01  0.268045E-01
  0.298550E-01  0.298563E-01  0.297173E-01  0.294431E-01  0.290820E-01  0.287176E-01
  0.284569E-01  0.284153E-01  0.287042E-01  0.294204E-01  0.306367E-01  0.323908E-01
  0.346729E-01  0.374133E-01  0.404722E-01  0.436401E-01  0.466559E-01  0.492426E-01
  0.511515E-01  0.522006E-01  0.522982E-01  0.514500E-01  0.497552E-01  0.473939E-01
  0.446030E-01  0.416415E-01  0.387522E-01  0.361319E-01  0.339154E-01  0.321740E-01
  0.309201E-01  0.301185E-01  0.296991E-01  0.295692E-01  0.296232E-01  0.297519E-01
  0.298550E-01  0.332687E-01  0.332763E-01  0.331455E-01  0.328697E-01  0.324932E-01
  0.321020E-01  0.318103E-01  0.317452E-01  0.320337E-01  0.327894E-01  0.340993E-01
  0.360093E-01  0.385107E-01  0.415273E-01  0.449054E-01  0.484143E-01  0.517698E-01
  0.546790E-01  0.568907E-01  0.582294E-01  0.586028E-01  0.579962E-01  0.564663E-01
  0.541438E-01  0.512331E-01  0.479953E-01  0.447104E-01  0.416314E-01  0.389497E-01
  0.367796E-01  0.351599E-01  0.340658E-01  0.334260E-01  0.331413E-01  0.330981E-01
  0.331782E-01  0.332687E-01  0.369933E-01  0.370274E-01  0.369319E-01  0.366851E-01
  0.363226E-01  0.359295E-01  0.356248E-01  0.355464E-01  0.358361E-01  0.366229E-01
  0.380044E-01  0.400290E-01  0.426817E-01  0.458705E-01  0.494155E-01  0.530549E-01
  0.564831E-01  0.594157E-01  0.616477E-01  0.630707E-01  0.636451E-01  0.633586E-01
  0.622094E-01  0.602272E-01  0.575164E-01  0.542812E-01  0.508062E-01  0.473963E-01
  0.443120E-01  0.417299E-01  0.397343E-01  0.383282E-01  0.374521E-01  0.370051E-01
  0.368651E-01  0.369030E-01  0.369933E-01  0.409629E-01  0.410440E-01  0.410106E-01
  0.408240E-01  0.405073E-01  0.401408E-01  0.398459E-01  0.397696E-01  0.400669E-01
  0.408797E-01  0.423113E-01  0.444054E-01  0.471299E-01  0.503610E-01  0.538720E-01
  0.573508E-01  0.604679E-01  0.629757E-01  0.647779E-01  0.659161E-01  0.664816E-01
  0.665163E-01  0.659655E-01  0.647127E-01  0.626749E-01  0.599021E-01  0.566111E-01
  0.531315E-01  0.498020E-01  0.468867E-01  0.445420E-01  0.428225E-01  0.417000E-01
  0.410855E-01  0.408519E-01  0.408576E-01  0.409629E-01  0.451055E-01  0.452525E-01
  0.453046E-01  0.452067E-01  0.449675E-01  0.446580E-01  0.443987E-01  0.443428E-01
  0.446566E-01  0.454914E-01  0.469522E-01  0.490712E-01  0.517883E-01  0.549289E-01
  0.581923E-01  0.611896E-01  0.635598E-01  0.651208E-01  0.659490E-01  0.663180E-01
  0.665309E-01  0.667502E-01  0.669084E-01  0.667368E-01  0.658992E-01  0.641767E-01
  0.616021E-01  0.584581E-01  0.551505E-01  0.520578E-01  0.494434E-01  0.474427E-01
  0.460826E-01  0.453034E-01  0.449834E-01  0.449695E-01  0.451055E-01  0.493410E-01
  0.495685E-01  0.497234E-01  0.497369E-01  0.496027E-01  0.493796E-01  0.491822E-01
  0.491657E-01  0.495035E-01  0.503540E-01  0.518209E-01  0.539222E-01  0.565631E-01
  0.595045E-01  0.623476E-01  0.645990E-01  0.658547E-01  0.660180E-01  0.653859E-01
  0.645199E-01  0.639850E-01  0.641142E-01  0.648874E-01  0.659367E-01  0.666782E-01
  0.665518E-01  0.652768E-01  0.629690E-01  0.600450E-01  0.570052E-01  0.542570E-01
  0.520510E-01  0.504927E-01  0.495695E-01  0.491781E-01  0.491594E-01  0.493410E-01
  0.535642E-01  0.538807E-01  0.541469E-01  0.542853E-01  0.542770E-01  0.541662E-01
  0.540562E-01  0.540976E-01  0.544655E-01  0.553216E-01  0.567683E-01  0.588106E-01
  0.613225E-01  0.640007E-01  0.663397E-01  0.677241E-01  0.676897E-01  0.662238E-01
  0.638596E-01  0.614610E-01  0.598590E-01  0.595679E-01  0.606606E-01  0.627592E-01
  0.651222E-01  0.668720E-01  0.673380E-01  0.663362E-01  0.641867E-01  0.614763E-01
  0.587743E-01  0.564776E-01  0.547929E-01  0.537690E-01  0.533318E-01  0.533252E-01
  0.535642E-01  0.576248E-01  0.580280E-01  0.584017E-01  0.586665E-01  0.587959E-01
  0.588195E-01  0.588233E-01  0.589442E-01  0.593509E-01  0.602036E-01  0.616034E-01
  0.635491E-01  0.658962E-01  0.682964E-01  0.701553E-01  0.707373E-01  0.694965E-01
  0.664695E-01  0.623938E-01  0.584102E-01  0.555885E-01  0.546024E-01  0.556300E-01
  0.583579E-01  0.620152E-01  0.655235E-01  0.678498E-01  0.684304E-01  0.673671E-01
  0.652494E-01  0.627865E-01  0.605347E-01  0.588167E-01  0.577517E-01  0.573024E-01
  0.573238E-01  0.576248E-01  0.613239E-01  0.617936E-01  0.622508E-01  0.626241E-01
  0.628891E-01  0.630642E-01  0.632129E-01  0.634465E-01  0.639137E-01  0.647650E-01
  0.660997E-01  0.679187E-01  0.700791E-01  0.722227E-01  0.737110E-01  0.737178E-01
  0.715978E-01  0.673673E-01  0.618814E-01  0.564936E-01  0.524767E-01  0.506412E-01
  0.512619E-01  0.541212E-01  0.585163E-01  0.633149E-01  0.672416E-01  0.693739E-01
  0.695196E-01  0.681696E-01  0.661091E-01  0.640327E-01  0.623788E-01  0.613378E-01
  0.609110E-01  0.609697E-01  0.613239E-01  0.644394E-01  0.649311E-01  0.654184E-01
  0.658525E-01  0.662266E-01  0.665576E-01  0.668852E-01  0.672813E-01  0.678548E-01
  0.687303E-01  0.700003E-01  0.716753E-01  0.736357E-01  0.755552E-01  0.768147E-01
  0.765565E-01  0.740392E-01  0.691753E-01  0.628035E-01  0.563813E-01  0.513414E-01
  0.486286E-01  0.486139E-01  0.511750E-01  0.557154E-01  0.611569E-01  0.661334E-01
  0.694758E-01  0.707087E-01  0.701541E-01  0.685883E-01  0.667896E-01  0.652873E-01
  0.643327E-01  0.639603E-01  0.640574E-01  0.644394E-01  0.667699E-01  0.672206E-01
  0.676565E-01  0.680685E-01  0.684889E-01  0.689521E-01  0.694801E-01  0.700957E-01
  0.708441E-01  0.717986E-01  0.730302E-01  0.745606E-01  0.763106E-01  0.780239E-01
  0.791666E-01  0.789298E-01  0.765181E-01  0.716834E-01  0.650983E-01  0.581714E-01
  0.524193E-01  0.489222E-01  0.481667E-01  0.501252E-01  0.543057E-01  0.597339E-01
  0.650787E-01  0.690760E-01  0.710573E-01  0.711646E-01  0.700925E-01  0.686297E-01
  0.673500E-01  0.665411E-01  0.662571E-01  0.663935E-01  0.667699E-01  0.681730E-01
  0.685254E-01  0.688215E-01  0.691078E-01  0.694782E-01  0.700085E-01  0.707213E-01
  0.715910E-01  0.725817E-01  0.736854E-01  0.749260E-01  0.763263E-01  0.778555E-01
  0.793517E-01  0.804168E-01  0.803718E-01  0.784468E-01  0.742400E-01  0.681516E-01
  0.613695E-01  0.553646E-01  0.513140E-01  0.498366E-01  0.510139E-01  0.544545E-01
  0.593053E-01  0.643542E-01  0.683827E-01  0.706535E-01  0.711703E-01  0.705062E-01
  0.693905E-01  0.683852E-01  0.677806E-01  0.676296E-01  0.678219E-01  0.681730E-01
  0.685791E-01  0.688153E-01  0.689163E-01  0.689894E-01  0.692051E-01  0.697036E-01
  0.705320E-01  0.716340E-01  0.728919E-01  0.741955E-01  0.754917E-01  0.767828E-01
  0.780799E-01  0.793219E-01  0.802692E-01  0.804289E-01  0.791465E-01  0.759424E-01
  0.709287E-01  0.649470E-01  0.592590E-01  0.550323E-01  0.529912E-01  0.533379E-01
  0.557952E-01  0.596506E-01  0.638674E-01  0.673777E-01  0.694889E-01  0.701293E-01
  0.697420E-01  0.689481E-01  0.682486E-01  0.679032E-01  0.679431E-01  0.682357E-01
  0.685791E-01  0.679808E-01  0.681466E-01  0.680667E-01  0.678996E-01  0.678909E-01
  0.682557E-01  0.690882E-01  0.703302E-01  0.718037E-01  0.732982E-01  0.746639E-01
  0.758560E-01  0.769075E-01  0.778460E-01  0.785844E-01  0.788306E-01  0.781073E-01
  0.759616E-01  0.722966E-01  0.675838E-01  0.627496E-01  0.588051E-01  0.564894E-01
  0.561040E-01  0.575013E-01  0.601391E-01  0.631999E-01  0.658318E-01  0.674629E-01
  0.679997E-01  0.677668E-01  0.672546E-01  0.668731E-01  0.668300E-01  0.671210E-01
  0.675815E-01  0.679808E-01  0.664143E-01  0.666156E-01  0.664508E-01  0.661032E-01
  0.658725E-01  0.660407E-01  0.667603E-01  0.679999E-01  0.695594E-01  0.711560E-01
  0.725471E-01  0.736218E-01  0.744089E-01  0.749989E-01  0.754295E-01  0.755860E-01
  0.751812E-01  0.738661E-01  0.714554E-01  0.681313E-01  0.644589E-01  0.611803E-01
  0.589317E-01  0.580472E-01  0.584997E-01  0.599349E-01  0.617791E-01  0.634237E-01
  0.644504E-01  0.647770E-01  0.646283E-01  0.643655E-01  0.642994E-01  0.645797E-01
  0.651668E-01  0.658656E-01  0.664143E-01  0.639464E-01  0.643169E-01  0.642222E-01
  0.638335E-01  0.634661E-01  0.634432E-01  0.639702E-01  0.650609E-01  0.665329E-01
  0.680775E-01  0.693893E-01  0.702924E-01  0.707886E-01  0.709998E-01  0.710505E-01
  0.709602E-01  0.706018E-01  0.697545E-01  0.682404E-01  0.660770E-01  0.635416E-01
  0.610884E-01  0.591703E-01  0.580765E-01  0.578548E-01  0.583215E-01  0.591345E-01
  0.599173E-01  0.604036E-01  0.605370E-01  0.604650E-01  0.604368E-01  0.606736E-01
  0.612735E-01  0.621716E-01  0.631565E-01  0.639464E-01  0.606678E-01  0.613249E-01
  0.614663E-01  0.612162E-01  0.608598E-01  0.607222E-01  0.610406E-01  0.618779E-01
  0.630982E-01  0.644150E-01  0.655075E-01  0.661578E-01  0.663323E-01  0.661543E-01
  0.657958E-01  0.653644E-01  0.648476E-01  0.641340E-01  0.630947E-01  0.616850E-01
  0.600070E-01  0.582901E-01  0.568000E-01  0.557336E-01  0.551581E-01  0.550073E-01
  0.551203E-01  0.553076E-01  0.554306E-01  0.554626E-01  0.554977E-01  0.556997E-01
  0.562176E-01  0.571098E-01  0.582998E-01  0.595792E-01  0.606678E-01  0.566951E-01
  0.577022E-01  0.582037E-01  0.582564E-01  0.580758E-01  0.579461E-01  0.581055E-01
  0.586543E-01  0.595156E-01  0.604610E-01  0.612022E-01  0.615168E-01  0.613444E-01
  0.607894E-01  0.600365E-01  0.592408E-01  0.584623E-01  0.576665E-01  0.567757E-01
  0.557358E-01  0.545655E-01  0.533590E-01  0.522440E-01  0.513260E-01  0.506545E-01
  0.502202E-01  0.499737E-01  0.498506E-01  0.498041E-01  0.498357E-01  0.500090E-01
  0.504289E-01  0.511920E-01  0.523284E-01  0.537613E-01  0.553023E-01  0.566951E-01
  0.521770E-01  0.535268E-01  0.544338E-01  0.548868E-01  0.550110E-01  0.550166E-01
  0.551098E-01  0.554069E-01  0.558854E-01  0.563910E-01  0.567016E-01  0.566280E-01
  0.561038E-01  0.552090E-01  0.541144E-01  0.529895E-01  0.519342E-01  0.509636E-01
  0.500390E-01  0.491151E-01  0.481786E-01  0.472570E-01  0.463994E-01  0.456483E-01
  0.450255E-01  0.445368E-01  0.441830E-01  0.439662E-01  0.438948E-01  0.439932E-01
  0.443107E-01  0.449162E-01  0.458703E-01  0.471846E-01  0.487892E-01  0.505257E-01
  0.521770E-01  0.473003E-01  0.489224E-01  0.501942E-01  0.510519E-01  0.515342E-01
  0.517639E-01  0.518914E-01  0.520245E-01  0.521785E-01  0.522689E-01  0.521513E-01
  0.516937E-01  0.508467E-01  0.496731E-01  0.483172E-01  0.469381E-01  0.456500E-01
  0.444978E-01  0.434713E-01  0.425387E-01  0.416773E-01  0.408861E-01  0.401767E-01
  0.395582E-01  0.390323E-01  0.386012E-01  0.382788E-01  0.380918E-01  0.380743E-01
  0.382643E-01  0.387056E-01  0.394458E-01  0.405221E-01  0.419358E-01  0.436282E-01
  0.454742E-01  0.473003E-01  0.422873E-01  0.440718E-01  0.456025E-01  0.467846E-01
  0.475922E-01  0.480700E-01  0.483048E-01  0.483775E-01  0.483196E-01  0.480979E-01
  0.476367E-01  0.468648E-01  0.457642E-01  0.443930E-01  0.428698E-01  0.413309E-01
  0.398858E-01  0.385932E-01  0.374635E-01  0.364797E-01  0.356209E-01  0.348759E-01
  0.342401E-01  0.337082E-01  0.332720E-01  0.329281E-01  0.326875E-01  0.325789E-01
  0.326419E-01  0.329187E-01  0.334488E-01  0.342666E-01  0.353944E-01  0.368286E-01
  0.385240E-01  0.403878E-01  0.422873E-01  0.373752E-01  0.392016E-01  0.408564E-01
  0.422340E-01  0.432711E-01  0.439575E-01  0.443259E-01  0.444230E-01  0.442779E-01
  0.438858E-01  0.432184E-01  0.422527E-01  0.410018E-01  0.395284E-01  0.379337E-01
  0.363299E-01  0.348120E-01  0.334405E-01  0.322386E-01  0.312038E-01  0.303232E-01
  0.295845E-01  0.289779E-01  0.284930E-01  0.281186E-01  0.278488E-01  0.276893E-01
  0.276618E-01  0.278002E-01  0.281429E-01  0.287241E-01  0.295686E-01  0.306884E-01
  0.320775E-01  0.337039E-01  0.355024E-01  0.373752E-01  0.327853E-01  0.345455E-01
  0.361955E-01  0.376328E-01  0.387802E-01  0.395982E-01  0.400829E-01  0.402507E-01
  0.401181E-01  0.396897E-01  0.389620E-01  0.379407E-01  0.366597E-01  0.351863E-01
  0.336106E-01  0.320259E-01  0.305117E-01  0.291235E-01  0.278914E-01  0.268250E-01
  0.259216E-01  0.251738E-01  0.245718E-01  0.241045E-01  0.237620E-01  0.235385E-01
  0.234365E-01  0.234694E-01  0.236616E-01  0.240429E-01  0.246408E-01  0.254726E-01
  0.265431E-01  0.278441E-01  0.293521E-01  0.310227E-01  0.327853E-01  0.286932E-01
  0.303063E-01  0.318495E-01  0.332334E-01  0.343829E-01  0.352486E-01  0.358071E-01
  0.360538E-01  0.359913E-01  0.356224E-01  0.349520E-01  0.339974E-01  0.327997E-01
  0.314243E-01  0.299504E-01  0.284561E-01  0.270077E-01  0.256554E-01  0.244328E-01
  0.233591E-01  0.224420E-01  0.216810E-01  0.210700E-01  0.206002E-01  0.202642E-01
  0.200585E-01  0.199844E-01  0.200495E-01  0.202683E-01  0.206609E-01  0.212472E-01
  0.220389E-01  0.230357E-01  0.242269E-01  0.255919E-01  0.270978E-01  0.286932E-01
  0.252129E-01  0.266312E-01  0.280015E-01  0.292533E-01  0.303238E-01  0.311658E-01
  0.317495E-01  0.320585E-01  0.320849E-01  0.318262E-01  0.312871E-01  0.304860E-01
  0.294600E-01  0.282645E-01  0.269638E-01  0.256205E-01  0.242890E-01  0.230148E-01
  0.218344E-01  0.207750E-01  0.198539E-01  0.190786E-01  0.184487E-01  0.179602E-01
  0.176096E-01  0.173964E-01  0.173229E-01  0.173929E-01  0.176134E-01  0.179950E-01
  0.185498E-01  0.192843E-01  0.201953E-01  0.212693E-01  0.224848E-01  0.238127E-01
  0.252129E-01  0.223975E-01  0.236047E-01  0.247710E-01  0.258469E-01  0.267866E-01
  0.275528E-01  0.281176E-01  0.284613E-01  0.285704E-01  0.284381E-01  0.280657E-01
  0.274668E-01  0.266690E-01  0.257117E-01  0.246399E-01  0.234978E-01  0.223271E-01
  0.211678E-01  0.200578E-01  0.190310E-01  0.181131E-01  0.173203E-01  0.166603E-01
  0.161360E-01  0.157502E-01  0.155066E-01  0.154093E-01  0.154607E-01  0.156626E-01
  0.160179E-01  0.165298E-01  0.171992E-01  0.180195E-01  0.189756E-01  0.200445E-01
  0.211968E-01  0.223975E-01  0.202544E-01  0.212567E-01  0.222160E-01  0.231008E-01
  0.238833E-01  0.245402E-01  0.250516E-01  0.254010E-01  0.255750E-01  0.255648E-01
  0.253685E-01  0.249928E-01  0.244525E-01  0.237683E-01  0.229634E-01  0.220618E-01
  0.210902E-01  0.200802E-01  0.190684E-01  0.180920E-01  0.171836E-01  0.163682E-01
  0.156636E-01  0.150835E-01  0.146392E-01  0.143410E-01  0.141959E-01  0.142069E-01
  0.143729E-01  0.146904E-01  0.151541E-01  0.157567E-01  0.164871E-01  0.173281E-01
  0.182564E-01  0.192428E-01  0.202544E-01  0.187650E-01  0.195799E-01  0.203457E-01
  0.210439E-01  0.216622E-01  0.221924E-01  0.226268E-01  0.229573E-01  0.231755E-01
  0.232744E-01  0.232502E-01  0.231021E-01  0.228312E-01  0.224388E-01  0.219257E-01
  0.212946E-01  0.205553E-01  0.197277E-01  0.188424E-01  0.179358E-01  0.170441E-01
  0.162006E-01  0.154353E-01  0.147756E-01  0.142457E-01  0.138647E-01  0.136452E-01
  0.135921E-01  0.137034E-01  0.139711E-01  0.143819E-01  0.149192E-01  0.155645E-01
  0.162972E-01  0.170936E-01  0.179263E-01  0.187650E-01  0.179019E-01  0.185489E-01
  0.191402E-01  0.196656E-01  0.201248E-01  0.205231E-01  0.208672E-01  0.211611E-01
  0.214057E-01  0.215993E-01  0.217379E-01  0.218146E-01  0.218173E-01  0.217281E-01
  0.215256E-01  0.211909E-01  0.207146E-01  0.201016E-01  0.193718E-01  0.185553E-01
  0.176889E-01  0.168128E-01  0.159702E-01  0.152051E-01  0.145581E-01  0.140612E-01
  0.137349E-01  0.135886E-01  0.136212E-01  0.138223E-01  0.141722E-01  0.146450E-01
  0.152124E-01  0.158476E-01  0.165250E-01  0.172187E-01  0.179019E-01  0.176369E-01
  0.181346E-01  0.185694E-01  0.189374E-01  0.192470E-01  0.195157E-01  0.197643E-01
  0.200111E-01  0.202694E-01  0.205452E-01  0.208373E-01  0.211343E-01  0.214129E-01
  0.216375E-01  0.217652E-01  0.217542E-01  0.215734E-01  0.212088E-01  0.206642E-01
  0.199596E-01  0.191283E-01  0.182160E-01  0.172797E-01  0.163824E-01  0.155842E-01
  0.149331E-01  0.144612E-01  0.141849E-01  0.141068E-01  0.142168E-01  0.144913E-01
  0.148959E-01  0.153920E-01  0.159431E-01  0.165182E-01  0.170909E-01  0.176369E-01
  0.179405E-01  0.183075E-01  0.186024E-01  0.188270E-01  0.189973E-01  0.191418E-01
  0.192949E-01  0.194901E-01  0.197542E-01  0.201035E-01  0.205414E-01  0.210552E-01
  0.216131E-01  0.221646E-01  0.226462E-01  0.229918E-01  0.231449E-01  0.230671E-01
  0.227413E-01  0.221723E-01  0.213870E-01  0.204355E-01  0.193892E-01  0.183322E-01
  0.173466E-01  0.165000E-01  0.158384E-01  0.153882E-01  0.151588E-01  0.151436E-01
  0.153186E-01  0.156437E-01  0.160699E-01  0.165487E-01  0.170397E-01  0.175117E-01
  0.179405E-01  0.199931E-01  0.202013E-01  0.202799E-01  0.202418E-01  0.201165E-01
  0.199454E-01  0.197743E-01  0.196464E-01  0.195975E-01  0.196525E-01  0.198223E-01
  0.201004E-01  0.204603E-01  0.208569E-01  0.212322E-01  0.215262E-01  0.216862E-01
  0.216749E-01  0.214731E-01  0.210806E-01  0.205166E-01  0.198218E-01  0.190563E-01
  0.182928E-01  0.176036E-01  0.170483E-01  0.166673E-01  0.164828E-01  0.165004E-01
  0.167098E-01  0.170832E-01  0.175756E-01  0.181317E-01  0.186952E-01  0.192172E-01
  0.196593E-01  0.199931E-01  0.214062E-01  0.215353E-01  0.215148E-01  0.213628E-01
  0.211175E-01  0.208325E-01  0.205678E-01  0.203807E-01  0.203192E-01  0.204176E-01
  0.206929E-01  0.211411E-01  0.217331E-01  0.224144E-01  0.231102E-01  0.237365E-01
  0.242136E-01  0.244768E-01  0.244834E-01  0.242164E-01  0.236879E-01  0.229427E-01
  0.220554E-01  0.211198E-01  0.202306E-01  0.194670E-01  0.188842E-01  0.185147E-01
  0.183724E-01  0.184536E-01  0.187339E-01  0.191666E-01  0.196878E-01  0.202285E-01
  0.207257E-01  0.211298E-01  0.214062E-01  0.233122E-01  0.233772E-01  0.232717E-01
  0.230179E-01  0.226630E-01  0.222729E-01  0.219216E-01  0.216803E-01  0.216092E-01
  0.217530E-01  0.221367E-01  0.227616E-01  0.236002E-01  0.245922E-01  0.256480E-01
  0.266589E-01  0.275132E-01  0.281117E-01  0.283802E-01  0.282785E-01  0.278081E-01
  0.270161E-01  0.259923E-01  0.248537E-01  0.237214E-01  0.226986E-01  0.218597E-01
  0.212507E-01  0.208955E-01  0.207976E-01  0.209378E-01  0.212710E-01  0.217293E-01
  0.222330E-01  0.227045E-01  0.230795E-01  0.233122E-01  0.256619E-01  0.256782E-01
  0.255043E-01  0.251650E-01  0.247157E-01  0.242340E-01  0.238076E-01  0.235210E-01
  0.234469E-01  0.236413E-01  0.241394E-01  0.249506E-01  0.260510E-01  0.273779E-01
  0.288295E-01  0.302732E-01  0.315632E-01  0.325598E-01  0.331502E-01  0.332640E-01
  0.328866E-01  0.320647E-01  0.309007E-01  0.295346E-01  0.281159E-01  0.267771E-01
  0.256188E-01  0.247076E-01  0.240808E-01  0.237495E-01  0.236989E-01  0.238858E-01
  0.242417E-01  0.246812E-01  0.251148E-01  0.254620E-01  0.256619E-01  0.284081E-01
  0.283902E-01  0.281666E-01  0.277618E-01  0.272372E-01  0.266810E-01  0.261931E-01
  0.258715E-01  0.258023E-01  0.260547E-01  0.266760E-01  0.276843E-01  0.290600E-01
  0.307387E-01  0.326080E-01  0.345146E-01  0.362794E-01  0.377223E-01  0.386882E-01
  0.390722E-01  0.388382E-01  0.380259E-01  0.367443E-01  0.351503E-01  0.334189E-01
  0.317146E-01  0.301722E-01  0.288889E-01  0.279241E-01  0.273008E-01  0.270072E-01
  0.270002E-01  0.272105E-01  0.275505E-01  0.279235E-01  0.282355E-01  0.284081E-01
  0.315111E-01  0.314714E-01  0.312181E-01  0.307708E-01  0.301933E-01  0.295816E-01
  0.290465E-01  0.286992E-01  0.286412E-01  0.289578E-01  0.297095E-01  0.309226E-01
  0.325792E-01  0.346104E-01  0.368933E-01  0.392554E-01  0.414904E-01  0.433839E-01
  0.447456E-01  0.454403E-01  0.454091E-01  0.446769E-01  0.433449E-01  0.415716E-01
  0.395460E-01  0.374607E-01  0.354896E-01  0.337715E-01  0.324009E-01  0.314225E-01
  0.308324E-01  0.305860E-01  0.306107E-01  0.308161E-01  0.311020E-01  0.313651E-01
  0.315111E-01  0.349306E-01  0.348799E-01  0.346174E-01  0.341530E-01  0.335483E-01
  0.329028E-01  0.323358E-01  0.319718E-01  0.319296E-01  0.323123E-01  0.331948E-01
  0.346094E-01  0.365354E-01  0.388931E-01  0.415434E-01  0.442930E-01  0.469138E-01
  0.491729E-01  0.508692E-01  0.518613E-01  0.520805E-01  0.515316E-01  0.502848E-01
  0.484677E-01  0.462540E-01  0.438478E-01  0.414600E-01  0.392807E-01  0.374541E-01
  0.360623E-01  0.351211E-01  0.345910E-01  0.343950E-01  0.344375E-01  0.346136E-01
  0.348133E-01  0.349306E-01  0.386114E-01  0.385595E-01  0.383083E-01  0.378540E-01
  0.372507E-01  0.365969E-01  0.360177E-01  0.356496E-01  0.356292E-01  0.360780E-01
  0.370835E-01  0.386805E-01  0.408390E-01  0.434585E-01  0.463696E-01  0.493477E-01
  0.521447E-01  0.545350E-01  0.563543E-01  0.575111E-01  0.579699E-01  0.577250E-01
  0.567879E-01  0.551996E-01  0.530569E-01  0.505296E-01  0.478479E-01  0.452590E-01
  0.429751E-01  0.411361E-01  0.397976E-01  0.389398E-01  0.384900E-01  0.383469E-01
  0.383975E-01  0.385243E-01  0.386114E-01  0.424732E-01  0.424301E-01  0.422098E-01
  0.417928E-01  0.412215E-01  0.405894E-01  0.400237E-01  0.396717E-01  0.396861E-01
  0.402042E-01  0.413216E-01  0.430694E-01  0.453983E-01  0.481705E-01  0.511627E-01
  0.540958E-01  0.566997E-01  0.587903E-01  0.603125E-01  0.613154E-01  0.618755E-01
  0.620175E-01  0.616804E-01  0.607516E-01  0.591514E-01  0.569208E-01  0.542519E-01
  0.514393E-01  0.487845E-01  0.465170E-01  0.447602E-01  0.435385E-01  0.428013E-01
  0.424505E-01  0.423645E-01  0.424142E-01  0.424732E-01  0.464153E-01  0.463916E-01
  0.462200E-01  0.458658E-01  0.453570E-01  0.447784E-01  0.442569E-01  0.439480E-01
  0.440180E-01  0.446155E-01  0.458377E-01  0.477021E-01  0.501258E-01  0.529094E-01
  0.557416E-01  0.582574E-01  0.601600E-01  0.613499E-01  0.619676E-01  0.623081E-01
  0.626568E-01  0.631377E-01  0.636439E-01  0.638732E-01  0.634660E-01  0.621924E-01
  0.600842E-01  0.574258E-01  0.546183E-01  0.520225E-01  0.498739E-01  0.482747E-01
  0.472227E-01  0.466413E-01  0.464077E-01  0.463794E-01  0.464153E-01  0.503314E-01
  0.503379E-01  0.502305E-01  0.499607E-01  0.495418E-01  0.490470E-01  0.486001E-01
  0.483624E-01  0.485109E-01  0.492017E-01  0.505269E-01  0.524807E-01  0.549298E-01
  0.575850E-01  0.600077E-01  0.617129E-01  0.623763E-01  0.620313E-01  0.610967E-01
  0.601967E-01  0.598928E-01  0.604721E-01  0.618480E-01  0.635730E-01  0.649777E-01
  0.654324E-01  0.646305E-01  0.627094E-01  0.601268E-01  0.574095E-01  0.549619E-01
  0.530120E-01  0.516384E-01  0.508102E-01  0.504187E-01  0.503120E-01  0.503314E-01
  0.541175E-01  0.541643E-01  0.541338E-01  0.539658E-01  0.536592E-01  0.532741E-01
  0.529273E-01  0.527828E-01  0.530260E-01  0.538182E-01  0.552441E-01  0.572690E-01
  0.596979E-01  0.621299E-01  0.639661E-01  0.645723E-01  0.635980E-01  0.612533E-01
  0.582947E-01  0.557097E-01  0.543372E-01  0.546357E-01  0.566038E-01  0.597693E-01
  0.632544E-01  0.660163E-01  0.672558E-01  0.667600E-01  0.649118E-01  0.623858E-01
  0.598061E-01  0.575831E-01  0.559155E-01  0.548434E-01  0.542911E-01  0.541076E-01
  0.541175E-01  0.576643E-01  0.577596E-01  0.578158E-01  0.577624E-01  0.575859E-01
  0.573313E-01  0.571044E-01  0.570664E-01  0.574083E-01  0.582967E-01  0.598113E-01
  0.618924E-01  0.642858E-01  0.664764E-01  0.676929E-01  0.671326E-01  0.644097E-01
  0.599254E-01  0.547956E-01  0.503607E-01  0.476831E-01  0.473372E-01  0.494193E-01
  0.535544E-01  0.588532E-01  0.640075E-01  0.677063E-01  0.692076E-01  0.686173E-01
  0.666544E-01  0.641669E-01  0.617954E-01  0.598989E-01  0.586127E-01  0.579109E-01
  0.576567E-01  0.576643E-01  0.608418E-01  0.609896E-01  0.611366E-01  0.612051E-01
  0.611716E-01  0.610654E-01  0.609755E-01  0.610530E-01  0.614890E-01  0.624555E-01
  0.640338E-01  0.661518E-01  0.685165E-01  0.705255E-01  0.712558E-01  0.697309E-01
  0.654941E-01  0.590935E-01  0.519714E-01  0.457893E-01  0.417808E-01  0.405672E-01
  0.422996E-01  0.467470E-01  0.531791E-01  0.602582E-01  0.663119E-01  0.700266E-01
  0.710512E-01  0.699815E-01  0.678215E-01  0.654510E-01  0.634176E-01  0.619705E-01
  0.611454E-01  0.608314E-01  0.608418E-01  0.634992E-01  0.636937E-01  0.639249E-01
  0.641121E-01  0.642264E-01  0.642824E-01  0.643474E-01  0.645527E-01  0.650795E-01
  0.661025E-01  0.677109E-01  0.698382E-01  0.721864E-01  0.741199E-01  0.746225E-01
  0.725635E-01  0.673549E-01  0.595714E-01  0.508759E-01  0.432078E-01  0.379671E-01
  0.358058E-01  0.368836E-01  0.410785E-01  0.478724E-01  0.560806E-01  0.639041E-01
  0.695856E-01  0.722625E-01  0.722555E-01  0.706016E-01  0.683726E-01  0.663021E-01
  0.647595E-01  0.638467E-01  0.634861E-01  0.634992E-01  0.654847E-01  0.657072E-01
  0.659991E-01  0.662840E-01  0.665346E-01  0.667563E-01  0.669925E-01  0.673440E-01
  0.679684E-01  0.690337E-01  0.706395E-01  0.727409E-01  0.750719E-01  0.770306E-01
  0.775984E-01  0.755485E-01  0.701097E-01  0.617092E-01  0.520409E-01  0.432402E-01
  0.369097E-01  0.337945E-01  0.340690E-01  0.376606E-01  0.442068E-01  0.527263E-01
  0.614830E-01  0.685002E-01  0.725075E-01  0.734942E-01  0.724074E-01  0.704167E-01
  0.683990E-01  0.668287E-01  0.658689E-01  0.654753E-01  0.654847E-01  0.666750E-01
  0.668982E-01  0.672114E-01  0.675513E-01  0.679031E-01  0.682727E-01  0.686835E-01
  0.691987E-01  0.699363E-01  0.710419E-01  0.726195E-01  0.746549E-01  0.769421E-01
  0.789739E-01  0.798298E-01  0.782889E-01  0.734015E-01  0.652889E-01  0.554275E-01
  0.459853E-01  0.387765E-01  0.347448E-01  0.341534E-01  0.369556E-01  0.428537E-01
  0.510129E-01  0.598452E-01  0.673702E-01  0.721126E-01  0.737912E-01  0.731911E-01
  0.714713E-01  0.695753E-01  0.680440E-01  0.670839E-01  0.666766E-01  0.666750E-01
  0.669927E-01  0.671944E-01  0.674857E-01  0.678247E-01  0.682206E-01  0.686926E-01
  0.692551E-01  0.699343E-01  0.707964E-01  0.719458E-01  0.734765E-01  0.754028E-01
  0.775915E-01  0.796668E-01  0.808883E-01  0.801637E-01  0.764547E-01  0.695175E-01
  0.603850E-01  0.510106E-01  0.433206E-01  0.385181E-01  0.370582E-01  0.389568E-01
  0.439266E-01  0.512014E-01  0.593500E-01  0.665410E-01  0.713089E-01  0.732332E-01
  0.729274E-01  0.714497E-01  0.697208E-01  0.682936E-01  0.673890E-01  0.670009E-01
  0.669927E-01  0.664046E-01  0.665841E-01  0.668270E-01  0.671167E-01  0.674932E-01
  0.680015E-01  0.686612E-01  0.694726E-01  0.704485E-01  0.716364E-01  0.731013E-01
  0.748739E-01  0.768892E-01  0.789100E-01  0.804141E-01  0.805390E-01  0.783028E-01
  0.731794E-01  0.656612E-01  0.572392E-01  0.497260E-01  0.445124E-01  0.422974E-01
  0.432260E-01  0.470352E-01  0.529991E-01  0.598450E-01  0.659841E-01  0.701248E-01
  0.718396E-01  0.715973E-01  0.702976E-01  0.687616E-01  0.674984E-01  0.667129E-01