 CRYSTAL
 PRIMVEC
    5.407783657    0.000009995   -0.000000000
   -1.194538345    5.087710810   -0.000000000
   -0.000000000   -0.000000000    5.591145200
 PRIMCOORD
           4           1
Si       -0.115249382    1.239523587    1.888851179
Si        2.707992462    2.151063768    0.777179633
Si        0.115261277    3.028522581    4.418987311
Si        2.699796612    0.737642019    3.265720553
BEGIN_BLOCK_DATAGRID_3D
3D_PWSCF
BEGIN_DATAGRID_3D_UNKNOWN
          55          51          55
  0.000000  0.000000  0.000000
    5.407784    0.000010   -0.000000
   -1.194538    5.087711   -0.000000
   -0.000000   -0.000000    5.591145
  0.181633E-02  0.183673E-02  0.185365E-02  0.186777E-02  0.188013E-02  0.189205E-02
  0.190488E-02  0.191979E-02  0.193758E-02  0.195876E-02  0.198371E-02  0.201282E-02
  0.204643E-02  0.208469E-02  0.212733E-02  0.217364E-02  0.222265E-02  0.227326E-02
  0.232437E-02  0.237472E-02  0.242270E-02  0.246617E-02  0.250259E-02  0.252936E-02
  0.254425E-02  0.254563E-02  0.253255E-02  0.250453E-02  0.246161E-02  0.240440E-02
  0.233436E-02  0.225391E-02  0.216616E-02  0.207460E-02  0.198265E-02  0.189341E-02
  0.180958E-02  0.173345E-02  0.166697E-02  0.161176E-02  0.156896E-02  0.153909E-02
  0.152204E-02  0.151704E-02  0.152294E-02  0.153831E-02  0.156159E-02  0.159107E-02
  0.162488E-02  0.166096E-02  0.169729E-02  0.173204E-02  0.176389E-02  0.179207E-02
  0.181633E-02  0.196225E-02  0.197314E-02  0.197812E-02  0.197807E-02  0.197438E-02
  0.196894E-02  0.196392E-02  0.196139E-02  0.196308E-02  0.197039E-02  0.198445E-02
  0.200625E-02  0.203666E-02  0.207627E-02  0.212517E-02  0.218287E-02  0.224829E-02
  0.231993E-02  0.239608E-02  0.247471E-02  0.255334E-02  0.262884E-02  0.269749E-02
  0.275541E-02  0.279906E-02  0.282564E-02  0.283320E-02  0.282061E-02  0.278750E-02
  0.273441E-02  0.266296E-02  0.257595E-02  0.247712E-02  0.237084E-02  0.226165E-02
  0.215386E-02  0.205136E-02  0.195738E-02  0.187454E-02  0.180484E-02  0.174963E-02
  0.170960E-02  0.168472E-02  0.167433E-02  0.167716E-02  0.169151E-02  0.171535E-02
  0.174639E-02  0.178213E-02  0.181997E-02  0.185728E-02  0.189168E-02  0.192130E-02
  0.194498E-02  0.196225E-02  0.215617E-02  0.215976E-02  0.215478E-02  0.214240E-02
  0.212443E-02  0.210330E-02  0.208184E-02  0.206297E-02  0.204941E-02  0.204348E-02
  0.204716E-02  0.206209E-02  0.208963E-02  0.213080E-02  0.218606E-02  0.225525E-02
  0.233744E-02  0.243101E-02  0.253378E-02  0.264303E-02  0.275538E-02  0.286662E-02
  0.297175E-02  0.306541E-02  0.314250E-02  0.319867E-02  0.323063E-02  0.323621E-02
  0.321441E-02  0.316557E-02  0.309147E-02  0.299535E-02  0.288172E-02  0.275598E-02
  0.262401E-02  0.249163E-02  0.236421E-02  0.224625E-02  0.214128E-02  0.205186E-02
  0.197965E-02  0.192548E-02  0.188942E-02  0.187083E-02  0.186844E-02  0.188037E-02
  0.190417E-02  0.193695E-02  0.197545E-02  0.201630E-02  0.205621E-02  0.209220E-02
  0.212186E-02  0.214349E-02  0.215617E-02  0.239604E-02  0.239426E-02  0.238098E-02
  0.235773E-02  0.232685E-02  0.229130E-02  0.225453E-02  0.222020E-02  0.219196E-02
  0.217318E-02  0.216675E-02  0.217510E-02  0.220018E-02  0.224351E-02  0.230604E-02
  0.238801E-02  0.248880E-02  0.260683E-02  0.273960E-02  0.288375E-02  0.303493E-02
  0.318778E-02  0.333590E-02  0.347232E-02  0.359005E-02  0.368277E-02  0.374529E-02
  0.377383E-02  0.376630E-02  0.372254E-02  0.364444E-02  0.353586E-02  0.340240E-02
  0.325090E-02  0.308895E-02  0.292421E-02  0.276376E-02  0.261363E-02  0.247854E-02
  0.236192E-02  0.226603E-02  0.219204E-02  0.214012E-02  0.210959E-02  0.209903E-02
  0.210632E-02  0.212866E-02  0.216260E-02  0.220414E-02  0.224899E-02  0.229298E-02
  0.233237E-02  0.236409E-02  0.238581E-02  0.239604E-02  0.267923E-02  0.267394E-02
  0.265402E-02  0.262128E-02  0.257865E-02  0.252973E-02  0.247858E-02  0.242957E-02
  0.238726E-02  0.235601E-02  0.233975E-02  0.234181E-02  0.236496E-02  0.241143E-02
  0.248280E-02  0.257986E-02  0.270235E-02  0.284889E-02  0.301681E-02  0.320220E-02
  0.339980E-02  0.360295E-02  0.380372E-02  0.399319E-02  0.416216E-02  0.430177E-02
  0.440423E-02  0.446338E-02  0.447529E-02  0.443873E-02  0.435551E-02  0.423030E-02
  0.407029E-02  0.388444E-02  0.368270E-02  0.347506E-02  0.327073E-02  0.307752E-02
  0.290164E-02  0.274771E-02  0.261893E-02  0.251710E-02  0.244269E-02  0.239497E-02
  0.237216E-02  0.237168E-02  0.239023E-02  0.242381E-02  0.246772E-02  0.251680E-02
  0.256586E-02  0.261017E-02  0.264575E-02  0.266949E-02  0.267923E-02  0.300233E-02
  0.299552E-02  0.297086E-02  0.293028E-02  0.287715E-02  0.281578E-02  0.275099E-02
  0.268799E-02  0.263222E-02  0.258903E-02  0.256338E-02  0.255965E-02  0.258167E-02
  0.263269E-02  0.271515E-02  0.283047E-02  0.297891E-02  0.315938E-02  0.336939E-02
  0.360477E-02  0.385950E-02  0.412553E-02  0.439296E-02  0.465045E-02  0.488588E-02
  0.508712E-02  0.524293E-02  0.534384E-02  0.538317E-02  0.535793E-02  0.526938E-02
  0.512304E-02  0.492812E-02  0.469647E-02  0.444136E-02  0.417603E-02  0.391256E-02
  0.366121E-02  0.343014E-02  0.322552E-02  0.305173E-02  0.291137E-02  0.280537E-02
  0.273298E-02  0.269203E-02  0.267925E-02  0.269058E-02  0.272123E-02  0.276579E-02
  0.281830E-02  0.287258E-02  0.292274E-02  0.296365E-02  0.299118E-02  0.300233E-02
  0.336157E-02  0.335531E-02  0.332809E-02  0.328170E-02  0.321970E-02  0.314698E-02
  0.306928E-02  0.299288E-02  0.292425E-02  0.286974E-02  0.283534E-02  0.282661E-02
  0.284869E-02  0.290613E-02  0.300250E-02  0.314005E-02  0.331970E-02  0.354101E-02
  0.380209E-02  0.409905E-02  0.442535E-02  0.477146E-02  0.512498E-02  0.547122E-02
  0.579413E-02  0.607723E-02  0.630473E-02  0.646279E-02  0.654102E-02  0.653385E-02
  0.644143E-02  0.626989E-02  0.603065E-02  0.573913E-02  0.541288E-02  0.506965E-02
  0.472579E-02  0.439522E-02  0.408907E-02  0.381570E-02  0.358089E-02  0.338807E-02
  0.323845E-02  0.313122E-02  0.306379E-02  0.303214E-02  0.303122E-02  0.305522E-02
  0.309776E-02  0.315199E-02  0.321075E-02  0.326701E-02  0.331428E-02  0.334714E-02
  0.336157E-02  0.375335E-02  0.374970E-02  0.372220E-02  0.367230E-02  0.360346E-02
  0.352090E-02  0.343128E-02  0.334215E-02  0.326127E-02  0.319613E-02  0.315384E-02
  0.314124E-02  0.316495E-02  0.323108E-02  0.334457E-02  0.350889E-02  0.372602E-02
  0.399670E-02  0.432020E-02  0.469342E-02  0.510966E-02  0.555778E-02  0.602228E-02
  0.648417E-02  0.692219E-02  0.731406E-02  0.763793E-02  0.787413E-02  0.800730E-02
  0.802837E-02  0.793580E-02  0.773601E-02  0.744264E-02  0.707505E-02  0.665600E-02
  0.620923E-02  0.575709E-02  0.531907E-02  0.491087E-02  0.454418E-02  0.422679E-02
  0.396298E-02  0.375401E-02  0.359865E-02  0.349362E-02  0.343405E-02  0.341385E-02
  0.342599E-02  0.346284E-02  0.351634E-02  0.357821E-02  0.364020E-02  0.369441E-02
  0.373389E-02  0.375335E-02  0.417463E-02  0.417565E-02  0.415010E-02  0.409904E-02
  0.402563E-02  0.393516E-02  0.383502E-02  0.373410E-02  0.364168E-02  0.356667E-02
  0.351749E-02  0.350239E-02  0.352959E-02  0.360686E-02  0.374089E-02  0.393687E-02
  0.419860E-02  0.452871E-02  0.492826E-02  0.539539E-02  0.592344E-02  0.649964E-02
  0.710504E-02  0.771554E-02  0.830346E-02  0.883905E-02  0.929231E-02  0.963551E-02
  0.984631E-02  0.991069E-02  0.982471E-02  0.959482E-02  0.923700E-02  0.877496E-02
  0.823769E-02  0.765648E-02  0.706182E-02  0.648094E-02  0.593613E-02  0.544397E-02
  0.501529E-02  0.465570E-02  0.436652E-02  0.414573E-02  0.398889E-02  0.388982E-02
  0.384110E-02  0.383434E-02  0.386046E-02  0.390990E-02  0.397293E-02  0.403985E-02
  0.410122E-02  0.414842E-02  0.417463E-02  0.462303E-02  0.463100E-02  0.460982E-02
  0.456002E-02  0.448443E-02  0.438825E-02  0.427938E-02  0.416790E-02  0.406474E-02
  0.398056E-02  0.392538E-02  0.390906E-02  0.394150E-02  0.403230E-02  0.419022E-02
  0.442288E-02  0.473684E-02  0.513751E-02  0.562837E-02  0.620915E-02  0.687350E-02
  0.760721E-02  0.838788E-02  0.918592E-02  0.996618E-02  0.106896E-01  0.113155E-01
  0.118050E-01  0.121255E-01  0.122556E-01  0.121876E-01  0.119277E-01  0.114945E-01
  0.109170E-01  0.102317E-01  0.947943E-02  0.870140E-02  0.793514E-02  0.721175E-02
  0.655437E-02  0.597805E-02  0.549060E-02  0.509389E-02  0.478522E-02  0.455854E-02
  0.440559E-02  0.431691E-02  0.428230E-02  0.429100E-02  0.433178E-02  0.439317E-02
  0.446373E-02  0.453224E-02  0.458823E-02  0.462303E-02  0.509700E-02  0.511467E-02
  0.510078E-02  0.505507E-02  0.497995E-02  0.488055E-02  0.476504E-02  0.464450E-02
  0.453147E-02  0.443855E-02  0.437781E-02  0.436096E-02  0.439974E-02  0.450579E-02
  0.469042E-02  0.496447E-02  0.533821E-02  0.582074E-02  0.641857E-02  0.713348E-02
  0.795995E-02  0.888300E-02  0.987731E-02  0.109076E-01  0.119302E-01  0.128947E-01
  0.137469E-01  0.144328E-01  0.149060E-01  0.151340E-01  0.151028E-01  0.148173E-01
  0.142991E-01  0.135835E-01  0.127164E-01  0.117508E-01  0.107414E-01  0.973949E-02
  0.878776E-02  0.791788E-02  0.715029E-02  0.649580E-02  0.595751E-02  0.553252E-02
  0.521320E-02  0.498866E-02  0.484630E-02  0.477312E-02  0.475613E-02  0.478221E-02
  0.483809E-02  0.491033E-02  0.498566E-02  0.505148E-02  0.509700E-02  0.559628E-02
  0.562690E-02  0.562394E-02  0.558587E-02  0.551448E-02  0.541474E-02  0.529505E-02
  0.516718E-02  0.504517E-02  0.494369E-02  0.487712E-02  0.485943E-02  0.490446E-02
  0.502622E-02  0.523912E-02  0.555808E-02  0.599801E-02  0.657248E-02  0.729169E-02
  0.816018E-02  0.917426E-02  0.103195E-01  0.115685E-01  0.128803E-01  0.142010E-01
  0.154666E-01  0.166058E-01  0.175466E-01  0.182247E-01  0.185926E-01  0.186266E-01
  0.183282E-01  0.177212E-01  0.168481E-01  0.157657E-01  0.145414E-01  0.132473E-01
  0.119520E-01  0.107139E-01  0.957621E-02  0.856666E-02  0.769969E-02  0.697990E-02
  0.640454E-02  0.596479E-02  0.564699E-02  0.543465E-02  0.531063E-02  0.525856E-02
  0.526291E-02  0.530843E-02  0.537967E-02  0.546111E-02  0.553771E-02  0.559628E-02
  0.612266E-02  0.616986E-02  0.618214E-02  0.615608E-02  0.609245E-02  0.599582E-02
  0.587470E-02  0.574143E-02  0.561130E-02  0.550108E-02  0.542771E-02  0.540774E-02
  0.545747E-02  0.559367E-02  0.583447E-02  0.619960E-02  0.670945E-02  0.738283E-02
  0.823445E-02  0.927266E-02  0.104972E-01  0.118957E-01  0.134401E-01  0.150833E-01
  0.167595E-01  0.183874E-01  0.198759E-01  0.211317E-01  0.220702E-01  0.226262E-01
  0.227631E-01  0.224759E-01  0.217885E-01  0.207494E-01  0.194268E-01  0.179040E-01
  0.162726E-01  0.146231E-01  0.130342E-01  0.115660E-01  0.102569E-01  0.912642E-02
  0.818077E-02  0.741694E-02  0.682490E-02  0.638848E-02  0.608704E-02  0.589835E-02
  0.580123E-02  0.577655E-02  0.580657E-02  0.587379E-02  0.596035E-02  0.604863E-02
  0.612266E-02  0.668090E-02  0.674880E-02  0.678127E-02  0.677240E-02  0.672126E-02
  0.663165E-02  0.651201E-02  0.637511E-02  0.623737E-02  0.611762E-02  0.603553E-02
  0.601055E-02  0.606179E-02  0.620917E-02  0.647494E-02  0.688425E-02  0.746358E-02
  0.823775E-02  0.922697E-02  0.104449E-01  0.118964E-01  0.135734E-01  0.154481E-01
  0.174672E-01  0.195505E-01  0.215962E-01  0.234890E-01  0.251126E-01  0.263610E-01
  0.271516E-01  0.274340E-01  0.271939E-01  0.264518E-01  0.252584E-01  0.236907E-01
  0.218465E-01  0.198380E-01  0.177799E-01  0.157772E-01  0.139126E-01  0.122413E-01
  0.107919E-01  0.957304E-02  0.858058E-02  0.780241E-02  0.721965E-02  0.680775E-02
  0.653909E-02  0.638653E-02  0.632586E-02  0.633579E-02  0.639635E-02  0.648737E-02
  0.658854E-02  0.668090E-02  0.727913E-02  0.737302E-02  0.743169E-02  0.744615E-02
  0.741302E-02  0.733475E-02  0.721937E-02  0.708002E-02  0.693425E-02  0.680290E-02
  0.670856E-02  0.667390E-02  0.672122E-02  0.687389E-02  0.715858E-02  0.760600E-02
  0.824907E-02  0.911919E-02  0.102432E-01  0.116416E-01  0.133264E-01  0.152956E-01
  0.175228E-01  0.199484E-01  0.224762E-01  0.249799E-01  0.273163E-01  0.293426E-01
  0.309328E-01  0.319902E-01  0.324552E-01  0.323055E-01  0.315542E-01  0.302473E-01
  0.284622E-01  0.263055E-01  0.239069E-01  0.214066E-01  0.189398E-01  0.166193E-01
  0.145248E-01  0.127001E-01  0.111596E-01  0.989830E-02  0.890057E-02  0.814374E-02
  0.759928E-02  0.723443E-02  0.701577E-02  0.691279E-02  0.689926E-02  0.695189E-02
  0.704796E-02  0.716442E-02  0.727913E-02  0.792851E-02  0.805577E-02  0.814855E-02
  0.819401E-02  0.818560E-02  0.812359E-02  0.801522E-02  0.787389E-02  0.771831E-02
  0.757143E-02  0.745887E-02  0.740690E-02  0.744149E-02  0.758985E-02  0.788312E-02
  0.835759E-02  0.905250E-02  0.100061E-01  0.112525E-01  0.128205E-01  0.147310E-01
  0.169893E-01  0.195719E-01  0.224132E-01  0.254001E-01  0.283786E-01  0.311723E-01
  0.336083E-01  0.355415E-01  0.368692E-01  0.375334E-01  0.375126E-01  0.368131E-01
  0.354668E-01  0.335366E-01  0.311233E-01  0.283649E-01  0.254249E-01  0.224717E-01
  0.196549E-01  0.170875E-01  0.148371E-01  0.129296E-01  0.113619E-01  0.101140E-01
  0.915795E-02  0.846040E-02  0.798374E-02  0.768864E-02  0.753790E-02  0.749922E-02
  0.754481E-02  0.764879E-02  0.778520E-02  0.792851E-02  0.864127E-02  0.881216E-02
  0.894963E-02  0.903616E-02  0.906105E-02  0.902161E-02  0.892361E-02  0.878053E-02
  0.861224E-02  0.844392E-02  0.830441E-02  0.822393E-02  0.823267E-02  0.836212E-02
  0.864812E-02  0.913235E-02  0.986017E-02  0.108764E-01  0.122228E-01  0.139367E-01
  0.160489E-01  0.185731E-01  0.214902E-01  0.247299E-01  0.281622E-01  0.316029E-01
  0.348373E-01  0.376568E-01  0.398970E-01  0.414588E-01  0.423034E-01  0.424281E-01
  0.418411E-01  0.405541E-01  0.385966E-01  0.360391E-01  0.330085E-01  0.296821E-01
  0.262620E-01  0.229414E-01  0.198751E-01  0.171639E-01  0.148538E-01  0.129484E-01
  0.114253E-01  0.102501E-01  0.938314E-02  0.878190E-02  0.840181E-02  0.819948E-02
  0.813607E-02  0.817824E-02  0.829603E-02  0.846012E-02  0.864127E-02  0.942752E-02
  0.965550E-02  0.985135E-02  0.999197E-02  0.100615E-01  0.100532E-01  0.997057E-02
  0.982668E-02  0.964255E-02  0.944562E-02  0.926814E-02  0.914465E-02  0.911009E-02
  0.920076E-02  0.945742E-02  0.992712E-02  0.106610E-01  0.117103E-01  0.131235E-01
  0.149466E-01  0.172196E-01  0.199657E-01  0.231712E-01  0.267639E-01  0.305987E-01
  0.344607E-01  0.380924E-01  0.412432E-01  0.437264E-01  0.454530E-01  0.464216E-01
  0.466723E-01  0.462340E-01  0.451024E-01  0.432583E-01  0.407137E-01  0.375547E-01
  0.339522E-01  0.301363E-01  0.263472E-01  0.227903E-01  0.196090E-01  0.168785E-01
  0.146165E-01  0.128021E-01  0.113955E-01  0.103497E-01  0.961660E-02  0.914688E-02
  0.889203E-02  0.880703E-02  0.885243E-02  0.899324E-02  0.919605E-02  0.942752E-02
  0.102919E-01  0.105934E-01  0.108644E-01  0.110753E-01  0.112040E-01  0.112385E-01
  0.111788E-01  0.110369E-01  0.108346E-01  0.106016E-01  0.103739E-01  0.101906E-01
  0.100921E-01  0.101197E-01  0.103195E-01  0.107437E-01  0.114490E-01  0.124924E-01
  0.139289E-01  0.158113E-01  0.181885E-01  0.210924E-01  0.245168E-01  0.283906E-01
  0.325585E-01  0.367786E-01  0.407499E-01  0.441743E-01  0.468362E-01  0.486550E-01
  0.496765E-01  0.500030E-01  0.497084E-01  0.487887E-01  0.471760E-01  0.448042E-01
  0.416876E-01  0.379620E-01  0.338685E-01  0.296917E-01  0.256928E-01  0.220656E-01
  0.189228E-01  0.163040E-01  0.141961E-01  0.125563E-01  0.113313E-01  0.104666E-01
  0.990857E-02  0.960460E-02  0.950454E-02  0.956292E-02  0.973904E-02  0.999468E-02
  0.102919E-01  0.112310E-01  0.116249E-01  0.119905E-01  0.122909E-01  0.124966E-01
  0.125890E-01  0.125631E-01  0.124286E-01  0.122074E-01  0.119316E-01  0.116411E-01
  0.113802E-01  0.111950E-01  0.111327E-01  0.112443E-01  0.115871E-01  0.122229E-01
  0.132139E-01  0.146204E-01  0.165012E-01  0.189116E-01  0.218923E-01  0.254451E-01
  0.295051E-01  0.339145E-01  0.384136E-01  0.426647E-01  0.463220E-01  0.491316E-01
  0.510092E-01  0.520394E-01  0.523916E-01  0.522016E-01  0.514899E-01  0.501583E-01
  0.480650E-01  0.451352E-01  0.414423E-01  0.372137E-01  0.327650E-01  0.284106E-01
  0.243977E-01  0.208817E-01  0.179304E-01  0.155445E-01  0.136835E-01  0.122895E-01
  0.113023E-01  0.106642E-01  0.103197E-01  0.102148E-01  0.102987E-01  0.105250E-01
  0.108501E-01  0.112310E-01  0.122311E-01  0.127385E-01  0.132205E-01  0.136323E-01
  0.139359E-01  0.141045E-01  0.141266E-01  0.140078E-01  0.137695E-01  0.134457E-01
  0.130804E-01  0.127238E-01  0.124287E-01  0.122484E-01  0.122389E-01  0.124621E-01
  0.129841E-01  0.138714E-01  0.151885E-01  0.169983E-01  0.193611E-01  0.223245E-01
  0.258998E-01  0.300326E-01  0.345724E-01  0.392570E-01  0.437281E-01  0.476008E-01
  0.505770E-01  0.525465E-01  0.536061E-01  0.539738E-01  0.538479E-01  0.532928E-01
  0.522105E-01  0.504095E-01  0.477345E-01  0.441847E-01  0.399509E-01  0.353583E-01
  0.307607E-01  0.264538E-01  0.226347E-01  0.194022E-01  0.167753E-01  0.147205E-01
  0.131792E-01  0.120876E-01  0.113849E-01  0.110134E-01  0.109170E-01  0.110410E-01
  0.113338E-01  0.117466E-01  0.122311E-01  0.132663E-01  0.139096E-01  0.145317E-01
  0.150789E-01  0.155037E-01  0.157697E-01  0.158572E-01  0.157661E-01  0.155155E-01
  0.151409E-01  0.146906E-01  0.142213E-01  0.137933E-01  0.134671E-01  0.133040E-01
  0.133697E-01  0.137336E-01  0.144653E-01  0.156322E-01  0.172992E-01  0.195295E-01
  0.223758E-01  0.258590E-01  0.299386E-01  0.344816E-01  0.392407E-01  0.438605E-01
  0.479369E-01  0.511299E-01  0.532823E-01  0.544636E-01  0.549012E-01  0.548341E-01
  0.543760E-01  0.534579E-01  0.518787E-01  0.494358E-01  0.460663E-01  0.419145E-01
  0.372930E-01  0.325737E-01  0.280853E-01  0.240591E-01  0.206216E-01  0.178116E-01
  0.156068E-01  0.139518E-01  0.127823E-01  0.120363E-01  0.116556E-01  0.115833E-01
  0.117627E-01  0.121387E-01  0.126577E-01  0.132663E-01  0.142975E-01  0.150985E-01
  0.158844E-01  0.165919E-01  0.171625E-01  0.175492E-01  0.177224E-01  0.176746E-01
  0.174209E-01  0.169970E-01  0.164550E-01  0.158588E-01  0.152772E-01  0.147790E-01
  0.144318E-01  0.143047E-01  0.144694E-01  0.149976E-01  0.159574E-01  0.174142E-01
  0.194311E-01  0.220634E-01  0.253403E-01  0.292373E-01  0.336458E-01  0.383488E-01
  0.430186E-01  0.472591E-01  0.507051E-01  0.531419E-01  0.545749E-01  0.551909E-01
  0.552300E-01  0.548407E-01  0.539997E-01  0.525353E-01  0.502428E-01  0.470288E-01
  0.429986E-01  0.384379E-01  0.337132E-01  0.291649E-01  0.250436E-01  0.214962E-01
  0.185790E-01  0.162821E-01  0.145576E-01  0.133441E-01  0.125810E-01  0.122115E-01
  0.121797E-01  0.124292E-01  0.129033E-01  0.135454E-01  0.142975E-01  0.152724E-01
  0.162493E-01  0.172201E-01  0.181107E-01  0.188509E-01  0.193819E-01  0.196630E-01
  0.196776E-01  0.194351E-01  0.189695E-01  0.183358E-01  0.176044E-01  0.168537E-01
  0.161621E-01  0.156045E-01  0.152544E-01  0.151852E-01  0.154691E-01  0.161741E-01
  0.173634E-01  0.190976E-01  0.214312E-01  0.243990E-01  0.279918E-01  0.321283E-01
  0.366309E-01  0.412181E-01  0.455295E-01  0.492010E-01  0.519704E-01  0.537594E-01
  0.546721E-01  0.549023E-01  0.546032E-01  0.537952E-01  0.523615E-01  0.501366E-01
  0.470349E-01  0.431416E-01  0.387118E-01  0.340882E-01  0.296009E-01  0.255028E-01
  0.219505E-01  0.190128E-01  0.166919E-01  0.149495E-01  0.137310E-01  0.129801E-01
  0.126435E-01  0.126684E-01  0.130006E-01  0.135842E-01  0.143618E-01  0.152724E-01
  0.161306E-01  0.172938E-01  0.184632E-01  0.195537E-01  0.204828E-01  0.211791E-01
  0.215901E-01  0.216886E-01  0.214767E-01  0.209845E-01  0.202678E-01  0.194027E-01
  0.184767E-01  0.175786E-01  0.167926E-01  0.161973E-01  0.158681E-01  0.158775E-01
  0.162918E-01  0.171712E-01  0.185709E-01  0.205413E-01  0.231188E-01  0.263061E-01
  0.300477E-01  0.342074E-01  0.385577E-01  0.427928E-01  0.465777E-01  0.496285E-01
  0.517911E-01  0.530679E-01  0.535698E-01  0.534184E-01  0.526591E-01  0.512360E-01
  0.490471E-01  0.460444E-01  0.423136E-01  0.380829E-01  0.336602E-01  0.293491E-01
  0.253899E-01  0.219381E-01  0.190692E-01  0.167956E-01  0.150901E-01  0.139073E-01
  0.131983E-01  0.129157E-01  0.130115E-01  0.134355E-01  0.141349E-01  0.150540E-01
  0.161306E-01  0.168090E-01  0.181575E-01  0.195279E-01  0.208250E-01  0.219539E-01
  0.228303E-01  0.233894E-01  0.235934E-01  0.234349E-01  0.229383E-01  0.221578E-01
  0.211725E-01  0.200778E-01  0.189732E-01  0.179526E-01  0.171015E-01  0.164983E-01
  0.162154E-01  0.163178E-01  0.168615E-01  0.178956E-01  0.194633E-01  0.215980E-01
  0.243094E-01  0.275628E-01  0.312590E-01  0.352231E-01  0.392100E-01  0.429325E-01
  0.461155E-01  0.485580E-01  0.501724E-01  0.509745E-01  0.510276E-01  0.503758E-01
  0.490109E-01  0.468968E-01  0.440351E-01  0.405248E-01  0.365723E-01  0.324474E-01
  0.284187E-01  0.247040E-01  0.214500E-01  0.187335E-01  0.165751E-01  0.149585E-01
  0.138496E-01  0.132097E-01  0.129990E-01  0.131760E-01  0.136961E-01  0.145113E-01
  0.155692E-01  0.168090E-01  0.172490E-01  0.187688E-01  0.203289E-01  0.218259E-01
  0.231536E-01  0.242155E-01  0.249347E-01  0.252622E-01  0.251807E-01  0.247068E-01
  0.238903E-01  0.228107E-01  0.215688E-01  0.202729E-01  0.190270E-01  0.179245E-01
  0.170478E-01  0.164700E-01  0.162549E-01  0.164550E-01  0.171132E-01  0.182644E-01
  0.199357E-01  0.221376E-01  0.248492E-01  0.280008E-01  0.314627E-01  0.350456E-01
  0.385170E-01  0.416328E-01  0.441800E-01  0.460133E-01  0.470689E-01  0.473450E-01
  0.468635E-01  0.456403E-01  0.436891E-01  0.410549E-01  0.378505E-01  0.342635E-01
  0.305269E-01  0.268722E-01  0.234909E-01  0.205165E-01  0.180235E-01  0.160382E-01
  0.145549E-01  0.135521E-01  0.130024E-01  0.128758E-01  0.131386E-01  0.137526E-01
  0.146757E-01  0.158603E-01  0.172490E-01  0.174029E-01  0.190667E-01  0.207910E-01
  0.224670E-01  0.239798E-01  0.252215E-01  0.261040E-01  0.265671E-01  0.265835E-01
  0.261605E-01  0.253416E-01  0.242035E-01  0.228490E-01  0.213930E-01  0.199479E-01
  0.186151E-01  0.174819E-01  0.166232E-01  0.161019E-01  0.159681E-01  0.162594E-01
  0.170037E-01  0.182197E-01  0.199146E-01  0.220737E-01  0.246475E-01  0.275416E-01
  0.306137E-01  0.336826E-01  0.365454E-01  0.390032E-01  0.408899E-01  0.420931E-01
  0.425589E-01  0.422789E-01  0.412717E-01  0.395762E-01  0.372629E-01  0.344500E-01
  0.313063E-01  0.280305E-01  0.248188E-01  0.218365E-01  0.192019E-01  0.169853E-01
  0.152169E-01  0.139006E-01  0.130270E-01  0.125811E-01  0.125433E-01  0.128888E-01
  0.135866E-01  0.146012E-01  0.158909E-01  0.174029E-01  0.172399E-01  0.190093E-01
  0.208595E-01  0.226805E-01  0.243516E-01  0.257561E-01  0.267953E-01  0.273986E-01
  0.275282E-01  0.271822E-01  0.263957E-01  0.252405E-01  0.238179E-01  0.222459E-01
  0.206429E-01  0.191171E-01  0.177611E-01  0.166523E-01  0.158534E-01  0.154123E-01
  0.153636E-01  0.157292E-01  0.165210E-01  0.177405E-01  0.193734E-01  0.213821E-01
  0.236968E-01  0.262123E-01  0.287910E-01  0.312720E-01  0.334850E-01  0.352698E-01
  0.364969E-01  0.370825E-01  0.369922E-01  0.362347E-01  0.348532E-01  0.329238E-01
  0.305593E-01  0.279068E-01  0.251332E-01  0.224028E-01  0.198556E-01  0.175951E-01
  0.156861E-01  0.141615E-01  0.130331E-01  0.123024E-01  0.119657E-01  0.120139E-01
  0.124312E-01  0.131948E-01  0.142762E-01  0.156402E-01  0.172399E-01  0.167522E-01
  0.185802E-01  0.205082E-01  0.224289E-01  0.242200E-01  0.257587E-01  0.269378E-01
  0.276768E-01  0.279280E-01  0.276798E-01  0.269584E-01  0.258283E-01  0.243871E-01
  0.227520E-01  0.210441E-01  0.193762E-01  0.178456E-01  0.165325E-01  0.154999E-01
  0.147943E-01  0.144473E-01  0.144774E-01  0.148918E-01  0.156868E-01  0.168464E-01
  0.183379E-01  0.201072E-01  0.220761E-01  0.241420E-01  0.261816E-01  0.280579E-01
  0.296319E-01  0.307786E-01  0.314049E-01  0.314613E-01  0.309431E-01  0.298850E-01
  0.283553E-01  0.264520E-01  0.242983E-01  0.220313E-01  0.197858E-01  0.176789E-01
  0.157995E-01  0.142066E-01  0.129346E-01  0.120017E-01  0.114178E-01  0.111883E-01
  0.113132E-01  0.117853E-01  0.125903E-01  0.137073E-01  0.151080E-01  0.167522E-01
  0.159587E-01  0.177936E-01  0.197450E-01  0.217117E-01  0.235743E-01  0.252080E-01
  0.264996E-01  0.273600E-01  0.277326E-01  0.275961E-01  0.269675E-01  0.259030E-01
  0.244932E-01  0.228516E-01  0.210985E-01  0.193483E-01  0.177017E-01  0.162413E-01
  0.150309E-01  0.141156E-01  0.135246E-01  0.132735E-01  0.133671E-01  0.137992E-01
  0.145521E-01  0.155954E-01  0.168840E-01  0.183575E-01  0.199393E-01  0.215373E-01
  0.230464E-01  0.243541E-01  0.253522E-01  0.259527E-01  0.261009E-01  0.257816E-01
  0.250169E-01  0.238601E-01  0.223900E-01  0.207049E-01  0.189143E-01  0.171264E-01
  0.154368E-01  0.139210E-01  0.126322E-01  0.116054E-01  0.108628E-01  0.104202E-01
  0.102892E-01  0.104766E-01  0.109830E-01  0.118019E-01  0.129202E-01  0.143169E-01
  0.159587E-01  0.149037E-01  0.166935E-01  0.186118E-01  0.205666E-01  0.224451E-01
  0.241255E-01  0.254922E-01  0.264501E-01  0.269347E-01  0.269159E-01  0.264015E-01
  0.254379E-01  0.241069E-01  0.225147E-01  0.207777E-01  0.190088E-01  0.173096E-01
  0.157646E-01  0.144383E-01  0.133749E-01  0.126013E-01  0.121308E-01  0.119664E-01
  0.121015E-01  0.125188E-01  0.131902E-01  0.140767E-01  0.151290E-01  0.162883E-01
  0.174859E-01  0.186434E-01  0.196744E-01  0.204924E-01  0.210217E-01  0.212105E-01
  0.210377E-01  0.205138E-01  0.196761E-01  0.185832E-01  0.173100E-01  0.159406E-01
  0.145597E-01  0.132440E-01  0.120564E-01  0.110445E-01  0.102424E-01  0.967463E-02
  0.935993E-02  0.931335E-02  0.954631E-02  0.100653E-01  0.108709E-01  0.119572E-01
  0.133102E-01  0.149037E-01  0.136506E-01  0.153480E-01  0.171801E-01  0.190654E-01
  0.209019E-01  0.225751E-01  0.239720E-01  0.249950E-01  0.255735E-01  0.256699E-01
  0.252829E-01  0.244486E-01  0.232377E-01  0.217464E-01  0.200834E-01  0.183575E-01
  0.166688E-01  0.151017E-01  0.137214E-01  0.125718E-01  0.116782E-01  0.110520E-01
  0.106946E-01  0.105995E-01  0.107515E-01  0.111259E-01  0.116891E-01  0.124001E-01
  0.132119E-01  0.140722E-01  0.149223E-01  0.156982E-01  0.163338E-01  0.167690E-01
  0.169592E-01  0.168822E-01  0.165401E-01  0.159560E-01  0.151709E-01  0.142387E-01
  0.132219E-01  0.121850E-01  0.111884E-01  0.102837E-01  0.951263E-02  0.890706E-02
  0.849163E-02  0.828585E-02  0.830615E-02  0.856646E-02  0.907759E-02  0.984578E-02
  0.108713E-01  0.121462E-01  0.136506E-01  0.122730E-01  0.138394E-01  0.155402E-01
  0.173053E-01  0.190454E-01  0.206578E-01  0.220366E-01  0.230864E-01  0.237333E-01
  0.239337E-01  0.236779E-01  0.229914E-01  0.219324E-01  0.205845E-01  0.190460E-01
  0.174186E-01  0.157978E-01  0.142665E-01  0.128893E-01  0.117105E-01  0.107549E-01
  0.100329E-01  0.954486E-02  0.928424E-02  0.923761E-02  0.938426E-02  0.969640E-02
  0.101404E-01  0.106782E-01  0.112687E-01  0.118674E-01  0.124267E-01  0.128977E-01
  0.132348E-01  0.134023E-01  0.133799E-01  0.131647E-01  0.127699E-01  0.122219E-01
  0.115577E-01  0.108221E-01  0.100634E-01  0.932828E-02  0.865834E-02  0.808867E-02
  0.764786E-02  0.735888E-02  0.724050E-02  0.730909E-02  0.757965E-02  0.806563E-02
  0.877737E-02  0.971979E-02  0.108898E-01  0.122730E-01  0.108448E-01  0.122532E-01
  0.137897E-01  0.153956E-01  0.169950E-01  0.184994E-01  0.198145E-01  0.208510E-01
  0.215356E-01  0.218206E-01  0.216891E-01  0.211566E-01  0.202684E-01  0.190941E-01
  0.177192E-01  0.162353E-01  0.147311E-01  0.132853E-01  0.119608E-01  0.108018E-01
  0.983387E-02  0.906793E-02  0.850435E-02  0.813644E-02  0.795197E-02  0.793342E-02
  0.805825E-02  0.829964E-02  0.862752E-02  0.900944E-02  0.941109E-02  0.979669E-02
  0.101301E-01  0.103775E-01  0.105114E-01  0.105148E-01  0.103827E-01  0.101215E-01
  0.974745E-02  0.928497E-02  0.876526E-02  0.822351E-02  0.769529E-02  0.721336E-02
  0.680623E-02  0.649808E-02  0.630918E-02  0.625678E-02  0.635638E-02  0.662297E-02
  0.707110E-02  0.771337E-02  0.855783E-02  0.960501E-02  0.108448E-01  0.943292E-02
  0.106684E-01  0.120215E-01  0.134438E-01  0.148728E-01  0.162344E-01  0.174481E-01
  0.184343E-01  0.191241E-01  0.194682E-01  0.194443E-01  0.190590E-01  0.183457E-01
  0.173600E-01  0.161731E-01  0.148645E-01  0.135136E-01  0.121928E-01  0.109614E-01
  0.986253E-02  0.892295E-02  0.815514E-02  0.756077E-02  0.713391E-02  0.686328E-02
  0.673353E-02  0.672614E-02  0.681999E-02  0.699181E-02  0.721655E-02  0.746789E-02
  0.771880E-02  0.794250E-02  0.811395E-02  0.821239E-02  0.822392E-02  0.814308E-02
  0.797243E-02  0.772148E-02  0.740581E-02  0.704658E-02  0.666898E-02  0.629947E-02
  0.596314E-02  0.568229E-02  0.547649E-02  0.536296E-02  0.535712E-02  0.547328E-02
  0.572558E-02  0.612818E-02  0.669418E-02  0.743318E-02  0.834825E-02  0.943292E-02
  0.809180E-02  0.915048E-02  0.103142E-01  0.115436E-01  0.127878E-01  0.139866E-01
  0.150733E-01  0.159801E-01  0.166449E-01  0.170203E-01  0.170806E-01  0.168252E-01
  0.162772E-01  0.154794E-01  0.144891E-01  0.133724E-01  0.121979E-01  0.110294E-01
  0.992094E-02  0.891350E-02  0.803415E-02  0.729721E-02  0.670647E-02  0.625777E-02
  0.594134E-02  0.574379E-02  0.564956E-02  0.564179E-02  0.570253E-02  0.581275E-02
  0.595256E-02  0.610176E-02  0.624058E-02  0.635061E-02  0.641618E-02  0.642617E-02
  0.637528E-02  0.626396E-02  0.609759E-02  0.588587E-02  0.564279E-02  0.538585E-02
  0.513426E-02  0.490669E-02  0.472010E-02  0.458983E-02  0.453017E-02  0.455467E-02
  0.467629E-02  0.490773E-02  0.526167E-02  0.575019E-02  0.638295E-02  0.716461E-02
  0.809180E-02  0.686152E-02  0.774873E-02  0.872750E-02  0.976669E-02  0.108255E-01
  0.118555E-01  0.128028E-01  0.136112E-01  0.142275E-01  0.146084E-01  0.147274E-01
  0.145788E-01  0.141770E-01  0.135537E-01  0.127538E-01  0.118306E-01  0.108408E-01
  0.983874E-02  0.887168E-02  0.797708E-02  0.718122E-02  0.649955E-02  0.593791E-02
  0.549442E-02  0.516159E-02  0.492838E-02  0.478196E-02  0.470874E-02  0.469469E-02
  0.472526E-02  0.478549E-02  0.486045E-02  0.493572E-02  0.499788E-02  0.503523E-02