 CRYSTAL
 PRIMVEC
    5.496922948    0.000010160   -0.000000000
   -1.214228537    5.171574175   -0.000000000
   -0.000000000   -0.000000000    5.683306934
 PRIMCOORD
           4           1
Si       -0.117149098    1.259955295    1.919986088
Si        2.752629700    2.186520863    0.789990287
Si        0.117161188    3.078443283    4.491827761
Si        2.744298754    0.749800953    3.319551111
BEGIN_BLOCK_DATAGRID_3D
3D_PWSCF
BEGIN_DATAGRID_3D_UNKNOWN
          55          51          55
  0.000000  0.000000  0.000000
    5.496923    0.000010   -0.000000
   -1.214229    5.171574   -0.000000
   -0.000000   -0.000000    5.683307
  0.162302E-02  0.164114E-02  0.165604E-02  0.166856E-02  0.167978E-02  0.169087E-02
  0.170295E-02  0.171696E-02  0.173364E-02  0.175361E-02  0.177727E-02  0.180493E-02
  0.183670E-02  0.187249E-02  0.191193E-02  0.195439E-02  0.199910E-02  0.204523E-02
  0.209182E-02  0.213760E-02  0.218092E-02  0.221981E-02  0.225211E-02  0.227575E-02
  0.228883E-02  0.228985E-02  0.227773E-02  0.225191E-02  0.221237E-02  0.215983E-02
  0.209584E-02  0.202267E-02  0.194316E-02  0.186031E-02  0.177708E-02  0.169625E-02
  0.162034E-02  0.155157E-02  0.149174E-02  0.144214E-02  0.140356E-02  0.137632E-02
  0.136036E-02  0.135524E-02  0.136013E-02  0.137378E-02  0.139466E-02  0.142105E-02
  0.145118E-02  0.148328E-02  0.151569E-02  0.154690E-02  0.157570E-02  0.160121E-02
  0.162302E-02  0.175697E-02  0.176643E-02  0.177048E-02  0.177005E-02  0.176651E-02
  0.176159E-02  0.175719E-02  0.175518E-02  0.175716E-02  0.176446E-02  0.177810E-02
  0.179893E-02  0.182760E-02  0.186448E-02  0.190956E-02  0.196236E-02  0.202197E-02
  0.208719E-02  0.215654E-02  0.222811E-02  0.229948E-02  0.236767E-02  0.242938E-02
  0.248127E-02  0.252034E-02  0.254410E-02  0.255069E-02  0.253892E-02  0.250837E-02
  0.245956E-02  0.239416E-02  0.231490E-02  0.222527E-02  0.212917E-02  0.203052E-02
  0.193312E-02  0.184048E-02  0.175563E-02  0.168097E-02  0.161819E-02  0.156835E-02
  0.153193E-02  0.150897E-02  0.149905E-02  0.150121E-02  0.151398E-02  0.153542E-02
  0.156331E-02  0.159532E-02  0.162915E-02  0.166257E-02  0.169352E-02  0.172026E-02
  0.174159E-02  0.175697E-02  0.193518E-02  0.193786E-02  0.193276E-02  0.192101E-02
  0.190434E-02  0.188495E-02  0.186545E-02  0.184851E-02  0.183658E-02  0.183180E-02
  0.183589E-02  0.185031E-02  0.187619E-02  0.191435E-02  0.196517E-02  0.202842E-02
  0.210327E-02  0.218833E-02  0.228172E-02  0.238101E-02  0.248307E-02  0.258398E-02
  0.267919E-02  0.276385E-02  0.283340E-02  0.288396E-02  0.291259E-02  0.291729E-02
  0.289707E-02  0.285216E-02  0.278426E-02  0.269653E-02  0.259324E-02  0.247935E-02
  0.236004E-02  0.224044E-02  0.212531E-02  0.201877E-02  0.192404E-02  0.184335E-02
  0.177809E-02  0.172894E-02  0.169598E-02  0.167879E-02  0.167635E-02  0.168699E-02
  0.170846E-02  0.173799E-02  0.177264E-02  0.180940E-02  0.184540E-02  0.187795E-02
  0.190475E-02  0.192412E-02  0.193518E-02  0.215589E-02  0.215351E-02  0.214067E-02
  0.211885E-02  0.209024E-02  0.205760E-02  0.202407E-02  0.199299E-02  0.196767E-02
  0.195110E-02  0.194589E-02  0.195418E-02  0.197772E-02  0.201778E-02  0.207517E-02
  0.215006E-02  0.224187E-02  0.234915E-02  0.246969E-02  0.260050E-02  0.273776E-02
  0.287668E-02  0.301143E-02  0.313549E-02  0.324237E-02  0.332627E-02  0.338260E-02
  0.340810E-02  0.340091E-02  0.336074E-02  0.328924E-02  0.319005E-02  0.306847E-02
  0.293088E-02  0.278408E-02  0.263488E-02  0.248960E-02  0.235370E-02  0.223150E-02
  0.212608E-02  0.203938E-02  0.197239E-02  0.192527E-02  0.189745E-02  0.188774E-02
  0.189428E-02  0.191450E-02  0.194521E-02  0.198275E-02  0.202331E-02  0.206319E-02
  0.209899E-02  0.212774E-02  0.214718E-02  0.215589E-02  0.241672E-02  0.241111E-02
  0.239206E-02  0.236137E-02  0.232184E-02  0.227684E-02  0.223008E-02  0.218553E-02
  0.214725E-02  0.211918E-02  0.210488E-02  0.210735E-02  0.212905E-02  0.217192E-02
  0.223733E-02  0.232601E-02  0.243773E-02  0.257114E-02  0.272377E-02  0.289206E-02
  0.307148E-02  0.325626E-02  0.343929E-02  0.361224E-02  0.376630E-02  0.389317E-02
  0.398587E-02  0.403916E-02  0.404966E-02  0.401621E-02  0.394023E-02  0.382593E-02
  0.367999E-02  0.351077E-02  0.332735E-02  0.313870E-02  0.295310E-02  0.277763E-02
  0.261799E-02  0.247842E-02  0.236178E-02  0.226962E-02  0.220229E-02  0.215908E-02
  0.213842E-02  0.213803E-02  0.215496E-02  0.218552E-02  0.222542E-02  0.226999E-02
  0.231455E-02  0.235482E-02  0.238709E-02  0.240842E-02  0.241672E-02  0.271455E-02
  0.270769E-02  0.268430E-02  0.264628E-02  0.259693E-02  0.254036E-02  0.248098E-02
  0.242346E-02  0.237268E-02  0.233350E-02  0.231048E-02  0.230759E-02  0.232821E-02
  0.237516E-02  0.245065E-02  0.255606E-02  0.269168E-02  0.285644E-02  0.304785E-02
  0.326202E-02  0.349366E-02  0.373591E-02  0.398006E-02  0.421559E-02  0.443091E-02
  0.461449E-02  0.475609E-02  0.484752E-02  0.488307E-02  0.486003E-02  0.477927E-02
  0.464562E-02  0.446751E-02  0.425599E-02  0.402327E-02  0.378143E-02  0.354141E-02
  0.331248E-02  0.310208E-02  0.291590E-02  0.275797E-02  0.263064E-02  0.253461E-02
  0.246910E-02  0.243210E-02  0.242071E-02  0.243128E-02  0.245948E-02  0.250031E-02
  0.254824E-02  0.259760E-02  0.264307E-02  0.268005E-02  0.270481E-02  0.271455E-02
  0.304611E-02  0.303997E-02  0.301434E-02  0.297087E-02  0.291315E-02  0.284595E-02
  0.277456E-02  0.270456E-02  0.264176E-02  0.259200E-02  0.256083E-02  0.255330E-02
  0.257395E-02  0.262677E-02  0.271500E-02  0.284087E-02  0.300532E-02  0.320788E-02
  0.344656E-02  0.371759E-02  0.401520E-02  0.433118E-02  0.465467E-02  0.497221E-02
  0.526852E-02  0.552793E-02  0.573588E-02  0.588009E-02  0.595151E-02  0.594505E-02
  0.586053E-02  0.570323E-02  0.548360E-02  0.521603E-02  0.491693E-02  0.460275E-02
  0.428841E-02  0.398649E-02  0.370700E-02  0.345753E-02  0.324345E-02  0.306789E-02
  0.293188E-02  0.283452E-02  0.277342E-02  0.274498E-02  0.274467E-02  0.276723E-02
  0.280669E-02  0.285659E-02  0.291022E-02  0.296115E-02  0.300372E-02  0.303325E-02
  0.304611E-02  0.340848E-02  0.340491E-02  0.337909E-02  0.333226E-02  0.326797E-02
  0.319143E-02  0.310887E-02  0.302700E-02  0.295276E-02  0.289305E-02  0.285447E-02
  0.284329E-02  0.286543E-02  0.292631E-02  0.303047E-02  0.318119E-02  0.338037E-02
  0.362863E-02  0.392511E-02  0.426687E-02  0.464798E-02  0.505880E-02  0.548561E-02
  0.591099E-02  0.631481E-02  0.667594E-02  0.697403E-02  0.719134E-02  0.731411E-02
  0.733388E-02  0.724876E-02  0.706417E-02  0.679271E-02  0.645269E-02  0.606576E-02
  0.565423E-02  0.523876E-02  0.483702E-02  0.446309E-02  0.412748E-02  0.383727E-02
  0.359633E-02  0.340568E-02  0.326402E-02  0.316835E-02  0.311437E-02  0.309666E-02
  0.310882E-02  0.314366E-02  0.319345E-02  0.325029E-02  0.330658E-02  0.335542E-02
  0.339093E-02  0.340848E-02  0.379903E-02  0.379988E-02  0.377589E-02  0.372782E-02
  0.365895E-02  0.357472E-02  0.348219E-02  0.338933E-02  0.330439E-02  0.323546E-02
  0.319033E-02  0.317664E-02  0.320187E-02  0.327316E-02  0.339664E-02  0.357705E-02
  0.381779E-02  0.412121E-02  0.448829E-02  0.491753E-02  0.540325E-02  0.593431E-02
  0.649370E-02  0.705913E-02  0.760440E-02  0.810124E-02  0.852157E-02  0.884001E-02
  0.903616E-02  0.909672E-02  0.901721E-02  0.880293E-02  0.846873E-02  0.803749E-02
  0.753722E-02  0.699774E-02  0.644754E-02  0.591151E-02  0.540977E-02  0.495728E-02
  0.456385E-02  0.423445E-02  0.396988E-02  0.376791E-02  0.362438E-02  0.353388E-02
  0.349000E-02  0.348516E-02  0.351073E-02  0.355740E-02  0.361578E-02  0.367689E-02
  0.373245E-02  0.377517E-02  0.379903E-02  0.421520E-02  0.422261E-02  0.420270E-02
  0.415568E-02  0.408449E-02  0.399458E-02  0.389364E-02  0.379089E-02  0.369607E-02
  0.361867E-02  0.356782E-02  0.355266E-02  0.358249E-02  0.366632E-02  0.381232E-02
  0.402731E-02  0.431703E-02  0.468635E-02  0.513877E-02  0.567469E-02  0.628901E-02
  0.696926E-02  0.769508E-02  0.843887E-02  0.916729E-02  0.984314E-02  0.104280E-01
  0.108858E-01  0.111863E-01  0.113093E-01  0.112462E-01  0.110018E-01  0.105935E-01
  0.100497E-01  0.940621E-02  0.870249E-02  0.797726E-02  0.726509E-02  0.659429E-02
  0.598600E-02  0.545411E-02  0.500558E-02  0.464149E-02  0.435843E-02  0.415035E-02
  0.400991E-02  0.392899E-02  0.389858E-02  0.390850E-02  0.394771E-02  0.400501E-02
  0.406977E-02  0.413215E-02  0.418319E-02  0.421520E-02  0.465494E-02  0.467154E-02
  0.465854E-02  0.461537E-02  0.454453E-02  0.445136E-02  0.434396E-02  0.423265E-02
  0.412873E-02  0.404335E-02  0.398725E-02  0.397130E-02  0.400670E-02  0.410463E-02
  0.427573E-02  0.452976E-02  0.487577E-02  0.532209E-02  0.587538E-02  0.653838E-02
  0.730705E-02  0.816815E-02  0.909835E-02  0.100647E-01  0.110257E-01  0.119335E-01
  0.127361E-01  0.133827E-01  0.138296E-01  0.140457E-01  0.140168E-01  0.137460E-01
  0.132535E-01  0.125740E-01  0.117531E-01  0.108426E-01  0.989469E-02  0.895675E-02
  0.806780E-02  0.725699E-02  0.654352E-02  0.593747E-02  0.544099E-02  0.505002E-02
  0.475632E-02  0.454958E-02  0.441876E-02  0.435249E-02  0.433875E-02  0.436467E-02
  0.441716E-02  0.448364E-02  0.455246E-02  0.461278E-02  0.465494E-02  0.511785E-02
  0.514666E-02  0.514404E-02  0.510821E-02  0.504102E-02  0.494751E-02  0.483598E-02
  0.471763E-02  0.460530E-02  0.451204E-02  0.445057E-02  0.443372E-02  0.447475E-02
  0.458730E-02  0.478498E-02  0.508135E-02  0.548983E-02  0.602316E-02  0.669182E-02
  0.750157E-02  0.845029E-02  0.952514E-02  0.107007E-01  0.119387E-01  0.131884E-01
  0.143886E-01  0.154707E-01  0.163654E-01  0.170108E-01  0.173613E-01  0.173936E-01
  0.171078E-01  0.165261E-01  0.156901E-01  0.146565E-01  0.134924E-01  0.122673E-01
  0.110456E-01  0.988096E-02  0.881300E-02  0.786773E-02  0.705902E-02  0.639077E-02
  0.585889E-02  0.545329E-02  0.516018E-02  0.496432E-02  0.485057E-02  0.480405E-02
  0.480985E-02  0.485290E-02  0.491857E-02  0.499308E-02  0.506346E-02  0.511785E-02
  0.560619E-02  0.565051E-02  0.566222E-02  0.563783E-02  0.557811E-02  0.548761E-02
  0.537459E-02  0.525087E-02  0.513074E-02  0.502928E-02  0.496154E-02  0.494263E-02
  0.498813E-02  0.511432E-02  0.533832E-02  0.567829E-02  0.615297E-02  0.678039E-02
  0.757569E-02  0.854858E-02  0.970039E-02  0.110205E-01  0.124826E-01  0.140431E-01
  0.156402E-01  0.171965E-01  0.186234E-01  0.198294E-01  0.207311E-01  0.212651E-01
  0.213958E-01  0.211176E-01  0.204530E-01  0.194492E-01  0.181744E-01  0.167126E-01
  0.151540E-01  0.135851E-01  0.120794E-01  0.106918E-01  0.945766E-02  0.839569E-02
  0.751149E-02  0.680094E-02  0.625242E-02  0.584883E-02  0.557012E-02  0.539593E-02
  0.530710E-02  0.528571E-02  0.531451E-02  0.537670E-02  0.545612E-02  0.553739E-02
  0.560619E-02  0.612514E-02  0.618870E-02  0.621919E-02  0.621086E-02  0.616288E-02
  0.607896E-02  0.596714E-02  0.583967E-02  0.571205E-02  0.560148E-02  0.552563E-02
  0.550224E-02  0.554943E-02  0.568637E-02  0.593408E-02  0.631587E-02  0.685661E-02
  0.758042E-02  0.850802E-02  0.965445E-02  0.110263E-01  0.126173E-01  0.144021E-01
  0.163314E-01  0.183306E-01  0.203025E-01  0.221348E-01  0.237111E-01  0.249245E-01
  0.256924E-01  0.259654E-01  0.257299E-01  0.250052E-01  0.238410E-01  0.223144E-01
  0.205252E-01  0.185861E-01  0.166099E-01  0.146959E-01  0.129210E-01  0.113354E-01
  0.996515E-02  0.881784E-02  0.788840E-02  0.716316E-02  0.662191E-02  0.623993E-02
  0.599098E-02  0.585013E-02  0.579500E-02  0.580529E-02  0.586178E-02  0.594581E-02
  0.603927E-02  0.612514E-02  0.668237E-02  0.677002E-02  0.682476E-02  0.683799E-02
  0.680668E-02  0.673320E-02  0.662517E-02  0.649508E-02  0.635956E-02  0.623791E-02
  0.615061E-02  0.611841E-02  0.616231E-02  0.630457E-02  0.657027E-02  0.698822E-02
  0.758979E-02  0.840587E-02  0.946379E-02  0.107853E-01  0.123843E-01  0.142608E-01
  0.163924E-01  0.187243E-01  0.211672E-01  0.236008E-01  0.258849E-01  0.278751E-01
  0.294411E-01  0.304831E-01  0.309405E-01  0.307916E-01  0.300493E-01  0.287594E-01
  0.270007E-01  0.248836E-01  0.225415E-01  0.201153E-01  0.177359E-01  0.155093E-01
  0.135088E-01  0.117734E-01  0.103147E-01  0.912597E-02  0.819018E-02  0.748334E-02
  0.697637E-02  0.663729E-02  0.643457E-02  0.633986E-02  0.632848E-02  0.637815E-02
  0.646752E-02  0.657562E-02  0.668237E-02  0.728758E-02  0.740627E-02  0.749266E-02
  0.753465E-02  0.752624E-02  0.746786E-02  0.736628E-02  0.723416E-02  0.708914E-02
  0.695265E-02  0.684822E-02  0.680005E-02  0.683243E-02  0.697099E-02  0.724496E-02
  0.768858E-02  0.833978E-02  0.923652E-02  0.104135E-01  0.119005E-01  0.137202E-01
  0.158811E-01  0.183647E-01  0.211124E-01  0.240188E-01  0.269375E-01  0.296954E-01
  0.321167E-01  0.340479E-01  0.353784E-01  0.360450E-01  0.360248E-01  0.353240E-01
  0.339756E-01  0.320469E-01  0.296465E-01  0.269205E-01  0.240360E-01  0.211593E-01
  0.184335E-01  0.159633E-01  0.138096E-01  0.119931E-01  0.105071E-01  0.932967E-02
  0.843158E-02  0.777896E-02  0.733454E-02  0.706031E-02  0.692102E-02  0.688624E-02
  0.692966E-02  0.702691E-02  0.715402E-02  0.728758E-02  0.795155E-02  0.811117E-02
  0.823945E-02  0.831994E-02  0.834283E-02  0.830575E-02  0.821406E-02  0.808027E-02
  0.792305E-02  0.776596E-02  0.763588E-02  0.756091E-02  0.756929E-02  0.769045E-02
  0.795783E-02  0.841088E-02  0.909372E-02  0.100513E-01  0.113260E-01  0.129562E-01
  0.149745E-01  0.173988E-01  0.202164E-01  0.233661E-01  0.267275E-01  0.301252E-01
  0.333485E-01  0.361845E-01  0.384565E-01  0.400509E-01  0.409182E-01  0.410499E-01
  0.404525E-01  0.391400E-01  0.371499E-01  0.345666E-01  0.315314E-01  0.282304E-01
  0.248656E-01  0.216238E-01  0.186508E-01  0.160386E-01  0.138260E-01  0.120103E-01
  0.105657E-01  0.945580E-02  0.864086E-02  0.807833E-02  0.772434E-02  0.753683E-02
  0.747880E-02  0.751889E-02  0.762914E-02  0.778238E-02  0.795155E-02  0.868437E-02
  0.889811E-02  0.908167E-02  0.921340E-02  0.927867E-02  0.927135E-02  0.919453E-02
  0.906010E-02  0.888755E-02  0.870268E-02  0.853590E-02  0.841981E-02  0.838730E-02
  0.847218E-02  0.871229E-02  0.915198E-02  0.984112E-02  0.108311E-01  0.121717E-01
  0.139096E-01  0.160872E-01  0.187326E-01  0.218405E-01  0.253495E-01  0.291263E-01
  0.329667E-01  0.366178E-01  0.398234E-01  0.423804E-01  0.441790E-01  0.452003E-01
  0.454733E-01  0.450219E-01  0.438431E-01  0.419288E-01  0.393113E-01  0.360995E-01
  0.324805E-01  0.286879E-01  0.249559E-01  0.214801E-01  0.183938E-01  0.157627E-01
  0.135962E-01  0.118674E-01  0.105330E-01  0.954576E-02  0.885735E-02  0.841875E-02
  0.818195E-02  0.810345E-02  0.814614E-02  0.827774E-02  0.846749E-02  0.868437E-02
  0.949230E-02  0.977643E-02  0.100318E-01  0.102305E-01  0.103521E-01  0.103856E-01
  0.103309E-01  0.101984E-01  0.100080E-01  0.978780E-02  0.957189E-02  0.939789E-02
  0.930408E-02  0.932928E-02  0.951594E-02  0.991308E-02  0.105758E-01  0.115612E-01
  0.129254E-01  0.147228E-01  0.170042E-01  0.198077E-01  0.231367E-01  0.269332E-01
  0.310563E-01  0.352765E-01  0.392986E-01  0.428182E-01  0.455992E-01  0.475343E-01
  0.486452E-01  0.490179E-01  0.487172E-01  0.477379E-01  0.460229E-01  0.435312E-01
  0.403084E-01  0.365157E-01  0.324040E-01  0.282540E-01  0.243162E-01  0.207731E-01
  0.177267E-01  0.152059E-01  0.131889E-01  0.116275E-01  0.104667E-01  0.965177E-02
  0.912905E-02  0.884589E-02  0.875311E-02  0.880773E-02  0.897248E-02  0.921246E-02
  0.949230E-02  0.103739E-01  0.107474E-01  0.110938E-01  0.113781E-01  0.115730E-01
  0.116615E-01  0.116389E-01  0.115132E-01  0.113041E-01  0.110417E-01  0.107639E-01
  0.105141E-01  0.103365E-01  0.102755E-01  0.103785E-01  0.106988E-01  0.112961E-01
  0.122324E-01  0.135693E-01  0.153667E-01  0.176826E-01  0.205633E-01  0.240222E-01
  0.280090E-01  0.323827E-01  0.368987E-01  0.412268E-01  0.450147E-01  0.479856E-01
  0.500227E-01  0.511810E-01  0.516089E-01  0.514295E-01  0.506586E-01  0.492062E-01
  0.469562E-01  0.438710E-01  0.400589E-01  0.357659E-01  0.313078E-01  0.269889E-01
  0.230442E-01  0.196168E-01  0.167626E-01  0.144708E-01  0.126929E-01  0.113674E-01
  0.104336E-01  0.983382E-02  0.951203E-02  0.941483E-02  0.949385E-02  0.970651E-02
  0.100132E-01  0.103739E-01  0.113167E-01  0.118004E-01  0.122596E-01  0.126511E-01
  0.129396E-01  0.131005E-01  0.131233E-01  0.130123E-01  0.127860E-01  0.124761E-01
  0.121247E-01  0.117810E-01  0.114962E-01  0.113213E-01  0.113083E-01  0.115146E-01
  0.120036E-01  0.128415E-01  0.140938E-01  0.158243E-01  0.180956E-01  0.209605E-01
  0.244422E-01  0.285022E-01  0.330091E-01  0.377180E-01  0.422809E-01  0.463078E-01
  0.494769E-01  0.516421E-01  0.528654E-01  0.533393E-01  0.532465E-01  0.526437E-01
  0.514376E-01  0.494595E-01  0.465937E-01  0.428810E-01  0.385400E-01  0.339021E-01
  0.293134E-01  0.250565E-01  0.213157E-01  0.181764E-01  0.156443E-01  0.136752E-01
  0.122052E-01  0.111689E-01  0.105056E-01  0.101577E-01  0.100689E-01  0.101869E-01
  0.104639E-01  0.108555E-01  0.113167E-01  0.122952E-01  0.129111E-01  0.135066E-01
  0.140293E-01  0.144345E-01  0.146888E-01  0.147741E-01  0.146893E-01  0.144508E-01
  0.140909E-01  0.136558E-01  0.132013E-01  0.127866E-01  0.124698E-01  0.123085E-01
  0.123635E-01  0.127009E-01  0.133900E-01  0.144986E-01  0.160929E-01  0.182371E-01
  0.209883E-01  0.243781E-01  0.283827E-01  0.328889E-01  0.376689E-01  0.423802E-01
  0.466168E-01  0.500175E-01  0.523884E-01  0.537605E-01  0.543310E-01  0.543202E-01
  0.538320E-01  0.527992E-01  0.510401E-01  0.483900E-01  0.448309E-01  0.405415E-01
  0.358470E-01  0.311144E-01  0.266599E-01  0.227013E-01  0.193515E-01  0.166348E-01
  0.145163E-01  0.129333E-01  0.118193E-01  0.111124E-01  0.107547E-01  0.106894E-01
  0.108613E-01  0.112190E-01  0.117135E-01  0.122952E-01  0.132712E-01  0.140403E-01
  0.147954E-01  0.154744E-01  0.160216E-01  0.163929E-01  0.165611E-01  0.165183E-01
  0.162767E-01  0.158685E-01  0.153435E-01  0.147643E-01  0.141992E-01  0.137148E-01
  0.133748E-01  0.132435E-01  0.133890E-01  0.138820E-01  0.147914E-01  0.161836E-01
  0.181221E-01  0.206653E-01  0.238509E-01  0.276700E-01  0.320336E-01  0.367447E-01
  0.414904E-01  0.458773E-01  0.495242E-01  0.521832E-01  0.538200E-01  0.545875E-01
  0.547028E-01  0.543029E-01  0.533643E-01  0.517319E-01  0.492356E-01  0.458264E-01
  0.416468E-01  0.369995E-01  0.322489E-01  0.277237E-01  0.236617E-01  0.201963E-01
  0.173693E-01  0.151573E-01  0.135039E-01  0.123446E-01  0.116190E-01  0.112710E-01
  0.112447E-01  0.114848E-01  0.119375E-01  0.125508E-01  0.132712E-01  0.141958E-01
  0.151351E-01  0.160703E-01  0.169286E-01  0.176420E-01  0.181548E-01  0.184285E-01
  0.184468E-01  0.182163E-01  0.177673E-01  0.171522E-01  0.164405E-01  0.157098E-01
  0.150366E-01  0.144921E-01  0.141447E-01  0.140640E-01  0.143208E-01  0.149838E-01
  0.161177E-01  0.177831E-01  0.200359E-01  0.229173E-01  0.264307E-01  0.305128E-01
  0.350050E-01  0.396412E-01  0.440678E-01  0.479117E-01  0.508848E-01  0.528725E-01
  0.539430E-01  0.542634E-01  0.539726E-01  0.530893E-01  0.515110E-01  0.491032E-01
  0.458211E-01  0.417863E-01  0.372723E-01  0.326215E-01  0.281539E-01  0.241105E-01
  0.206354E-01  0.177841E-01  0.155454E-01  0.138719E-01  0.127052E-01  0.119894E-01
  0.116719E-01  0.117001E-01  0.120202E-01  0.125788E-01  0.133227E-01  0.141958E-01
  0.150119E-01  0.161312E-01  0.172600E-01  0.183148E-01  0.192148E-01  0.198907E-01
  0.202923E-01  0.203929E-01  0.201921E-01  0.197166E-01  0.190196E-01  0.181763E-01
  0.172736E-01  0.163988E-01  0.156319E-01  0.150467E-01  0.147144E-01  0.147054E-01
  0.150870E-01  0.159206E-01  0.172621E-01  0.191621E-01  0.216604E-01  0.247696E-01
  0.284486E-01  0.325782E-01  0.369457E-01  0.412543E-01  0.451667E-01  0.483828E-01
  0.507196E-01  0.521458E-01  0.527436E-01  0.526171E-01  0.518081E-01  0.502725E-01
  0.479349E-01  0.447827E-01  0.409342E-01  0.366350E-01  0.321937E-01  0.279055E-01
  0.240000E-01  0.206224E-01  0.178361E-01  0.156414E-01  0.140016E-01  0.128675E-01
  0.121905E-01  0.119238E-01  0.120198E-01  0.124286E-01  0.130991E-01  0.139791E-01
  0.150119E-01  0.156592E-01  0.169581E-01  0.182833E-01  0.195420E-01  0.206404E-01
  0.214954E-01  0.220436E-01  0.222476E-01  0.220983E-01  0.216169E-01  0.208555E-01
  0.198928E-01  0.188239E-01  0.177466E-01  0.167509E-01  0.159175E-01  0.153200E-01
  0.150286E-01  0.151084E-01  0.156170E-01  0.166041E-01  0.181127E-01  0.201779E-01
  0.228153E-01  0.260013E-01  0.296507E-01  0.336018E-01  0.376189E-01  0.414179E-01
  0.447160E-01  0.472930E-01  0.490337E-01  0.499268E-01  0.500164E-01  0.493407E-01
  0.478998E-01  0.456789E-01  0.427083E-01  0.391137E-01  0.351164E-01  0.309876E-01
  0.269891E-01  0.233299E-01  0.201483E-01  0.175109E-01  0.154275E-01  0.138730E-01
  0.128094E-01  0.121976E-01  0.119988E-01  0.121722E-01  0.126732E-01  0.134552E-01
  0.144691E-01  0.156592E-01  0.160806E-01  0.175458E-01  0.190569E-01  0.205137E-01
  0.218108E-01  0.228514E-01  0.235590E-01  0.238844E-01  0.238092E-01  0.233476E-01
  0.225481E-01  0.214902E-01  0.202747E-01  0.190088E-01  0.177926E-01  0.167147E-01
  0.158529E-01  0.152775E-01  0.150514E-01  0.152281E-01  0.158512E-01  0.169555E-01
  0.185682E-01  0.207033E-01  0.233473E-01  0.264413E-01  0.298665E-01  0.334433E-01
  0.369443E-01  0.401240E-01  0.427588E-01  0.446848E-01  0.458157E-01  0.461318E-01
  0.456475E-01  0.443833E-01  0.423679E-01  0.396675E-01  0.364148E-01  0.328095E-01
  0.290860E-01  0.254705E-01  0.221478E-01  0.192443E-01  0.168265E-01  0.149118E-01
  0.134866E-01  0.125251E-01  0.119993E-01  0.118800E-01  0.121342E-01  0.127246E-01
  0.136102E-01  0.147464E-01  0.160806E-01  0.162294E-01  0.178346E-01  0.195063E-01
  0.211403E-01  0.226225E-01  0.238438E-01  0.247147E-01  0.251745E-01  0.251945E-01
  0.247807E-01  0.239758E-01  0.228573E-01  0.215286E-01  0.201034E-01  0.186911E-01
  0.173886E-01  0.162791E-01  0.154342E-01  0.149148E-01  0.147706E-01  0.150397E-01
  0.157497E-01  0.169192E-01  0.185570E-01  0.206530E-01  0.231655E-01  0.260089E-01
  0.290494E-01  0.321118E-01  0.349951E-01  0.374964E-01  0.394385E-01  0.406938E-01
  0.411942E-01  0.409239E-01  0.399031E-01  0.381799E-01  0.358382E-01  0.330102E-01
  0.298728E-01  0.266262E-01  0.234628E-01  0.205419E-01  0.179763E-01  0.158301E-01
  0.141267E-01  0.128634E-01  0.120267E-01  0.116001E-01  0.115645E-01  0.118960E-01
  0.125652E-01  0.135382E-01  0.147757E-01  0.162294E-01  0.160763E-01  0.177837E-01
  0.195775E-01  0.213533E-01  0.229923E-01  0.243764E-01  0.254044E-01  0.260037E-01
  0.261354E-01  0.257965E-01  0.250220E-01  0.238845E-01  0.224865E-01  0.209452E-01
  0.193766E-01  0.178854E-01  0.165607E-01  0.154765E-01  0.146926E-01  0.142552E-01
  0.141977E-01  0.145421E-01  0.153001E-01  0.164740E-01  0.180525E-01  0.200030E-01
  0.222624E-01  0.247327E-01  0.272819E-01  0.297524E-01  0.319736E-01  0.337803E-01
  0.350342E-01  0.356426E-01  0.355656E-01  0.348115E-01  0.334281E-01  0.314990E-01
  0.291449E-01  0.265183E-01  0.237871E-01  0.211121E-01  0.186283E-01  0.164341E-01
  0.145895E-01  0.131227E-01  0.120409E-01  0.113417E-01  0.110194E-01  0.110646E-01
  0.114626E-01  0.121928E-01  0.132288E-01  0.145379E-01  0.160763E-01  0.156147E-01
  0.173778E-01  0.192451E-01  0.211155E-01  0.228703E-01  0.243864E-01  0.255534E-01
  0.262880E-01  0.265408E-01  0.262993E-01  0.255895E-01  0.244771E-01  0.230601E-01
  0.214555E-01  0.197827E-01  0.181522E-01  0.166588E-01  0.153796E-01  0.143741E-01
  0.136856E-01  0.133436E-01  0.133657E-01  0.137591E-01  0.145211E-01  0.156374E-01
  0.170788E-01  0.187962E-01  0.207164E-01  0.227418E-01  0.247527E-01  0.266135E-01
  0.281840E-01  0.293357E-01  0.299714E-01  0.300383E-01  0.295311E-01  0.284862E-01
  0.269745E-01  0.250979E-01  0.229823E-01  0.207655E-01  0.185792E-01  0.165357E-01
  0.147187E-01  0.131836E-01  0.119616E-01  0.110678E-01  0.105092E-01  0.102887E-01
  0.104054E-01  0.108535E-01  0.116208E-01  0.126895E-01  0.140334E-01  0.156147E-01
  0.148622E-01  0.166305E-01  0.185173E-01  0.204278E-01  0.222475E-01  0.238534E-01
  0.251300E-01  0.259849E-01  0.263589E-01  0.262296E-01  0.256138E-01  0.245680E-01
  0.231834E-01  0.215729E-01  0.198558E-01  0.181451E-01  0.165399E-01  0.151202E-01
  0.139464E-01  0.130598E-01  0.124865E-01  0.122404E-01  0.123260E-01  0.127376E-01
  0.134594E-01  0.144634E-01  0.157081E-01  0.171369E-01  0.186768E-01  0.202388E-01
  0.217199E-01  0.230085E-01  0.239967E-01  0.245954E-01  0.247490E-01  0.244421E-01
  0.236966E-01  0.225661E-01  0.211299E-01  0.194877E-01  0.177488E-01  0.160191E-01
  0.143897E-01  0.129312E-01  0.116934E-01  0.107088E-01  0.999788E-02  0.957417E-02
  0.944685E-02  0.962156E-02  0.100997E-01  0.108776E-01  0.119452E-01  0.132840E-01
  0.148622E-01  0.138608E-01  0.155834E-01  0.174348E-01  0.193284E-01  0.211572E-01
  0.228029E-01  0.241495E-01  0.250992E-01  0.255841E-01  0.255726E-01  0.250718E-01
  0.241285E-01  0.228242E-01  0.212645E-01  0.195648E-01  0.178374E-01  0.161828E-01
  0.146833E-01  0.134003E-01  0.123743E-01  0.116289E-01  0.111752E-01  0.110152E-01
  0.111423E-01  0.115406E-01  0.121841E-01  0.130365E-01  0.140517E-01  0.151737E-01
  0.163361E-01  0.174621E-01  0.184677E-01  0.192679E-01  0.197886E-01  0.199784E-01
  0.198163E-01  0.193122E-01  0.185019E-01  0.174435E-01  0.162114E-01  0.148898E-01
  0.135616E-01  0.122998E-01  0.111629E-01  0.101949E-01  0.942800E-02  0.888531E-02
  0.858376E-02  0.853626E-02  0.875281E-02  0.924052E-02  0.100026E-01  0.110366E-01
  0.123309E-01  0.138608E-01  0.126713E-01  0.143019E-01  0.160666E-01  0.178881E-01
  0.196698E-01  0.213019E-01  0.226726E-01  0.236828E-01  0.242589E-01  0.243611E-01
  0.239873E-01  0.231736E-01  0.219902E-01  0.205327E-01  0.189087E-01  0.172267E-01
  0.155853E-01  0.140672E-01  0.127346E-01  0.116282E-01  0.107705E-01  0.101707E-01
  0.982880E-02  0.973758E-02  0.988207E-02  0.102392E-01  0.107781E-01  0.114606E-01
  0.122423E-01  0.130723E-01  0.138935E-01  0.146439E-01  0.152600E-01  0.156840E-01
  0.158725E-01  0.158037E-01  0.154788E-01  0.149195E-01  0.141652E-01  0.132690E-01
  0.122930E-01  0.113006E-01  0.103495E-01  0.948761E-02  0.875323E-02  0.817631E-02
  0.778015E-02  0.758280E-02  0.759874E-02  0.784045E-02  0.831892E-02  0.904256E-02
  0.100148E-01  0.112305E-01  0.126713E-01  0.113656E-01  0.128662E-01  0.145004E-01
  0.162015E-01  0.178846E-01  0.194512E-01  0.207983E-01  0.218300E-01  0.224702E-01
  0.226731E-01  0.224281E-01  0.217608E-01  0.207289E-01  0.194153E-01  0.179172E-01
  0.163355E-01  0.147646E-01  0.132851E-01  0.119586E-01  0.108266E-01  0.991179E-02
  0.922304E-02  0.875933E-02  0.851265E-02  0.846896E-02  0.860829E-02  0.890507E-02
  0.932858E-02  0.984343E-02  0.104099E-01  0.109848E-01  0.115220E-01  0.119752E-01
  0.123013E-01  0.124660E-01  0.124494E-01  0.122479E-01  0.118734E-01  0.113509E-01
  0.107165E-01  0.100144E-01  0.929186E-02  0.859350E-02  0.795809E-02  0.741786E-02
  0.699938E-02  0.672437E-02  0.661044E-02  0.667233E-02  0.692359E-02  0.737732E-02
  0.804521E-02  0.893478E-02  0.100457E-01  0.113656E-01  0.100157E-01  0.113597E-01
  0.128314E-01  0.143747E-01  0.159172E-01  0.173738E-01  0.186530E-01  0.196663E-01
  0.203393E-01  0.206226E-01  0.204986E-01  0.199826E-01  0.191199E-01  0.179792E-01
  0.166449E-01  0.152076E-01  0.137546E-01  0.123623E-01  0.110904E-01  0.998038E-02
  0.905622E-02  0.832774E-02  0.779428E-02  0.744775E-02  0.727468E-02  0.725748E-02
  0.737517E-02  0.760356E-02  0.791513E-02  0.827911E-02  0.866225E-02  0.903014E-02
  0.934876E-02  0.958651E-02  0.971736E-02  0.972454E-02  0.960256E-02  0.935703E-02
  0.900321E-02  0.856472E-02  0.807199E-02  0.755917E-02  0.706008E-02  0.660512E-02
  0.622050E-02  0.592865E-02  0.574883E-02  0.569740E-02  0.578870E-02  0.603632E-02
  0.645399E-02  0.705476E-02  0.784845E-02  0.883802E-02  0.100157E-01  0.868593E-02
  0.985935E-02  0.111501E-01  0.125122E-01  0.138856E-01  0.151993E-01  0.163749E-01
  0.173342E-01  0.180079E-01  0.183463E-01  0.183265E-01  0.179550E-01  0.172650E-01
  0.163110E-01  0.151634E-01  0.139005E-01  0.126002E-01  0.113327E-01  0.101542E-01
  0.910532E-02  0.821096E-02  0.748276E-02  0.692165E-02  0.652060E-02  0.626715E-02
  0.614552E-02  0.613812E-02  0.622590E-02  0.638780E-02  0.660040E-02  0.683843E-02
  0.707603E-02  0.728813E-02  0.745161E-02  0.754699E-02  0.756071E-02  0.748696E-02
  0.732779E-02  0.709221E-02  0.679533E-02  0.645756E-02  0.610290E-02  0.575612E-02
  0.544030E-02  0.517590E-02  0.498115E-02  0.487250E-02  0.486479E-02  0.497154E-02
  0.520569E-02  0.558035E-02  0.610831E-02  0.680011E-02  0.766070E-02  0.868593E-02
  0.742757E-02  0.842790E-02  0.953253E-02  0.107046E-01  0.118957E-01  0.130477E-01
  0.140959E-01  0.149734E-01  0.156190E-01  0.159854E-01  0.160470E-01  0.158031E-01
  0.152760E-01  0.145075E-01  0.135538E-01  0.124800E-01  0.113533E-01  0.102356E-01
  0.917856E-02  0.822042E-02  0.738638E-02  0.668965E-02  0.613330E-02  0.571234E-02
  0.541619E-02  0.523118E-02  0.514241E-02  0.513453E-02  0.519129E-02  0.529497E-02
  0.542658E-02  0.556686E-02  0.569740E-02  0.580131E-02  0.586411E-02  0.587514E-02
  0.582895E-02  0.572568E-02  0.557050E-02  0.537290E-02  0.514628E-02  0.490699E-02
  0.467263E-02  0.446017E-02  0.428511E-02  0.416182E-02  0.410397E-02  0.412467E-02
  0.423631E-02  0.445066E-02  0.477934E-02  0.523375E-02  0.582388E-02  0.655563E-02
  0.742757E-02  0.627792E-02  0.711182E-02  0.803595E-02  0.902163E-02  0.100304E-01
  0.110158E-01  0.119252E-01  0.127036E-01  0.132986E-01  0.136681E-01  0.137861E-01
  0.136467E-01  0.132635E-01  0.126666E-01  0.118998E-01  0.110153E-01  0.100689E-01
  0.911349E-02  0.819436E-02  0.734661E-02  0.659458E-02  0.595229E-02  0.542470E-02
  0.500921E-02  0.469782E-02  0.447952E-02  0.434215E-02  0.427328E-02  0.426012E-02
  0.428906E-02  0.434579E-02  0.441605E-02  0.448636E-02  0.454450E-02  0.457980E-02