
     Program POST-PROC v.6.5 starts on 11Aug2023 at 14:29:41 

     This program is part of the open-source Quantum ESPRESSO suite
     for quantum simulation of materials; please cite
         "P. Giannozzi et al., J. Phys.:Condens. Matter 21 395502 (2009);
         "P. Giannozzi et al., J. Phys.:Condens. Matter 29 465901 (2017);
          URL http://www.quantum-espresso.org", 
     in publications or presentations arising from this work. More details at
     http://www.quantum-espresso.org/quote

     Serial version

     Reading xml data from directory:

     /projectsn/mp1009_1/Valeria/cWT-KEDF/Phases/Transition_Btin_hd/0.5/si_0.5_7_4_Btin_hd.save/

     Program POST-PROC v.6.5 starts on 11Aug2023 at 14:29:41 

     This program is part of the open-source Quantum ESPRESSO suite
     for quantum simulation of materials; please cite
         "P. Giannozzi et al., J. Phys.:Condens. Matter 21 395502 (2009);
         "P. Giannozzi et al., J. Phys.:Condens. Matter 29 465901 (2017);
          URL http://www.quantum-espresso.org", 
     in publications or presentations arising from this work. More details at
     http://www.quantum-espresso.org/quote

     Serial version

     Reading xml data from directory:

     /projectsn/mp1009_1/Valeria/cWT-KEDF/Phases/Transition_Btin_hd/0.5/si_0.5_7_4_Btin_hd.save/

     Program POST-PROC v.6.5 starts on 11Aug2023 at 14:29:42 

     This program is part of the open-source Quantum ESPRESSO suite
     for quantum simulation of materials; please cite
         "P. Giannozzi et al., J. Phys.:Condens. Matter 21 395502 (2009);
         "P. Giannozzi et al., J. Phys.:Condens. Matter 29 465901 (2017);
          URL http://www.quantum-espresso.org", 
     in publications or presentations arising from this work. More details at
     http://www.quantum-espresso.org/quote

     Serial version

     Reading xml data from directory:

     /projectsn/mp1009_1/Valeria/cWT-KEDF/Phases/Transition_Btin_hd/0.5/si_0.5_7_4_Btin_hd.save/

     Program POST-PROC v.6.5 starts on 11Aug2023 at 14:29:42 

     This program is part of the open-source Quantum ESPRESSO suite
     for quantum simulation of materials; please cite
         "P. Giannozzi et al., J. Phys.:Condens. Matter 21 395502 (2009);
         "P. Giannozzi et al., J. Phys.:Condens. Matter 29 465901 (2017);
          URL http://www.quantum-espresso.org", 
     in publications or presentations arising from this work. More details at
     http://www.quantum-espresso.org/quote

     Serial version

     Reading xml data from directory:

     /projectsn/mp1009_1/Valeria/cWT-KEDF/Phases/Transition_Btin_hd/0.5/si_0.5_7_4_Btin_hd.save/

     Program POST-PROC v.6.5 starts on 11Aug2023 at 14:29:42 

     This program is part of the open-source Quantum ESPRESSO suite
     for quantum simulation of materials; please cite
         "P. Giannozzi et al., J. Phys.:Condens. Matter 21 395502 (2009);
         "P. Giannozzi et al., J. Phys.:Condens. Matter 29 465901 (2017);
          URL http://www.quantum-espresso.org", 
     in publications or presentations arising from this work. More details at
     http://www.quantum-espresso.org/quote

     Serial version

     Reading xml data from directory:

     /projectsn/mp1009_1/Valeria/cWT-KEDF/Phases/Transition_Btin_hd/0.5/si_0.5_7_4_Btin_hd.save/

     Program POST-PROC v.6.5 starts on 11Aug2023 at 14:29:42 

     This program is part of the open-source Quantum ESPRESSO suite
     for quantum simulation of materials; please cite
         "P. Giannozzi et al., J. Phys.:Condens. Matter 21 395502 (2009);
         "P. Giannozzi et al., J. Phys.:Condens. Matter 29 465901 (2017);
          URL http://www.quantum-espresso.org", 
     in publications or presentations arising from this work. More details at
     http://www.quantum-espresso.org/quote

     Serial version

     Reading xml data from directory:

     /projectsn/mp1009_1/Valeria/cWT-KEDF/Phases/Transition_Btin_hd/0.5/si_0.5_7_4_Btin_hd.save/

     Program POST-PROC v.6.5 starts on 11Aug2023 at 14:29:42 

     This program is part of the open-source Quantum ESPRESSO suite
     for quantum simulation of materials; please cite
         "P. Giannozzi et al., J. Phys.:Condens. Matter 21 395502 (2009);
         "P. Giannozzi et al., J. Phys.:Condens. Matter 29 465901 (2017);
          URL http://www.quantum-espresso.org", 
     in publications or presentations arising from this work. More details at
     http://www.quantum-espresso.org/quote

     Serial version

     Reading xml data from directory:

     /projectsn/mp1009_1/Valeria/cWT-KEDF/Phases/Transition_Btin_hd/0.5/si_0.5_7_4_Btin_hd.save/

     Program POST-PROC v.6.5 starts on 11Aug2023 at 14:29:42 

     This program is part of the open-source Quantum ESPRESSO suite
     for quantum simulation of materials; please cite
         "P. Giannozzi et al., J. Phys.:Condens. Matter 21 395502 (2009);
         "P. Giannozzi et al., J. Phys.:Condens. Matter 29 465901 (2017);
          URL http://www.quantum-espresso.org", 
     in publications or presentations arising from this work. More details at
     http://www.quantum-espresso.org/quote

     Serial version

     Reading xml data from directory:

     /projectsn/mp1009_1/Valeria/cWT-KEDF/Phases/Transition_Btin_hd/0.5/si_0.5_7_4_Btin_hd.save/

     Program POST-PROC v.6.5 starts on 11Aug2023 at 14:29:42 

     This program is part of the open-source Quantum ESPRESSO suite
     for quantum simulation of materials; please cite
         "P. Giannozzi et al., J. Phys.:Condens. Matter 21 395502 (2009);
         "P. Giannozzi et al., J. Phys.:Condens. Matter 29 465901 (2017);
          URL http://www.quantum-espresso.org", 
     in publications or presentations arising from this work. More details at
     http://www.quantum-espresso.org/quote

     Serial version

     Reading xml data from directory:

     /projectsn/mp1009_1/Valeria/cWT-KEDF/Phases/Transition_Btin_hd/0.5/si_0.5_7_4_Btin_hd.save/

     Program POST-PROC v.6.5 starts on 11Aug2023 at 14:29:42 

     This program is part of the open-source Quantum ESPRESSO suite
     for quantum simulation of materials; please cite
         "P. Giannozzi et al., J. Phys.:Condens. Matter 21 395502 (2009);
         "P. Giannozzi et al., J. Phys.:Condens. Matter 29 465901 (2017);
          URL http://www.quantum-espresso.org", 
     in publications or presentations arising from this work. More details at
     http://www.quantum-espresso.org/quote

     Serial version

     Reading xml data from directory:

     /projectsn/mp1009_1/Valeria/cWT-KEDF/Phases/Transition_Btin_hd/0.5/si_0.5_7_4_Btin_hd.save/

     Program POST-PROC v.6.5 starts on 11Aug2023 at 14:29:42 

     This program is part of the open-source Quantum ESPRESSO suite
     for quantum simulation of materials; please cite
         "P. Giannozzi et al., J. Phys.:Condens. Matter 21 395502 (2009);
         "P. Giannozzi et al., J. Phys.:Condens. Matter 29 465901 (2017);
          URL http://www.quantum-espresso.org", 
     in publications or presentations arising from this work. More details at
     http://www.quantum-espresso.org/quote

     Serial version

     Reading xml data from directory:

     /projectsn/mp1009_1/Valeria/cWT-KEDF/Phases/Transition_Btin_hd/0.5/si_0.5_7_4_Btin_hd.save/

     Program POST-PROC v.6.5 starts on 11Aug2023 at 14:29:42 

     This program is part of the open-source Quantum ESPRESSO suite
     for quantum simulation of materials; please cite
         "P. Giannozzi et al., J. Phys.:Condens. Matter 21 395502 (2009);
         "P. Giannozzi et al., J. Phys.:Condens. Matter 29 465901 (2017);
          URL http://www.quantum-espresso.org", 
     in publications or presentations arising from this work. More details at
     http://www.quantum-espresso.org/quote

     Serial version

     Reading xml data from directory:

     /projectsn/mp1009_1/Valeria/cWT-KEDF/Phases/Transition_Btin_hd/0.5/si_0.5_7_4_Btin_hd.save/

     Program POST-PROC v.6.5 starts on 11Aug2023 at 14:29:42 

     This program is part of the open-source Quantum ESPRESSO suite
     for quantum simulation of materials; please cite
         "P. Giannozzi et al., J. Phys.:Condens. Matter 21 395502 (2009);
         "P. Giannozzi et al., J. Phys.:Condens. Matter 29 465901 (2017);
          URL http://www.quantum-espresso.org", 
     in publications or presentations arising from this work. More details at
     http://www.quantum-espresso.org/quote

     Serial version

     Reading xml data from directory:

     /projectsn/mp1009_1/Valeria/cWT-KEDF/Phases/Transition_Btin_hd/0.5/si_0.5_7_4_Btin_hd.save/

     Program POST-PROC v.6.5 starts on 11Aug2023 at 14:29:42 

     This program is part of the open-source Quantum ESPRESSO suite
     for quantum simulation of materials; please cite
         "P. Giannozzi et al., J. Phys.:Condens. Matter 21 395502 (2009);
         "P. Giannozzi et al., J. Phys.:Condens. Matter 29 465901 (2017);
          URL http://www.quantum-espresso.org", 
     in publications or presentations arising from this work. More details at
     http://www.quantum-espresso.org/quote

     Serial version

     Reading xml data from directory:

     /projectsn/mp1009_1/Valeria/cWT-KEDF/Phases/Transition_Btin_hd/0.5/si_0.5_7_4_Btin_hd.save/

     Program POST-PROC v.6.5 starts on 11Aug2023 at 14:29:42 

     This program is part of the open-source Quantum ESPRESSO suite
     for quantum simulation of materials; please cite
         "P. Giannozzi et al., J. Phys.:Condens. Matter 21 395502 (2009);
         "P. Giannozzi et al., J. Phys.:Condens. Matter 29 465901 (2017);
          URL http://www.quantum-espresso.org", 
     in publications or presentations arising from this work. More details at
     http://www.quantum-espresso.org/quote

     Serial version

     Reading xml data from directory:

     /projectsn/mp1009_1/Valeria/cWT-KEDF/Phases/Transition_Btin_hd/0.5/si_0.5_7_4_Btin_hd.save/

     Program POST-PROC v.6.5 starts on 11Aug2023 at 14:29:42 

     This program is part of the open-source Quantum ESPRESSO suite
     for quantum simulation of materials; please cite
         "P. Giannozzi et al., J. Phys.:Condens. Matter 21 395502 (2009);
         "P. Giannozzi et al., J. Phys.:Condens. Matter 29 465901 (2017);
          URL http://www.quantum-espresso.org", 
     in publications or presentations arising from this work. More details at
     http://www.quantum-espresso.org/quote

     Serial version

     Reading xml data from directory:

     /projectsn/mp1009_1/Valeria/cWT-KEDF/Phases/Transition_Btin_hd/0.5/si_0.5_7_4_Btin_hd.save/

     Program POST-PROC v.6.5 starts on 11Aug2023 at 14:29:42 

     This program is part of the open-source Quantum ESPRESSO suite
     for quantum simulation of materials; please cite
         "P. Giannozzi et al., J. Phys.:Condens. Matter 21 395502 (2009);
         "P. Giannozzi et al., J. Phys.:Condens. Matter 29 465901 (2017);
          URL http://www.quantum-espresso.org", 
     in publications or presentations arising from this work. More details at
     http://www.quantum-espresso.org/quote

     Serial version

     Reading xml data from directory:

     /projectsn/mp1009_1/Valeria/cWT-KEDF/Phases/Transition_Btin_hd/0.5/si_0.5_7_4_Btin_hd.save/

     Program POST-PROC v.6.5 starts on 11Aug2023 at 14:29:42 

     This program is part of the open-source Quantum ESPRESSO suite
     for quantum simulation of materials; please cite
         "P. Giannozzi et al., J. Phys.:Condens. Matter 21 395502 (2009);
         "P. Giannozzi et al., J. Phys.:Condens. Matter 29 465901 (2017);
          URL http://www.quantum-espresso.org", 
     in publications or presentations arising from this work. More details at
     http://www.quantum-espresso.org/quote

     Serial version

     Reading xml data from directory:

     /projectsn/mp1009_1/Valeria/cWT-KEDF/Phases/Transition_Btin_hd/0.5/si_0.5_7_4_Btin_hd.save/

     Program POST-PROC v.6.5 starts on 11Aug2023 at 14:29:42 

     This program is part of the open-source Quantum ESPRESSO suite
     for quantum simulation of materials; please cite
         "P. Giannozzi et al., J. Phys.:Condens. Matter 21 395502 (2009);
         "P. Giannozzi et al., J. Phys.:Condens. Matter 29 465901 (2017);
          URL http://www.quantum-espresso.org", 
     in publications or presentations arising from this work. More details at
     http://www.quantum-espresso.org/quote

     Serial version

     Reading xml data from directory:

     /projectsn/mp1009_1/Valeria/cWT-KEDF/Phases/Transition_Btin_hd/0.5/si_0.5_7_4_Btin_hd.save/

     Program POST-PROC v.6.5 starts on 11Aug2023 at 14:29:42 

     This program is part of the open-source Quantum ESPRESSO suite
     for quantum simulation of materials; please cite
         "P. Giannozzi et al., J. Phys.:Condens. Matter 21 395502 (2009);
         "P. Giannozzi et al., J. Phys.:Condens. Matter 29 465901 (2017);
          URL http://www.quantum-espresso.org", 
     in publications or presentations arising from this work. More details at
     http://www.quantum-espresso.org/quote

     Serial version

     Reading xml data from directory:

     /projectsn/mp1009_1/Valeria/cWT-KEDF/Phases/Transition_Btin_hd/0.5/si_0.5_7_4_Btin_hd.save/

     IMPORTANT: XC functional enforced from input :
     Exchange-correlation= PZ
                           (   1   1   0   0   0   0   0)
     Any further DFT definition will be discarded
     Please, verify this is what you really want


     G-vector sticks info
     --------------------
     sticks:   dense  smooth     PW     G-vecs:    dense   smooth      PW
     Sum        1063    1063    319                27781    27781    4555


     IMPORTANT: XC functional enforced from input :
     Exchange-correlation= PZ
                           (   1   1   0   0   0   0   0)
     Any further DFT definition will be discarded
     Please, verify this is what you really want


     G-vector sticks info
     --------------------
     sticks:   dense  smooth     PW     G-vecs:    dense   smooth      PW
     Sum        1063    1063    319                27781    27781    4555


     IMPORTANT: XC functional enforced from input :
     Exchange-correlation= PZ
                           (   1   1   0   0   0   0   0)
     Any further DFT definition will be discarded
     Please, verify this is what you really want


     G-vector sticks info
     --------------------
     sticks:   dense  smooth     PW     G-vecs:    dense   smooth      PW
     Sum        1063    1063    319                27781    27781    4555


     IMPORTANT: XC functional enforced from input :
     Exchange-correlation= PZ
                           (   1   1   0   0   0   0   0)
     Any further DFT definition will be discarded
     Please, verify this is what you really want


     G-vector sticks info
     --------------------
     sticks:   dense  smooth     PW     G-vecs:    dense   smooth      PW
     Sum        1063    1063    319                27781    27781    4555


     IMPORTANT: XC functional enforced from input :
     Exchange-correlation= PZ
                           (   1   1   0   0   0   0   0)
     Any further DFT definition will be discarded
     Please, verify this is what you really want


     G-vector sticks info
     --------------------
     sticks:   dense  smooth     PW     G-vecs:    dense   smooth      PW
     Sum        1063    1063    319                27781    27781    4555


     IMPORTANT: XC functional enforced from input :
     Exchange-correlation= PZ
                           (   1   1   0   0   0   0   0)
     Any further DFT definition will be discarded
     Please, verify this is what you really want


     IMPORTANT: XC functional enforced from input :
     Exchange-correlation= PZ
                           (   1   1   0   0   0   0   0)
     Any further DFT definition will be discarded
     Please, verify this is what you really want


     G-vector sticks info
     --------------------
     sticks:   dense  smooth     PW     G-vecs:    dense   smooth      PW
     Sum        1063    1063    319                27781    27781    4555


     G-vector sticks info
     --------------------
     sticks:   dense  smooth     PW     G-vecs:    dense   smooth      PW
     Sum        1063    1063    319                27781    27781    4555


     IMPORTANT: XC functional enforced from input :
     Exchange-correlation= PZ
                           (   1   1   0   0   0   0   0)
     Any further DFT definition will be discarded
     Please, verify this is what you really want


     G-vector sticks info
     --------------------
     sticks:   dense  smooth     PW     G-vecs:    dense   smooth      PW
     Sum        1063    1063    319                27781    27781    4555


     IMPORTANT: XC functional enforced from input :
     Exchange-correlation= PZ
                           (   1   1   0   0   0   0   0)
     Any further DFT definition will be discarded
     Please, verify this is what you really want


     G-vector sticks info
     --------------------
     sticks:   dense  smooth     PW     G-vecs:    dense   smooth      PW
     Sum        1063    1063    319                27781    27781    4555


     IMPORTANT: XC functional enforced from input :
     Exchange-correlation= PZ
                           (   1   1   0   0   0   0   0)
     Any further DFT definition will be discarded
     Please, verify this is what you really want


     G-vector sticks info
     --------------------
     sticks:   dense  smooth     PW     G-vecs:    dense   smooth      PW
     Sum        1063    1063    319                27781    27781    4555


     IMPORTANT: XC functional enforced from input :
     Exchange-correlation= PZ
                           (   1   1   0   0   0   0   0)
     Any further DFT definition will be discarded
     Please, verify this is what you really want


     G-vector sticks info
     --------------------
     sticks:   dense  smooth     PW     G-vecs:    dense   smooth      PW
     Sum        1063    1063    319                27781    27781    4555


     Calling punch_plot, plot_num =   0
     Writing data to file  tmp.pp

     Calling punch_plot, plot_num =   0
     Writing data to file  tmp.pp

     IMPORTANT: XC functional enforced from input :
     Exchange-correlation= PZ
                           (   1   1   0   0   0   0   0)
     Any further DFT definition will be discarded
     Please, verify this is what you really want


     G-vector sticks info
     --------------------
     sticks:   dense  smooth     PW     G-vecs:    dense   smooth      PW
     Sum        1063    1063    319                27781    27781    4555

     Reading data from file  tmp.pp

     IMPORTANT: XC functional enforced from input :
     Exchange-correlation= PZ
                           (   1   1   0   0   0   0   0)
     Any further DFT definition will be discarded
     Please, verify this is what you really want


     IMPORTANT: XC functional enforced from input :
     Exchange-correlation= PZ
                           (   1   1   0   0   0   0   0)
     Any further DFT definition will be discarded
     Please, verify this is what you really want


     G-vector sticks info
     --------------------
     sticks:   dense  smooth     PW     G-vecs:    dense   smooth      PW
     Sum        1063    1063    319                27781    27781    4555

     Reading data from file  tmp.pp

     G-vector sticks info
     --------------------
     sticks:   dense  smooth     PW     G-vecs:    dense   smooth      PW
     Sum        1063    1063    319                27781    27781    4555


     Writing data to be plotted to file si_0.5_7_4_Btin_hd.xsf

     Writing data to be plotted to file si_0.5_7_4_Btin_hd.xsf

     IMPORTANT: XC functional enforced from input :
     Exchange-correlation= PZ
                           (   1   1   0   0   0   0   0)
     Any further DFT definition will be discarded
     Please, verify this is what you really want


     G-vector sticks info
     --------------------
     sticks:   dense  smooth     PW     G-vecs:    dense   smooth      PW
     Sum        1063    1063    319                27781    27781    4555


     Calling punch_plot, plot_num =   0
     Writing data to file  tmp.pp
     Plot Type: 3D                     Output format: XCrySDen     

     POST-PROC    :      3.52s CPU      3.71s WALL


   This run was terminated on:  14:29:45  11Aug2023            

=------------------------------------------------------------------------------=
   JOB DONE.
=------------------------------------------------------------------------------=
     Plot Type: 3D                     Output format: XCrySDen     

     POST-PROC    :      3.53s CPU      3.68s WALL


   This run was terminated on:  14:29:45  11Aug2023            

=------------------------------------------------------------------------------=
   JOB DONE.
=------------------------------------------------------------------------------=

     Calling punch_plot, plot_num =   0
     Writing data to file  tmp.pp

     Calling punch_plot, plot_num =   0
     Writing data to file  tmp.pp

     Calling punch_plot, plot_num =   0
     Writing data to file  tmp.pp

     Calling punch_plot, plot_num =   0
     Writing data to file  tmp.pp

     IMPORTANT: XC functional enforced from input :
     Exchange-correlation= PZ
                           (   1   1   0   0   0   0   0)
     Any further DFT definition will be discarded
     Please, verify this is what you really want


     G-vector sticks info
     --------------------
     sticks:   dense  smooth     PW     G-vecs:    dense   smooth      PW
     Sum        1063    1063    319                27781    27781    4555


     IMPORTANT: XC functional enforced from input :
     Exchange-correlation= PZ
                           (   1   1   0   0   0   0   0)
     Any further DFT definition will be discarded
     Please, verify this is what you really want


     IMPORTANT: XC functional enforced from input :
     Exchange-correlation= PZ
                           (   1   1   0   0   0   0   0)
     Any further DFT definition will be discarded
     Please, verify this is what you really want


     G-vector sticks info
     --------------------
     sticks:   dense  smooth     PW     G-vecs:    dense   smooth      PW
     Sum        1063    1063    319                27781    27781    4555


     G-vector sticks info
     --------------------
     sticks:   dense  smooth     PW     G-vecs:    dense   smooth      PW
     Sum        1063    1063    319                27781    27781    4555

     Reading data from file  tmp.pp
     Reading data from file  tmp.pp

     Calling punch_plot, plot_num =   0
     Writing data to file  tmp.pp

     Calling punch_plot, plot_num =   0
     Writing data to file  tmp.pp

     Calling punch_plot, plot_num =   0
     Writing data to file  tmp.pp

     Calling punch_plot, plot_num =   0
     Writing data to file  tmp.pp
     Reading data from file  tmp.pp
     Reading data from file  tmp.pp
     Reading data from file  tmp.pp

     Calling punch_plot, plot_num =   0
     Writing data to file  tmp.pp

     IMPORTANT: XC functional enforced from input :
     Exchange-correlation= PZ
                           (   1   1   0   0   0   0   0)
     Any further DFT definition will be discarded
     Please, verify this is what you really want


     G-vector sticks info
     --------------------
     sticks:   dense  smooth     PW     G-vecs:    dense   smooth      PW
     Sum        1063    1063    319                27781    27781    4555


     Calling punch_plot, plot_num =   0
     Writing data to file  tmp.pp

     Calling punch_plot, plot_num =   0
     Writing data to file  tmp.pp
     Reading data from file  tmp.pp

     IMPORTANT: XC functional enforced from input :
     Exchange-correlation= PZ
                           (   1   1   0   0   0   0   0)
     Any further DFT definition will be discarded
     Please, verify this is what you really want


     G-vector sticks info
     --------------------
     sticks:   dense  smooth     PW     G-vecs:    dense   smooth      PW
     Sum        1063    1063    319                27781    27781    4555


     Calling punch_plot, plot_num =   0
     Writing data to file  tmp.pp
     Reading data from file  tmp.pp
     Reading data from file  tmp.pp
     Reading data from file  tmp.pp
     Reading data from file  tmp.pp

     Writing data to be plotted to file si_0.5_7_4_Btin_hd.xsf

     Writing data to be plotted to file si_0.5_7_4_Btin_hd.xsf
     Reading data from file  tmp.pp
     Reading data from file  tmp.pp
     Reading data from file  tmp.pp

     Calling punch_plot, plot_num =   0
     Writing data to file  tmp.pp

     Calling punch_plot, plot_num =   0
     Writing data to file  tmp.pp

     Calling punch_plot, plot_num =   0
     Writing data to file  tmp.pp
     Plot Type: 3D                     Output format: XCrySDen     

     POST-PROC    :      3.48s CPU      3.70s WALL


   This run was terminated on:  14:29:46  11Aug2023            

=------------------------------------------------------------------------------=
   JOB DONE.
=------------------------------------------------------------------------------=
     Plot Type: 3D                     Output format: XCrySDen     

     POST-PROC    :      3.39s CPU      3.64s WALL


   This run was terminated on:  14:29:46  11Aug2023            

=------------------------------------------------------------------------------=
   JOB DONE.
=------------------------------------------------------------------------------=
     Reading data from file  tmp.pp
     Reading data from file  tmp.pp
     Reading data from file  tmp.pp

     Writing data to be plotted to file si_0.5_7_4_Btin_hd.xsf

     Writing data to be plotted to file si_0.5_7_4_Btin_hd.xsf

     Writing data to be plotted to file si_0.5_7_4_Btin_hd.xsf
     Plot Type: 3D                     Output format: XCrySDen     

     POST-PROC    :      3.54s CPU      3.66s WALL


   This run was terminated on:  14:29:46  11Aug2023            

=------------------------------------------------------------------------------=
   JOB DONE.
=------------------------------------------------------------------------------=

     Calling punch_plot, plot_num =   0
     Writing data to file  tmp.pp
     Plot Type: 3D                     Output format: XCrySDen     

     POST-PROC    :      3.55s CPU      3.68s WALL


   This run was terminated on:  14:29:46  11Aug2023            

=------------------------------------------------------------------------------=
   JOB DONE.
=------------------------------------------------------------------------------=
     Plot Type: 3D                     Output format: XCrySDen     

     POST-PROC    :      3.59s CPU      3.70s WALL


   This run was terminated on:  14:29:46  11Aug2023            

=------------------------------------------------------------------------------=
   JOB DONE.
=------------------------------------------------------------------------------=

     Calling punch_plot, plot_num =   0
     Writing data to file  tmp.pp
     Reading data from file  tmp.pp
     Reading data from file  tmp.pp

     Writing data to be plotted to file si_0.5_7_4_Btin_hd.xsf

     Writing data to be plotted to file si_0.5_7_4_Btin_hd.xsf
     Plot Type: 3D                     Output format: XCrySDen     

     POST-PROC    :      3.69s CPU      3.81s WALL


   This run was terminated on:  14:29:46  11Aug2023            

=------------------------------------------------------------------------------=
   JOB DONE.
=------------------------------------------------------------------------------=
     Plot Type: 3D                     Output format: XCrySDen     

     POST-PROC    :      3.71s CPU      3.83s WALL


   This run was terminated on:  14:29:46  11Aug2023            

=------------------------------------------------------------------------------=
   JOB DONE.
=------------------------------------------------------------------------------=
