 CRYSTAL
 PRIMVEC
    4.605530037    0.000008512   -0.000000000
   -1.017326612    4.332940525   -0.000000000
   -0.000000000   -0.000000000    4.761689593
 PRIMCOORD
           4           1
Si       -0.098151947    1.055638220    1.608636993
Si        2.306257316    1.831949912    0.661883754
Si        0.098162077    2.579236264    3.763423259
Si        2.299277335    0.628211609    2.781245526
BEGIN_BLOCK_DATAGRID_3D
3D_PWSCF
BEGIN_DATAGRID_3D_UNKNOWN
          46          46          46
  0.000000  0.000000  0.000000
    4.605530    0.000009   -0.000000
   -1.017327    4.332941   -0.000000
   -0.000000   -0.000000    4.761690
  0.516045E-02  0.523677E-02  0.529730E-02  0.534425E-02  0.538136E-02  0.541363E-02
  0.544651E-02  0.548507E-02  0.553353E-02  0.559538E-02  0.567356E-02  0.577020E-02
  0.588598E-02  0.601954E-02  0.616722E-02  0.632335E-02  0.648051E-02  0.662960E-02
  0.676008E-02  0.686065E-02  0.692051E-02  0.693086E-02  0.688584E-02  0.678325E-02
  0.662487E-02  0.641697E-02  0.617001E-02  0.589756E-02  0.561441E-02  0.533487E-02
  0.507184E-02  0.483653E-02  0.463818E-02  0.448355E-02  0.437631E-02  0.431675E-02
  0.430233E-02  0.432861E-02  0.439002E-02  0.448005E-02  0.459099E-02  0.471395E-02
  0.483960E-02  0.495957E-02  0.506767E-02  0.516045E-02  0.550306E-02  0.554936E-02
  0.557181E-02  0.557418E-02  0.556243E-02  0.554439E-02  0.552898E-02  0.552509E-02
  0.554066E-02  0.558224E-02  0.565498E-02  0.576251E-02  0.590646E-02  0.608594E-02
  0.629710E-02  0.653301E-02  0.678355E-02  0.703548E-02  0.727295E-02  0.747866E-02
  0.763577E-02  0.772982E-02  0.775030E-02  0.769173E-02  0.755433E-02  0.734442E-02
  0.707415E-02  0.676035E-02  0.642243E-02  0.608022E-02  0.575208E-02  0.545371E-02
  0.519750E-02  0.499211E-02  0.484230E-02  0.474907E-02  0.471020E-02  0.472093E-02
  0.477455E-02  0.486246E-02  0.497432E-02  0.509841E-02  0.522274E-02  0.533653E-02
  0.543160E-02  0.550306E-02  0.597270E-02  0.599707E-02  0.598892E-02  0.595338E-02
  0.589859E-02  0.583519E-02  0.577545E-02  0.573205E-02  0.571673E-02  0.573925E-02
  0.580715E-02  0.592569E-02  0.609788E-02  0.632400E-02  0.660095E-02  0.692140E-02
  0.727319E-02  0.763909E-02  0.799751E-02  0.832439E-02  0.859558E-02  0.878950E-02
  0.888921E-02  0.888431E-02  0.877217E-02  0.855869E-02  0.825790E-02  0.789052E-02
  0.748152E-02  0.705741E-02  0.664341E-02  0.626124E-02  0.592770E-02  0.565412E-02
  0.544664E-02  0.530694E-02  0.523307E-02  0.522010E-02  0.526035E-02  0.534335E-02
  0.545603E-02  0.558360E-02  0.571106E-02  0.582488E-02  0.591440E-02  0.597270E-02
  0.655937E-02  0.656919E-02  0.653738E-02  0.647004E-02  0.637742E-02  0.627292E-02
  0.617214E-02  0.609156E-02  0.604685E-02  0.605132E-02  0.611533E-02  0.624636E-02
  0.644939E-02  0.672654E-02  0.707609E-02  0.749098E-02  0.795736E-02  0.845402E-02
  0.895330E-02  0.942347E-02  0.983192E-02  0.101483E-01  0.103470E-01  0.104105E-01
  0.103313E-01  0.101141E-01  0.977500E-02  0.933968E-02  0.884000E-02  0.831041E-02
  0.778437E-02  0.729125E-02  0.685396E-02  0.648807E-02  0.620212E-02  0.599879E-02
  0.587621E-02  0.582885E-02  0.584782E-02  0.592078E-02  0.603206E-02  0.616375E-02
  0.629749E-02  0.641648E-02  0.650697E-02  0.655937E-02  0.725278E-02  0.725494E-02
  0.720621E-02  0.711321E-02  0.698801E-02  0.684669E-02  0.670811E-02  0.659253E-02
  0.651970E-02  0.650697E-02  0.656830E-02  0.671436E-02  0.695297E-02  0.728874E-02
  0.772179E-02  0.824554E-02  0.884466E-02  0.949400E-02  0.101595E-01  0.108012E-01
  0.113766E-01  0.118447E-01  0.121692E-01  0.123222E-01  0.122887E-01  0.120707E-01
  0.116863E-01  0.111676E-01  0.105550E-01  0.989246E-02  0.922329E-02  0.858594E-02
  0.801130E-02  0.752121E-02  0.712843E-02  0.683780E-02  0.664778E-02  0.655175E-02
  0.653882E-02  0.659418E-02  0.669942E-02  0.683359E-02  0.697491E-02  0.710282E-02
  0.719977E-02  0.725278E-02  0.804219E-02  0.804334E-02  0.798451E-02  0.787234E-02
  0.772029E-02  0.754686E-02  0.737408E-02  0.722591E-02  0.712635E-02  0.709734E-02
  0.715751E-02  0.732199E-02  0.760252E-02  0.800687E-02  0.853719E-02  0.918752E-02
  0.994128E-02  0.107697E-01  0.116323E-01  0.124800E-01  0.132594E-01  0.139166E-01
  0.144013E-01  0.146721E-01  0.147037E-01  0.144925E-01  0.140583E-01  0.134403E-01
  0.126896E-01  0.118624E-01  0.110138E-01  0.101933E-01  0.944141E-02  0.878822E-02
  0.825258E-02  0.784324E-02  0.756010E-02  0.739562E-02  0.733624E-02  0.736358E-02
  0.745569E-02  0.758830E-02  0.773625E-02  0.787503E-02  0.798273E-02  0.804219E-02
  0.891687E-02  0.892352E-02  0.886165E-02  0.873722E-02  0.856460E-02  0.836436E-02
  0.816152E-02  0.798371E-02  0.785932E-02  0.781546E-02  0.787654E-02  0.806346E-02
  0.839303E-02  0.887684E-02  0.951941E-02  0.103157E-01  0.112486E-01  0.122863E-01
  0.133825E-01  0.144784E-01  0.155073E-01  0.163996E-01  0.170877E-01  0.175132E-01
  0.176366E-01  0.174462E-01  0.169615E-01  0.162290E-01  0.153124E-01  0.142832E-01
  0.132119E-01  0.121623E-01  0.111872E-01  0.103262E-01  0.960556E-02  0.903925E-02
  0.862994E-02  0.837028E-02  0.824425E-02  0.822920E-02  0.829837E-02  0.842319E-02
  0.857468E-02  0.872441E-02  0.884580E-02  0.891687E-02  0.986697E-02  0.988548E-02
  0.982781E-02  0.969838E-02  0.951181E-02  0.929046E-02  0.906215E-02  0.885823E-02
  0.871170E-02  0.865531E-02  0.872012E-02  0.893389E-02  0.931950E-02  0.989311E-02
  0.106623E-01  0.116241E-01  0.127617E-01  0.140421E-01  0.154133E-01  0.168061E-01
  0.181383E-01  0.193207E-01  0.202640E-01  0.208892E-01  0.211393E-01  0.209914E-01
  0.204621E-01  0.196036E-01  0.184929E-01  0.172198E-01  0.158751E-01  0.145422E-01
  0.132900E-01  0.121703E-01  0.112176E-01  0.104511E-01  0.987682E-02  0.948863E-02
  0.926925E-02  0.919216E-02  0.922504E-02  0.933358E-02  0.948388E-02  0.964307E-02
  0.977983E-02  0.986697E-02  0.108847E-01  0.109214E-01  0.108755E-01  0.107487E-01
  0.105551E-01  0.103184E-01  0.100692E-01  0.984279E-02  0.967717E-02  0.961123E-02
  0.968315E-02  0.992815E-02  0.103758E-01  0.110479E-01  0.119562E-01  0.131013E-01
  0.144691E-01  0.160261E-01  0.177158E-01  0.194575E-01  0.211508E-01  0.226827E-01
  0.239385E-01  0.248143E-01  0.252329E-01  0.251577E-01  0.245993E-01  0.236125E-01
  0.222860E-01  0.207293E-01  0.190578E-01  0.173808E-01  0.157897E-01  0.143530E-01
  0.131154E-01  0.121015E-01  0.113198E-01  0.107652E-01  0.104202E-01  0.102558E-01
  0.102345E-01  0.103155E-01  0.104584E-01  0.106246E-01  0.107776E-01  0.108847E-01
  0.119661E-01  0.120276E-01  0.120016E-01  0.118858E-01  0.116926E-01  0.114464E-01
  0.111805E-01  0.109346E-01  0.107523E-01  0.106791E-01  0.107608E-01  0.110403E-01
  0.115543E-01  0.123308E-01  0.133878E-01  0.147315E-01  0.163520E-01  0.182168E-01
  0.202647E-01  0.224027E-01  0.245098E-01  0.264462E-01  0.280678E-01  0.292437E-01
  0.298751E-01  0.299102E-01  0.293507E-01  0.282498E-01  0.267033E-01  0.248380E-01
  0.227959E-01  0.207170E-01  0.187225E-01  0.169043E-01  0.153226E-01  0.140090E-01
  0.129743E-01  0.122131E-01  0.117071E-01  0.114259E-01  0.113282E-01  0.113672E-01
  0.114947E-01  0.116650E-01  0.118351E-01  0.119661E-01  0.131123E-01  0.132059E-01
  0.132090E-01  0.131138E-01  0.129295E-01  0.126803E-01  0.124017E-01  0.121382E-01
  0.119396E-01  0.118592E-01  0.119507E-01  0.122648E-01  0.128457E-01  0.137288E-01
  0.149400E-01  0.164929E-01  0.183830E-01  0.205791E-01  0.230141E-01  0.255814E-01
  0.281377E-01  0.305143E-01  0.325365E-01  0.340467E-01  0.349267E-01  0.351115E-01
  0.345929E-01  0.334164E-01  0.316766E-01  0.295095E-01  0.270801E-01  0.245606E-01
  0.221079E-01  0.198456E-01  0.178568E-01  0.161865E-01  0.148498E-01  0.138405E-01
  0.131377E-01  0.127089E-01  0.125104E-01  0.124902E-01  0.125930E-01  0.127642E-01
  0.129526E-01  0.131123E-01  0.143300E-01  0.144641E-01  0.145066E-01  0.144428E-01
  0.142773E-01  0.140326E-01  0.137457E-01  0.134656E-01  0.132492E-01  0.131580E-01
  0.132548E-01  0.135983E-01  0.142408E-01  0.152265E-01  0.165905E-01  0.183556E-01
  0.205232E-01  0.230615E-01  0.258956E-01  0.289023E-01  0.319137E-01  0.347307E-01
  0.371489E-01  0.389900E-01  0.401261E-01  0.404884E-01  0.400625E-01  0.388802E-01
  0.370199E-01  0.346101E-01  0.318255E-01  0.288666E-01  0.259286E-01  0.231747E-01
  0.207215E-01  0.186369E-01  0.169471E-01  0.156474E-01  0.147135E-01  0.141086E-01
  0.137857E-01  0.136893E-01  0.137575E-01  0.139267E-01  0.141357E-01  0.143300E-01
  0.156306E-01  0.158154E-01  0.159083E-01  0.158876E-01  0.157517E-01  0.155198E-01
  0.152296E-01  0.149337E-01  0.146960E-01  0.145873E-01  0.146796E-01  0.150407E-01
  0.157318E-01  0.168068E-01  0.183121E-01  0.202806E-01  0.227194E-01  0.255943E-01
  0.288186E-01  0.322478E-01  0.356834E-01  0.388926E-01  0.416440E-01  0.437500E-01
  0.450939E-01  0.456262E-01  0.453400E-01  0.442508E-01  0.424002E-01  0.398790E-01
  0.368446E-01  0.335099E-01  0.301072E-01  0.268474E-01  0.238921E-01  0.213448E-01
  0.192540E-01  0.176236E-01  0.164273E-01  0.156223E-01  0.151563E-01  0.149697E-01
  0.149952E-01  0.151605E-01  0.153942E-01  0.156306E-01  0.170273E-01  0.172748E-01
  0.174312E-01  0.174659E-01  0.173707E-01  0.171602E-01  0.168714E-01  0.165600E-01
  0.162964E-01  0.161604E-01  0.162339E-01  0.165944E-01  0.173125E-01  0.184530E-01
  0.200745E-01  0.222213E-01  0.249065E-01  0.280923E-01  0.316761E-01  0.354842E-01
  0.392782E-01  0.427832E-01  0.457413E-01  0.479718E-01  0.493997E-01  0.500324E-01
  0.499001E-01  0.490098E-01  0.473471E-01  0.449241E-01  0.418348E-01  0.382719E-01
  0.344934E-01  0.307635E-01  0.273033E-01  0.242675E-01  0.217406E-01  0.197461E-01
  0.182618E-01  0.172392E-01  0.166184E-01  0.163334E-01  0.163118E-01  0.164742E-01
  0.167385E-01  0.170273E-01  0.185304E-01  0.188563E-01  0.190918E-01  0.191964E-01
  0.191536E-01  0.189732E-01  0.186900E-01  0.183621E-01  0.180658E-01  0.178898E-01
  0.179261E-01  0.182622E-01  0.189781E-01  0.201496E-01  0.218480E-01  0.241299E-01
  0.270155E-01  0.304641E-01  0.343552E-01  0.384784E-01  0.425428E-01  0.462181E-01
  0.492157E-01  0.513751E-01  0.526967E-01  0.532894E-01  0.532633E-01  0.526416E-01
  0.513482E-01  0.492790E-01  0.464069E-01  0.428509E-01  0.388651E-01  0.347649E-01
  0.308451E-01  0.273295E-01  0.243551E-01  0.219781E-01  0.201896E-01  0.189397E-01
  0.181597E-01  0.177751E-01  0.177075E-01  0.178716E-01  0.181758E-01  0.185304E-01
  0.201435E-01  0.205678E-01  0.209025E-01  0.210949E-01  0.211191E-01  0.209784E-01
  0.207051E-01  0.203584E-01  0.200202E-01  0.197878E-01  0.197637E-01  0.200456E-01
  0.207232E-01  0.218823E-01  0.236058E-01  0.259627E-01  0.289822E-01  0.326238E-01
  0.367506E-01  0.411135E-01  0.453586E-01  0.490859E-01  0.519654E-01  0.538605E-01
  0.548694E-01  0.552398E-01  0.552050E-01  0.548420E-01  0.540323E-01  0.525418E-01
  0.501746E-01  0.469122E-01  0.429542E-01  0.386474E-01  0.343667E-01  0.304223E-01
  0.270211E-01  0.242655E-01  0.221714E-01  0.206940E-01  0.197581E-01  0.192797E-01
  0.191734E-01  0.193483E-01  0.197057E-01  0.201435E-01  0.218589E-01  0.224061E-01
  0.228651E-01  0.231683E-01  0.232784E-01  0.231905E-01  0.229331E-01  0.225655E-01
  0.221743E-01  0.218654E-01  0.217524E-01  0.219441E-01  0.225401E-01  0.236351E-01
  0.253220E-01  0.276809E-01  0.307514E-01  0.344976E-01  0.387734E-01  0.432964E-01
  0.476501E-01  0.513562E-01  0.540287E-01  0.555430E-01  0.560941E-01  0.560818E-01
  0.558895E-01  0.556866E-01  0.553523E-01  0.545456E-01  0.528893E-01  0.501790E-01
  0.464997E-01  0.421888E-01  0.376901E-01  0.334092E-01  0.296366E-01  0.265341E-01
  0.241520E-01  0.224595E-01  0.213797E-01  0.208204E-01  0.206886E-01  0.208890E-01
  0.213167E-01  0.218589E-01  0.236553E-01  0.243524E-01  0.249642E-01  0.254055E-01
  0.256250E-01  0.256080E-01  0.253767E-01  0.249889E-01  0.245344E-01  0.241273E-01
  0.238927E-01  0.239519E-01  0.244156E-01  0.253871E-01  0.269675E-01  0.292463E-01
  0.322738E-01  0.360230E-01  0.403492E-01  0.449522E-01  0.493680E-01  0.530448E-01
  0.555281E-01  0.566773E-01  0.567533E-01  0.562887E-01  0.558168E-01  0.556239E-01
  0.556326E-01  0.554483E-01  0.545452E-01  0.525246E-01  0.493137E-01  0.451892E-01
  0.406321E-01  0.361351E-01  0.320772E-01  0.286867E-01  0.260565E-01  0.241769E-01
  0.229759E-01  0.223564E-01  0.222194E-01  0.224651E-01  0.229844E-01  0.236553E-01
  0.254949E-01  0.263693E-01  0.271624E-01  0.277701E-01  0.281253E-01  0.282009E-01
  0.280109E-01  0.276088E-01  0.270850E-01  0.265600E-01  0.261707E-01  0.260521E-01
  0.263276E-01  0.271100E-01  0.285078E-01  0.306183E-01  0.335019E-01  0.371444E-01
  0.414132E-01  0.460121E-01  0.504595E-01  0.541530E-01  0.565670E-01  0.575082E-01
  0.572459E-01  0.563917E-01  0.556009E-01  0.552791E-01  0.554289E-01  0.556630E-01
  0.553731E-01  0.540058E-01  0.513248E-01  0.475079E-01  0.430301E-01  0.384438E-01
  0.342052E-01  0.306081E-01  0.277901E-01  0.257683E-01  0.244812E-01  0.238320E-01
  0.237174E-01  0.240342E-01  0.246700E-01  0.254949E-01  0.273215E-01  0.283978E-01
  0.293973E-01  0.301967E-01  0.307122E-01  0.309034E-01  0.307736E-01  0.303688E-01
  0.297767E-01  0.291213E-01  0.285494E-01  0.282105E-01  0.282422E-01  0.287684E-01
  0.299050E-01  0.317563E-01  0.343925E-01  0.378141E-01  0.419100E-01  0.464102E-01
  0.508516E-01  0.546216E-01  0.571391E-01  0.581271E-01  0.577918E-01  0.567448E-01
  0.557066E-01  0.551841E-01  0.552776E-01  0.556591E-01  0.557128E-01  0.548025E-01
  0.525668E-01  0.490763E-01  0.447620E-01  0.401960E-01  0.358854E-01  0.321761E-01
  0.292467E-01  0.271419E-01  0.258157E-01  0.251760E-01  0.251185E-01  0.255375E-01
  0.263172E-01  0.273215E-01  0.290572E-01  0.303556E-01  0.315801E-01  0.325897E-01
  0.332846E-01  0.336114E-01  0.335618E-01  0.331717E-01  0.325217E-01  0.317346E-01
  0.309639E-01  0.303723E-01  0.301127E-01  0.303214E-01  0.311227E-01  0.326274E-01
  0.349151E-01  0.380025E-01  0.418054E-01  0.460961E-01  0.504641E-01  0.543328E-01
  0.571020E-01  0.584042E-01  0.583205E-01  0.573714E-01  0.562641E-01  0.555647E-01
  0.554691E-01  0.557435E-01  0.558305E-01  0.550937E-01  0.531127E-01  0.498749E-01
  0.457480E-01  0.412832E-01  0.370016E-01  0.332784E-01  0.303224E-01  0.282031E-01
  0.268922E-01  0.263067E-01  0.263445E-01  0.268985E-01  0.278502E-01  0.290572E-01
  0.306022E-01  0.321365E-01  0.335970E-01  0.348267E-01  0.357120E-01  0.361886E-01
  0.362377E-01  0.358839E-01  0.351964E-01  0.342910E-01  0.333221E-01  0.324625E-01
  0.318799E-01  0.317243E-01  0.321291E-01  0.332117E-01  0.350606E-01  0.377087E-01
  0.411008E-01  0.450589E-01  0.492455E-01  0.531605E-01  0.562330E-01  0.580303E-01
  0.584815E-01  0.579390E-01  0.570078E-01  0.562485E-01  0.559282E-01  0.559218E-01
  0.557801E-01  0.549395E-01  0.529947E-01  0.498927E-01  0.459380E-01  0.416302E-01
  0.374677E-01  0.338267E-01  0.309306E-01  0.288678E-01  0.276279E-01  0.271402E-01
  0.273087E-01  0.280272E-01  0.291744E-01  0.306022E-01  0.318425E-01  0.336175E-01
  0.353167E-01  0.367683E-01  0.378470E-01  0.384805E-01  0.386429E-01  0.383484E-01
  0.376522E-01  0.366568E-01  0.355097E-01  0.343882E-01  0.334724E-01  0.329268E-01
  0.328950E-01  0.335010E-01  0.348412E-01  0.369635E-01  0.398407E-01  0.433433E-01
  0.472117E-01  0.510432E-01  0.543400E-01  0.566539E-01  0.577812E-01  0.578726E-01
  0.573565E-01  0.567116E-01  0.562295E-01  0.558859E-01  0.553672E-01  0.542365E-01
  0.521637E-01  0.491004E-01  0.453002E-01  0.411955E-01  0.372330E-01  0.337648E-01
  0.310119E-01  0.290739E-01  0.279561E-01  0.276028E-01  0.279279E-01  0.288293E-01
  0.301852E-01  0.318425E-01  0.326663E-01  0.346756E-01  0.366073E-01  0.382757E-01
  0.395447E-01  0.403361E-01  0.406207E-01  0.404056E-01  0.397325E-01  0.386855E-01
  0.373977E-01  0.360420E-01  0.348067E-01  0.338702E-01  0.333879E-01  0.334909E-01
  0.342819E-01  0.358212E-01  0.381058E-01  0.410486E-01  0.444598E-01  0.480339E-01
  0.513692E-01  0.540526E-01  0.558025E-01  0.565885E-01  0.566320E-01  0.562681E-01
  0.557544E-01  0.551365E-01  0.542370E-01  0.527694E-01  0.505146E-01  0.474607E-01
  0.438269E-01  0.399756E-01  0.362876E-01  0.330737E-01  0.305393E-01  0.287867E-01
  0.278337E-01  0.276405E-01  0.281347E-01  0.292226E-01  0.307850E-01  0.326663E-01
  0.329847E-01  0.352085E-01  0.373571E-01  0.392320E-01  0.406850E-01  0.416319E-01
  0.420420E-01  0.419198E-01  0.412964E-01  0.402373E-01  0.388552E-01  0.373104E-01
  0.357918E-01  0.344889E-01  0.335701E-01  0.331749E-01  0.334111E-01  0.343472E-01
  0.359987E-01  0.383127E-01  0.411553E-01  0.443035E-01  0.474508E-01  0.502501E-01
  0.524030E-01  0.537585E-01  0.543545E-01  0.543608E-01  0.539544E-01  0.532063E-01
  0.520483E-01  0.503353E-01  0.479639E-01  0.449714E-01  0.415557E-01  0.380168E-01
  0.346695E-01  0.317772E-01  0.295223E-01  0.280029E-01  0.272457E-01  0.272262E-01
  0.278882E-01  0.291504E-01  0.309005E-01  0.329847E-01  0.327454E-01  0.351505E-01
  0.374903E-01  0.395558E-01  0.411855E-01  0.422857E-01  0.428222E-01  0.427991E-01
  0.422420E-01  0.412020E-01  0.397707E-01  0.380899E-01  0.363411E-01  0.347192E-01
  0.334044E-01  0.325459E-01  0.322563E-01  0.326083E-01  0.336292E-01  0.352908E-01
  0.375017E-01  0.401020E-01  0.428646E-01  0.455153E-01  0.477812E-01  0.494580E-01
  0.504603E-01  0.508161E-01  0.506055E-01  0.498861E-01  0.486548E-01  0.468725E-01
  0.445296E-01  0.417069E-01  0.385880E-01  0.354225E-01  0.324680E-01  0.299444E-01
  0.280091E-01  0.267527E-01  0.262072E-01  0.263623E-01  0.271784E-01  0.285894E-01
  0.304942E-01  0.327454E-01  0.319370E-01  0.344776E-01  0.369717E-01  0.392043E-01
  0.410011E-01  0.422537E-01  0.429191E-01  0.429986E-01  0.425163E-01  0.415154E-01
  0.400717E-01  0.383076E-01  0.363910E-01  0.345147E-01  0.328665E-01  0.316048E-01
  0.308476E-01  0.306697E-01  0.311034E-01  0.321363E-01  0.337073E-01  0.357031E-01
  0.379575E-01  0.402599E-01  0.423805E-01  0.441113E-01  0.453078E-01  0.459055E-01
  0.459031E-01  0.453243E-01  0.441901E-01  0.425211E-01  0.403661E-01  0.378320E-01
  0.350887E-01  0.323461E-01  0.298169E-01  0.276846E-01  0.260847E-01  0.250995E-01
  0.247645E-01  0.250814E-01  0.260269E-01  0.275511E-01  0.295665E-01  0.319370E-01
  0.305865E-01  0.332058E-01  0.358048E-01  0.381699E-01  0.401164E-01  0.415188E-01
  0.423183E-01  0.425073E-01  0.421078E-01  0.411608E-01  0.397337E-01  0.379342E-01
  0.359147E-01  0.338591E-01  0.319556E-01  0.303691E-01  0.292230E-01  0.285940E-01
  0.285160E-01  0.289843E-01  0.299578E-01  0.313566E-01  0.330597E-01  0.349074E-01
  0.367142E-01  0.382934E-01  0.394875E-01  0.401894E-01  0.403466E-01  0.399490E-01
  0.390150E-01  0.375865E-01  0.357362E-01  0.335774E-01  0.312630E-01  0.289699E-01
  0.268752E-01  0.251335E-01  0.238617E-01  0.231352E-01  0.229926E-01  0.234460E-01
  0.244866E-01  0.260801E-01  0.281540E-01  0.305865E-01  0.287571E-01  0.313894E-01
  0.340321E-01  0.364800E-01  0.385450E-01  0.400857E-01  0.410225E-01  0.413320E-01
  0.410292E-01  0.401541E-01  0.387720E-01  0.369823E-01  0.349239E-01  0.327678E-01
  0.306959E-01  0.288737E-01  0.274286E-01  0.264406E-01  0.259445E-01  0.259393E-01
  0.263952E-01  0.272547E-01  0.284298E-01  0.298002E-01  0.312192E-01  0.325301E-01
  0.335871E-01  0.342745E-01  0.345176E-01  0.342836E-01  0.335782E-01  0.324415E-01
  0.309464E-01  0.291975E-01  0.273264E-01  0.254802E-01  0.238058E-01  0.224332E-01
  0.214641E-01  0.209685E-01  0.209880E-01  0.215434E-01  0.226380E-01  0.242515E-01
  0.263263E-01  0.287571E-01  0.265446E-01  0.291198E-01  0.317361E-01  0.342037E-01
  0.363387E-01  0.379896E-01  0.390566E-01  0.394954E-01  0.393080E-01  0.385303E-01
  0.372268E-01  0.354932E-01  0.334585E-01  0.312800E-01  0.291284E-01  0.271638E-01
  0.255144E-01  0.242632E-01  0.234481E-01  0.230711E-01  0.231090E-01  0.235180E-01
  0.242326E-01  0.251616E-01  0.261908E-01  0.271932E-01  0.280451E-01  0.286404E-01
  0.289016E-01  0.287854E-01  0.282853E-01  0.274307E-01  0.262824E-01  0.249285E-01
  0.234769E-01  0.220467E-01  0.207571E-01  0.197161E-01  0.190123E-01  0.187109E-01
  0.188562E-01  0.194756E-01  0.205815E-01  0.221645E-01  0.241815E-01  0.265446E-01
  0.240696E-01  0.265195E-01  0.290377E-01  0.314544E-01  0.335968E-01  0.353117E-01
  0.364844E-01  0.370502E-01  0.369937E-01  0.363414E-01  0.351546E-01  0.335254E-01
  0.315750E-01  0.294483E-01  0.273022E-01  0.252873E-01  0.235276E-01  0.221077E-01
  0.210698E-01  0.204206E-01  0.201423E-01  0.202002E-01  0.205430E-01  0.210998E-01
  0.217815E-01  0.224876E-01  0.231181E-01  0.235841E-01  0.238160E-01  0.237692E-01
  0.234291E-01  0.228130E-01  0.219668E-01  0.209593E-01  0.198754E-01  0.188080E-01
  0.178516E-01  0.170939E-01  0.166113E-01  0.164645E-01  0.166990E-01  0.173463E-01
  0.184242E-01  0.199310E-01  0.218361E-01  0.240696E-01  0.214634E-01  0.237293E-01
  0.260844E-01  0.283812E-01  0.304633E-01  0.321833E-01  0.334203E-01  0.340941E-01
  0.341718E-01  0.336667E-01  0.326319E-01  0.311531E-01  0.293430E-01  0.273348E-01
  0.252714E-01  0.232911E-01  0.215102E-01  0.200115E-01  0.188404E-01  0.180096E-01
  0.175080E-01  0.173085E-01  0.173696E-01  0.176344E-01  0.180319E-01  0.184831E-01
  0.189094E-01  0.192405E-01  0.194186E-01  0.194032E-01  0.191761E-01  0.187447E-01
  0.181408E-01  0.174155E-01  0.166328E-01  0.158633E-01  0.151797E-01  0.146522E-01
  0.143453E-01  0.143146E-01  0.146048E-01  0.152488E-01  0.162663E-01  0.176605E-01
  0.194105E-01  0.214634E-01  0.188517E-01  0.208907E-01  0.230317E-01  0.251502E-01
  0.271092E-01  0.287731E-01  0.300230E-01  0.307709E-01  0.309705E-01  0.306206E-01
  0.297623E-01  0.284709E-01  0.268479E-01  0.250138E-01  0.230977E-01  0.212246E-01
  0.195009E-01  0.180044E-01  0.167810E-01  0.158486E-01  0.152036E-01  0.148267E-01
  0.146853E-01  0.147332E-01  0.149127E-01  0.151611E-01  0.154174E-01  0.156273E-01
  0.157453E-01  0.157371E-01  0.155840E-01  0.152867E-01  0.148654E-01  0.143564E-01
  0.138066E-01  0.132688E-01  0.127980E-01  0.124492E-01  0.122757E-01  0.123265E-01
  0.126436E-01  0.132589E-01  0.141922E-01  0.154486E-01  0.170146E-01  0.188517E-01
  0.163426E-01  0.181305E-01  0.200245E-01  0.219228E-01  0.237088E-01  0.252625E-01
  0.264738E-01  0.272546E-01  0.275508E-01  0.273491E-01  0.266766E-01  0.255948E-01
  0.241916E-01  0.225726E-01  0.208525E-01  0.191426E-01  0.175384E-01  0.161108E-01
  0.149040E-01  0.139387E-01  0.132177E-01  0.127297E-01  0.124506E-01  0.123439E-01
  0.123632E-01  0.124584E-01  0.125820E-01  0.126925E-01  0.127546E-01  0.127406E-01
  0.126328E-01  0.124277E-01  0.121373E-01  0.117864E-01  0.114089E-01  0.110438E-01
  0.107325E-01  0.105174E-01  0.104410E-01  0.105445E-01  0.108654E-01  0.114329E-01
  0.122661E-01  0.133709E-01  0.147389E-01  0.163426E-01  0.140204E-01  0.155511E-01
  0.171843E-01  0.188391E-01  0.204193E-01  0.218226E-01  0.229516E-01  0.237246E-01
  0.240858E-01  0.240129E-01  0.235201E-01  0.226537E-01  0.214857E-01  0.201059E-01
  0.186128E-01  0.171035E-01  0.156620E-01  0.143521E-01  0.132147E-01  0.122717E-01
  0.115302E-01  0.109855E-01  0.106212E-01  0.104100E-01  0.103157E-01  0.102989E-01
  0.103226E-01  0.103550E-01  0.103692E-01  0.103427E-01  0.102600E-01  0.101154E-01
  0.991504E-02  0.967567E-02  0.942152E-02  0.918140E-02  0.898624E-02  0.886797E-02
  0.885926E-02  0.899305E-02  0.930059E-02  0.980806E-02  0.105331E-01  0.114827E-01
  0.126516E-01  0.140204E-01  0.119435E-01  0.132261E-01  0.146017E-01  0.160079E-01
  0.173676E-01  0.185965E-01  0.196123E-01  0.203434E-01  0.207370E-01  0.207665E-01
  0.204348E-01  0.197739E-01  0.188396E-01  0.177049E-01  0.164519E-01  0.151622E-01
  0.139082E-01  0.127461E-01  0.117136E-01  0.108330E-01  0.101139E-01  0.955600E-02
  0.914931E-02  0.887420E-02  0.870360E-02  0.860753E-02  0.855780E-02  0.853021E-02
  0.850411E-02  0.846185E-02  0.839016E-02  0.828279E-02  0.814223E-02  0.797931E-02
  0.781126E-02  0.765917E-02  0.754599E-02  0.749527E-02  0.753115E-02  0.767851E-02
  0.796214E-02  0.840420E-02  0.902094E-02  0.981999E-02  0.107989E-01  0.119435E-01
  0.101462E-01  0.111999E-01  0.123342E-01  0.135016E-01  0.146423E-01  0.156891E-01
  0.165748E-01  0.172396E-01  0.176370E-01  0.177393E-01  0.175420E-01  0.170644E-01
  0.163474E-01  0.154478E-01  0.144313E-01  0.133642E-01  0.123066E-01  0.113069E-01
  0.103996E-01  0.960679E-02  0.893973E-02  0.840107E-02  0.798516E-02  0.767852E-02
  0.746172E-02  0.731286E-02  0.721106E-02  0.713822E-02  0.707881E-02  0.701937E-02
  0.694928E-02  0.686266E-02  0.675990E-02  0.664774E-02  0.653806E-02  0.644605E-02
  0.638839E-02  0.638214E-02  0.644462E-02  0.659386E-02  0.684852E-02  0.722636E-02
  0.774152E-02  0.840177E-02  0.920664E-02  0.101462E-01  0.864076E-02  0.949057E-02
  0.104076E-01  0.113565E-01  0.122920E-01  0.131620E-01  0.139135E-01  0.144982E-01
  0.148770E-01  0.150243E-01  0.149309E-01  0.146069E-01  0.140804E-01  0.133937E-01
  0.125971E-01  0.117427E-01  0.108783E-01  0.100442E-01  0.927116E-02  0.858009E-02
  0.798327E-02  0.748525E-02  0.708350E-02  0.676928E-02  0.652934E-02  0.634838E-02
  0.621155E-02  0.610570E-02  0.601943E-02  0.594295E-02  0.586842E-02  0.579109E-02
  0.571042E-02  0.563034E-02  0.555868E-02  0.550593E-02  0.548384E-02  0.550451E-02
  0.558019E-02  0.572371E-02  0.594855E-02  0.626800E-02  0.669329E-02  0.723129E-02
  0.788268E-02  0.864076E-02  0.742200E-02  0.809535E-02  0.882264E-02  0.957851E-02
  0.103296E-01  0.110368E-01  0.116593E-01  0.121590E-01  0.125044E-01  0.126730E-01
  0.126543E-01  0.124521E-01  0.120846E-01  0.115818E-01  0.109807E-01  0.103203E-01
  0.963746E-02  0.896428E-02  0.832659E-02  0.774330E-02  0.722649E-02  0.678175E-02
  0.640892E-02  0.610300E-02  0.585576E-02  0.565737E-02  0.549793E-02  0.536833E-02
  0.526057E-02  0.516793E-02  0.508522E-02  0.500926E-02  0.493942E-02  0.487790E-02
  0.482954E-02  0.480113E-02  0.480049E-02  0.483588E-02  0.491585E-02  0.504946E-02
  0.524618E-02  0.551530E-02  0.586469E-02  0.629930E-02  0.681988E-02  0.742200E-02
  0.647292E-02  0.699751E-02  0.756324E-02  0.815287E-02  0.874292E-02  0.930499E-02
  0.980859E-02  0.102246E-01  0.105280E-01  0.107004E-01  0.107316E-01  0.106219E-01
  0.103824E-01  0.100332E-01  0.960021E-02  0.911120E-02  0.859327E-02  0.807081E-02
  0.756423E-02  0.708922E-02  0.665645E-02  0.627170E-02  0.593637E-02  0.564846E-02
  0.540380E-02  0.519711E-02  0.502277E-02  0.487522E-02  0.474936E-02  0.464105E-02
  0.454743E-02  0.446700E-02  0.439967E-02  0.434679E-02  0.431116E-02  0.429677E-02
  0.430830E-02  0.435092E-02  0.443029E-02  0.455259E-02  0.472428E-02  0.495137E-02
  0.523856E-02  0.558845E-02  0.600096E-02  0.647292E-02  0.577004E-02  0.617245E-02
  0.660385E-02  0.705330E-02  0.750535E-02  0.794055E-02  0.833721E-02  0.867388E-02
  0.893161E-02  0.909578E-02  0.915781E-02  0.911637E-02  0.897768E-02  0.875428E-02
  0.846289E-02  0.812214E-02  0.775068E-02  0.736583E-02  0.698248E-02  0.661238E-02
  0.626388E-02  0.594204E-02  0.564904E-02  0.538500E-02  0.514884E-02  0.493903E-02
  0.475375E-02  0.459082E-02  0.444792E-02  0.432323E-02  0.421589E-02  0.412606E-02
  0.405454E-02  0.400257E-02  0.397178E-02  0.396411E-02  0.398182E-02  0.402750E-02
  0.410432E-02  0.421605E-02  0.436662E-02  0.455941E-02  0.479650E-02  0.507837E-02
  0.540382E-02  0.577004E-02  0.528828E-02  0.559255E-02  0.591464E-02  0.624817E-02
  0.658395E-02  0.690987E-02  0.721178E-02  0.747504E-02  0.768622E-02  0.783463E-02
  0.791367E-02  0.792155E-02  0.786130E-02  0.773985E-02  0.756678E-02  0.735312E-02
  0.711038E-02  0.684951E-02  0.658003E-02  0.630945E-02  0.604325E-02  0.578505E-02
  0.553702E-02  0.530046E-02  0.507641E-02  0.486625E-02  0.467149E-02  0.449330E-02
  0.433228E-02  0.418894E-02  0.406432E-02  0.396014E-02  0.387837E-02  0.382067E-02
  0.378818E-02  0.378153E-02  0.380108E-02  0.384735E-02  0.392133E-02  0.402451E-02
  0.415848E-02  0.432424E-02  0.452175E-02  0.474979E-02  0.500623E-02  0.528828E-02
  0.500441E-02  0.523080E-02  0.546518E-02  0.570426E-02  0.594350E-02  0.617664E-02
  0.639586E-02  0.659255E-02  0.675839E-02  0.688659E-02  0.697282E-02  0.701562E-02
  0.701608E-02  0.697715E-02  0.690296E-02  0.679848E-02  0.666912E-02  0.652012E-02
  0.635585E-02  0.617950E-02  0.599324E-02  0.579870E-02  0.559728E-02  0.539057E-02
  0.518084E-02  0.497158E-02  0.476715E-02  0.457198E-02  0.438982E-02  0.422381E-02
  0.407700E-02  0.395278E-02  0.385447E-02  0.378459E-02  0.374434E-02  0.373356E-02
  0.375124E-02  0.379619E-02  0.386753E-02  0.396466E-02  0.408684E-02  0.423269E-02
  0.440008E-02  0.458637E-02  0.478873E-02  0.500441E-02  0.489876E-02  0.506332E-02
  0.522738E-02  0.538980E-02  0.554938E-02  0.570447E-02  0.585245E-02  0.598989E-02
  0.611310E-02  0.621903E-02  0.630581E-02  0.637287E-02  0.642041E-02  0.644876E-02
  0.645815E-02  0.644880E-02  0.642098E-02  0.637477E-02  0.630957E-02  0.622407E-02
  0.611678E-02  0.598667E-02  0.583363E-02  0.565874E-02  0.546478E-02  0.525663E-02
  0.504107E-02  0.482565E-02  0.461750E-02  0.442280E-02  0.424709E-02  0.409571E-02
  0.397360E-02  0.388446E-02  0.383000E-02  0.380978E-02  0.382182E-02  0.386352E-02
  0.393233E-02  0.402573E-02  0.414069E-02  0.427338E-02  0.441940E-02  0.457450E-02
  0.473517E-02  0.489876E-02  0.495521E-02  0.507051E-02  0.517763E-02  0.527714E-02
  0.537050E-02  0.545962E-02  0.554623E-02  0.563138E-02  0.571550E-02  0.579893E-02
  0.588229E-02  0.596629E-02  0.605105E-02  0.613555E-02  0.621746E-02  0.629346E-02
  0.635957E-02  0.641110E-02  0.644256E-02  0.644789E-02  0.642133E-02  0.635845E-02
  0.625678E-02  0.611617E-02  0.593922E-02  0.573172E-02  0.550243E-02  0.526191E-02
  0.502092E-02  0.478931E-02  0.457578E-02  0.438821E-02  0.423346E-02  0.411669E-02
  0.404047E-02  0.400455E-02  0.400640E-02  0.404232E-02  0.410820E-02  0.419956E-02
  0.431112E-02  0.443656E-02  0.456906E-02  0.470242E-02  0.483206E-02  0.495521E-02