 CRYSTAL
 PRIMVEC
    5.942619403    0.000010984   -0.000000000
   -1.312679500    5.590891000   -0.000000000
   -0.000000000   -0.000000000    6.144115604
 PRIMCOORD
           4           1
Si       -0.126647673    1.362113832    2.075660636
Si        2.975815892    2.363806338    0.854043553
Si        0.126660744    3.328046792    4.856030012
Si        2.966809464    0.810595625    3.588703904
BEGIN_BLOCK_DATAGRID_3D
3D_PWSCF
BEGIN_DATAGRID_3D_UNKNOWN
          61          55          61
  0.000000  0.000000  0.000000
    5.942619    0.000011   -0.000000
   -1.312679    5.590891   -0.000000
   -0.000000   -0.000000    6.144116
  0.933370E-03  0.943048E-03  0.951189E-03  0.958138E-03  0.964411E-03  0.970654E-03
  0.977537E-03  0.985636E-03  0.995375E-03  0.100703E-02  0.102075E-02  0.103658E-02
  0.105449E-02  0.107440E-02  0.109620E-02  0.111972E-02  0.114470E-02  0.117082E-02
  0.119768E-02  0.122481E-02  0.125168E-02  0.127767E-02  0.130208E-02  0.132416E-02
  0.134311E-02  0.135802E-02  0.136794E-02  0.137196E-02  0.136937E-02  0.135978E-02
  0.134311E-02  0.131960E-02  0.128978E-02  0.125438E-02  0.121436E-02  0.117084E-02
  0.112503E-02  0.107826E-02  0.103189E-02  0.987177E-03  0.945220E-03  0.906876E-03
  0.872811E-03  0.843567E-03  0.819577E-03  0.801113E-03  0.788228E-03  0.780761E-03
  0.778395E-03  0.780714E-03  0.787236E-03  0.797392E-03  0.810525E-03  0.825897E-03
  0.842714E-03  0.860155E-03  0.877415E-03  0.893785E-03  0.908732E-03  0.921956E-03
  0.933370E-03  0.101343E-02  0.101833E-02  0.102049E-02  0.102043E-02  0.101891E-02
  0.101680E-02  0.101500E-02  0.101435E-02  0.101558E-02  0.101931E-02  0.102609E-02
  0.103632E-02  0.105029E-02  0.106812E-02  0.108983E-02  0.111531E-02  0.114437E-02
  0.117669E-02  0.121182E-02  0.124918E-02  0.128800E-02  0.132738E-02  0.136624E-02
  0.140343E-02  0.143767E-02  0.146765E-02  0.149197E-02  0.150925E-02  0.151831E-02
  0.151830E-02  0.150885E-02  0.149006E-02  0.146248E-02  0.142697E-02  0.138465E-02
  0.133689E-02  0.128522E-02  0.123134E-02  0.117703E-02  0.112396E-02  0.107358E-02
  0.102705E-02  0.985276E-03  0.949017E-03  0.918877E-03  0.895260E-03  0.878284E-03
  0.867773E-03  0.863335E-03  0.864459E-03  0.870557E-03  0.880944E-03  0.894801E-03
  0.911172E-03  0.929007E-03  0.947227E-03  0.964801E-03  0.980820E-03  0.994556E-03
  0.100551E-02  0.101343E-02  0.111825E-02  0.111944E-02  0.111664E-02  0.111053E-02
  0.110206E-02  0.109234E-02  0.108250E-02  0.107367E-02  0.106692E-02  0.106323E-02
  0.106348E-02  0.106841E-02  0.107856E-02  0.109432E-02  0.111588E-02  0.114328E-02
  0.117643E-02  0.121506E-02  0.125871E-02  0.130671E-02  0.135815E-02  0.141184E-02
  0.146637E-02  0.152012E-02  0.157134E-02  0.161820E-02  0.165882E-02  0.169134E-02
  0.171398E-02  0.172531E-02  0.172443E-02  0.171115E-02  0.168596E-02  0.164984E-02
  0.160417E-02  0.155063E-02  0.149116E-02  0.142790E-02  0.136311E-02  0.129898E-02
  0.123740E-02  0.117994E-02  0.112786E-02  0.108216E-02  0.104366E-02  0.101293E-02
  0.990220E-03  0.975375E-03  0.967952E-03  0.967302E-03  0.972664E-03  0.983176E-03
  0.997845E-03  0.101551E-02  0.103486E-02  0.105452E-02  0.107319E-02  0.108970E-02
  0.110313E-02  0.111279E-02  0.111825E-02  0.124728E-02  0.124570E-02  0.123889E-02
  0.122758E-02  0.121284E-02  0.119599E-02  0.117845E-02  0.116173E-02  0.114727E-02
  0.113645E-02  0.113045E-02  0.113029E-02  0.113678E-02  0.115058E-02  0.117214E-02
  0.120172E-02  0.123935E-02  0.128483E-02  0.133775E-02  0.139746E-02  0.146295E-02
  0.153285E-02  0.160541E-02  0.167851E-02  0.174980E-02  0.181679E-02  0.187697E-02
  0.192783E-02  0.196693E-02  0.199212E-02  0.200182E-02  0.199534E-02  0.197298E-02
  0.193582E-02  0.188554E-02  0.182423E-02  0.175429E-02  0.167848E-02  0.159967E-02
  0.152069E-02  0.144410E-02  0.137200E-02  0.130610E-02  0.124774E-02  0.119798E-02
  0.115754E-02  0.112680E-02  0.110571E-02  0.109381E-02  0.109035E-02  0.109433E-02
  0.110464E-02  0.112001E-02  0.113906E-02  0.116023E-02  0.118188E-02  0.120234E-02
  0.122016E-02  0.123413E-02  0.124337E-02  0.124728E-02  0.140002E-02  0.139649E-02
  0.138650E-02  0.137075E-02  0.135037E-02  0.132682E-02  0.130185E-02  0.127738E-02
  0.125534E-02  0.123750E-02  0.122538E-02  0.122026E-02  0.122328E-02  0.123539E-02
  0.125738E-02  0.128974E-02  0.133265E-02  0.138602E-02  0.144958E-02  0.152275E-02
  0.160459E-02  0.169364E-02  0.178782E-02  0.188448E-02  0.198053E-02  0.207259E-02
  0.215726E-02  0.223116E-02  0.229099E-02  0.233373E-02  0.235695E-02  0.235930E-02
  0.234070E-02  0.230223E-02  0.224587E-02  0.217419E-02  0.209027E-02  0.199757E-02
  0.189985E-02  0.180080E-02  0.170384E-02  0.161189E-02  0.152729E-02  0.145186E-02
  0.138693E-02  0.133337E-02  0.129160E-02  0.126164E-02  0.124305E-02  0.123503E-02
  0.123640E-02  0.124573E-02  0.126142E-02  0.128175E-02  0.130489E-02  0.132892E-02
  0.135185E-02  0.137181E-02  0.138721E-02  0.139685E-02  0.140002E-02  0.157600E-02
  0.157124E-02  0.155878E-02  0.153929E-02  0.151387E-02  0.148408E-02  0.145197E-02
  0.141993E-02  0.139041E-02  0.136558E-02  0.134735E-02  0.133736E-02  0.133710E-02
  0.134793E-02  0.137097E-02  0.140701E-02  0.145645E-02  0.151937E-02  0.159568E-02
  0.168502E-02  0.178657E-02  0.189885E-02  0.201951E-02  0.214536E-02  0.227248E-02
  0.239645E-02  0.251267E-02  0.261649E-02  0.270343E-02  0.276928E-02  0.281053E-02
  0.282493E-02  0.281177E-02  0.277198E-02  0.270780E-02  0.262241E-02  0.251978E-02
  0.240442E-02  0.228122E-02  0.215507E-02  0.203055E-02  0.191163E-02  0.180157E-02
  0.170289E-02  0.161731E-02  0.154590E-02  0.148907E-02  0.144676E-02  0.141847E-02
  0.140335E-02  0.140010E-02  0.140704E-02  0.142219E-02  0.144342E-02  0.146850E-02
  0.149518E-02  0.152113E-02  0.154403E-02  0.156179E-02  0.157277E-02  0.157600E-02
  0.177443E-02  0.176927E-02  0.175501E-02  0.173240E-02  0.170252E-02  0.166700E-02
  0.162816E-02  0.158882E-02  0.155193E-02  0.152016E-02  0.149585E-02  0.148107E-02
  0.147778E-02  0.148777E-02  0.151259E-02  0.155340E-02  0.161096E-02  0.168569E-02
  0.177778E-02  0.188711E-02  0.201301E-02  0.215398E-02  0.230745E-02  0.246974E-02
  0.263617E-02  0.280119E-02  0.295873E-02  0.310243E-02  0.322599E-02  0.332347E-02
  0.338978E-02  0.342132E-02  0.341647E-02  0.337577E-02  0.330167E-02  0.319817E-02
  0.307042E-02  0.292447E-02  0.276687E-02  0.260418E-02  0.244252E-02  0.228723E-02
  0.214273E-02  0.201239E-02  0.189856E-02  0.180260E-02  0.172498E-02  0.166551E-02
  0.162352E-02  0.159794E-02  0.158730E-02  0.158970E-02  0.160281E-02  0.162405E-02
  0.165072E-02  0.168007E-02  0.170938E-02  0.173587E-02  0.175686E-02  0.177017E-02
  0.177443E-02  0.199381E-02  0.198930E-02  0.197413E-02  0.194911E-02  0.191541E-02
  0.187476E-02  0.182971E-02  0.178345E-02  0.173940E-02  0.170079E-02  0.167046E-02
  0.165107E-02  0.164507E-02  0.165476E-02  0.168216E-02  0.172896E-02  0.179650E-02
  0.188577E-02  0.199740E-02  0.213158E-02  0.228780E-02  0.246455E-02  0.265912E-02
  0.286745E-02  0.308415E-02  0.330254E-02  0.351482E-02  0.371240E-02  0.388636E-02
  0.402810E-02  0.413011E-02  0.418674E-02  0.419496E-02  0.415462E-02  0.406832E-02
  0.394102E-02  0.377954E-02  0.359213E-02  0.338777E-02  0.317547E-02  0.296358E-02
  0.275929E-02  0.256842E-02  0.239535E-02  0.224310E-02  0.211343E-02  0.200702E-02
  0.192366E-02  0.186249E-02  0.182204E-02  0.180043E-02  0.179538E-02  0.180420E-02
  0.182389E-02  0.185121E-02  0.188287E-02  0.191555E-02  0.194594E-02  0.197083E-02
  0.198741E-02  0.199381E-02  0.223201E-02  0.222945E-02  0.221459E-02  0.218816E-02
  0.215147E-02  0.210645E-02  0.205587E-02  0.200322E-02  0.195235E-02  0.190704E-02
  0.187084E-02  0.184707E-02  0.183880E-02  0.184885E-02  0.187979E-02  0.193402E-02
  0.201366E-02  0.212054E-02  0.225597E-02  0.242062E-02  0.261429E-02  0.283570E-02
  0.308213E-02  0.334928E-02  0.363105E-02  0.391946E-02  0.420461E-02  0.447499E-02
  0.471819E-02  0.492184E-02  0.507482E-02  0.516842E-02  0.519738E-02  0.516040E-02
  0.506004E-02  0.490236E-02  0.469637E-02  0.445325E-02  0.418547E-02  0.390560E-02
  0.362528E-02  0.335442E-02  0.310083E-02  0.287017E-02  0.266612E-02  0.249078E-02
  0.234503E-02  0.222875E-02  0.214090E-02  0.207961E-02  0.204233E-02  0.202606E-02
  0.202756E-02  0.204334E-02  0.206969E-02  0.210269E-02  0.213833E-02  0.217261E-02
  0.220174E-02  0.222236E-02  0.223201E-02  0.248696E-02  0.248769E-02  0.247460E-02
  0.244811E-02  0.240956E-02  0.236115E-02  0.230592E-02  0.224761E-02  0.219041E-02
  0.213871E-02  0.209686E-02  0.206899E-02  0.205889E-02  0.207002E-02  0.210566E-02
  0.216900E-02  0.226319E-02  0.239105E-02  0.255485E-02  0.275608E-02  0.299532E-02
  0.327192E-02  0.358360E-02  0.392598E-02  0.429216E-02  0.467238E-02  0.505398E-02
  0.542174E-02  0.575873E-02  0.604763E-02  0.627237E-02  0.641985E-02  0.648141E-02
  0.645370E-02  0.633885E-02  0.614411E-02  0.588113E-02  0.556499E-02  0.521277E-02
  0.484195E-02  0.446882E-02  0.410732E-02  0.376836E-02  0.345960E-02  0.318578E-02
  0.294923E-02  0.275075E-02  0.259001E-02  0.246573E-02  0.237560E-02  0.231629E-02
  0.228386E-02  0.227413E-02  0.228294E-02  0.230599E-02  0.233877E-02  0.237650E-02
  0.241438E-02  0.244787E-02  0.247307E-02  0.248696E-02  0.275724E-02  0.276250E-02
  0.275272E-02  0.272773E-02  0.268873E-02  0.263814E-02  0.257932E-02  0.251626E-02
  0.245347E-02  0.239589E-02  0.234871E-02  0.231701E-02  0.230545E-02  0.231833E-02
  0.235977E-02  0.243400E-02  0.254529E-02  0.269768E-02  0.289467E-02  0.313907E-02
  0.343284E-02  0.377666E-02  0.416925E-02  0.460647E-02  0.508051E-02  0.557937E-02
  0.608681E-02  0.658279E-02  0.704468E-02  0.744888E-02  0.777291E-02  0.799762E-02
  0.810929E-02  0.810115E-02  0.797404E-02  0.773624E-02  0.740266E-02  0.699338E-02
  0.653158E-02  0.604115E-02  0.554457E-02  0.506130E-02  0.460686E-02  0.419234E-02
  0.382440E-02  0.350602E-02  0.323760E-02  0.301802E-02  0.284519E-02  0.271602E-02
  0.262637E-02  0.257124E-02  0.254531E-02  0.254334E-02  0.256023E-02  0.259073E-02
  0.262930E-02  0.267023E-02  0.270809E-02  0.273828E-02  0.275724E-02  0.304239E-02
  0.305331E-02  0.304828E-02  0.302645E-02  0.298861E-02  0.293723E-02  0.287600E-02
  0.280922E-02  0.274171E-02  0.267893E-02  0.262687E-02  0.259161E-02  0.257883E-02
  0.259384E-02  0.264191E-02  0.272849E-02  0.285917E-02  0.303942E-02  0.327440E-02
  0.356882E-02  0.392674E-02  0.435092E-02  0.484164E-02  0.539540E-02  0.600369E-02
  0.665210E-02  0.732017E-02  0.798198E-02  0.860769E-02  0.916564E-02  0.962500E-02
  0.995852E-02  0.101453E-01  0.101731E-01  0.100401E-01  0.975494E-02  0.933643E-02
  0.881108E-02  0.821011E-02  0.756590E-02  0.690896E-02  0.626598E-02  0.565869E-02
  0.510314E-02  0.460941E-02  0.418201E-02  0.382119E-02  0.352451E-02  0.328820E-02
  0.310763E-02  0.297741E-02  0.289139E-02  0.284299E-02  0.282562E-02  0.283296E-02
  0.285876E-02  0.289659E-02  0.293980E-02  0.298197E-02  0.301758E-02  0.304239E-02
  0.334291E-02  0.336073E-02  0.336197E-02  0.334503E-02  0.331012E-02  0.325954E-02
  0.319716E-02  0.312766E-02  0.305625E-02  0.298890E-02  0.293234E-02  0.289361E-02
  0.287954E-02  0.289668E-02  0.295165E-02  0.305137E-02  0.320299E-02  0.341372E-02
  0.369087E-02  0.404182E-02  0.447354E-02  0.499150E-02  0.559808E-02  0.629090E-02
  0.706123E-02  0.789275E-02  0.876077E-02  0.963266E-02  0.104696E-01  0.112294E-01
  0.118702E-01  0.123538E-01  0.126496E-01  0.127376E-01  0.126110E-01  0.122779E-01
  0.117610E-01  0.110946E-01  0.103204E-01  0.948217E-02  0.862114E-02  0.777353E-02
  0.696911E-02  0.623039E-02  0.557215E-02  0.500163E-02  0.451963E-02  0.412251E-02
  0.380416E-02  0.355741E-02  0.337470E-02  0.324817E-02  0.316977E-02  0.313142E-02
  0.312522E-02  0.314354E-02  0.317881E-02  0.322336E-02  0.326971E-02  0.331129E-02
  0.334291E-02  0.366044E-02  0.368683E-02  0.369620E-02  0.368617E-02  0.365625E-02
  0.360830E-02  0.354619E-02  0.347491E-02  0.340018E-02  0.332852E-02  0.326740E-02
  0.322481E-02  0.320880E-02  0.322736E-02  0.328870E-02  0.340138E-02  0.357432E-02
  0.381686E-02  0.413907E-02  0.455176E-02  0.506566E-02  0.568965E-02  0.642881E-02
  0.728248E-02  0.824262E-02  0.929189E-02  0.104020E-01  0.115332E-01  0.126359E-01
  0.136543E-01  0.145320E-01  0.152165E-01  0.156643E-01  0.158450E-01  0.157451E-01
  0.153702E-01  0.147459E-01  0.139152E-01  0.129320E-01  0.118547E-01  0.107392E-01
  0.963475E-02  0.858195E-02  0.761156E-02  0.674412E-02  0.599035E-02  0.535238E-02
  0.482595E-02  0.440265E-02  0.407205E-02  0.382321E-02  0.364547E-02  0.352863E-02
  0.346283E-02  0.343844E-02  0.344613E-02  0.347687E-02  0.352179E-02  0.357231E-02
  0.362065E-02  0.366044E-02  0.399805E-02  0.403536E-02  0.405536E-02  0.405479E-02
  0.403236E-02  0.398925E-02  0.392905E-02  0.385696E-02  0.377922E-02  0.370301E-02
  0.363658E-02  0.358892E-02  0.356938E-02  0.358758E-02  0.365350E-02  0.377755E-02
  0.397065E-02  0.424458E-02  0.461270E-02  0.508994E-02  0.569156E-02  0.643073E-02
  0.731601E-02  0.834952E-02  0.952506E-02  0.108255E-01  0.122198E-01  0.136608E-01
  0.150864E-01  0.164245E-01  0.175998E-01  0.185419E-01  0.191911E-01  0.195045E-01
  0.194599E-01  0.190589E-01  0.183284E-01  0.173183E-01  0.160956E-01  0.147354E-01
  0.133122E-01  0.118934E-01  0.105347E-01  0.927822E-02  0.815181E-02  0.717017E-02
  0.633704E-02  0.564796E-02  0.509267E-02  0.465736E-02  0.432681E-02  0.408617E-02
  0.392193E-02  0.382178E-02  0.377416E-02  0.376790E-02  0.379225E-02  0.383684E-02
  0.389183E-02  0.394815E-02  0.399805E-02  0.436037E-02  0.441170E-02  0.444563E-02
  0.445777E-02  0.444586E-02  0.441025E-02  0.435396E-02  0.428215E-02  0.420154E-02
  0.412009E-02  0.404690E-02  0.399202E-02  0.396623E-02  0.398088E-02  0.404796E-02
  0.417991E-02  0.438988E-02  0.469239E-02  0.510445E-02  0.564561E-02  0.633622E-02
  0.719453E-02  0.823380E-02  0.946037E-02  0.108715E-01  0.124515E-01  0.141672E-01
  0.159637E-01  0.177652E-01  0.194805E-01  0.210123E-01  0.222679E-01  0.231691E-01
  0.236587E-01  0.237051E-01  0.233049E-01  0.224839E-01  0.212960E-01  0.198183E-01
  0.181427E-01  0.163651E-01  0.145758E-01  0.128514E-01  0.112506E-01  0.981173E-02
  0.855477E-02  0.748506E-02  0.659775E-02  0.588085E-02  0.531742E-02  0.488764E-02
  0.457147E-02  0.435066E-02  0.420940E-02  0.413371E-02  0.411046E-02  0.412700E-02
  0.417119E-02  0.423161E-02  0.429776E-02  0.436037E-02  0.475325E-02  0.482260E-02
  0.487467E-02  0.490360E-02  0.490593E-02  0.488098E-02  0.483095E-02  0.476070E-02
  0.467727E-02  0.458945E-02  0.450736E-02  0.444221E-02  0.440624E-02  0.441269E-02
  0.447563E-02  0.460977E-02  0.483069E-02  0.515592E-02  0.560634E-02  0.620630E-02
  0.698158E-02  0.795613E-02  0.914913E-02  0.105728E-01  0.122298E-01  0.141072E-01
  0.161702E-01  0.183561E-01  0.205740E-01  0.227117E-01  0.246471E-01  0.262628E-01
  0.274595E-01  0.281658E-01  0.283418E-01  0.279794E-01  0.271013E-01  0.257603E-01
  0.240377E-01  0.220378E-01  0.198778E-01  0.176743E-01  0.155313E-01  0.135302E-01
  0.117254E-01  0.101453E-01  0.879774E-02  0.767703E-02  0.676891E-02  0.605318E-02
  0.550560E-02  0.510053E-02  0.481398E-02  0.462545E-02  0.451767E-02  0.447521E-02
  0.448337E-02  0.452798E-02  0.459573E-02  0.467446E-02  0.475325E-02  0.518304E-02
  0.527568E-02  0.535139E-02  0.540241E-02  0.542370E-02  0.541327E-02  0.537228E-02
  0.530501E-02  0.521866E-02  0.512284E-02  0.502883E-02  0.494922E-02  0.489781E-02
  0.488975E-02  0.494133E-02  0.506961E-02  0.529273E-02  0.563134E-02  0.611026E-02
  0.675862E-02  0.760764E-02  0.868735E-02  0.100238E-01  0.116366E-01  0.135353E-01
  0.157117E-01  0.181301E-01  0.207198E-01  0.233744E-01  0.259588E-01  0.283243E-01
  0.303267E-01  0.318457E-01  0.327972E-01  0.331369E-01  0.328548E-01  0.319697E-01
  0.305269E-01  0.286025E-01  0.263042E-01  0.237655E-01  0.211304E-01  0.185347E-01
  0.160897E-01  0.138728E-01  0.119261E-01  0.102628E-01  0.887682E-02  0.775066E-02
  0.686034E-02  0.617715E-02  0.567007E-02  0.530906E-02  0.506798E-02  0.492526E-02
  0.486253E-02  0.486284E-02  0.490982E-02  0.498803E-02  0.508335E-02  0.518304E-02
  0.565572E-02  0.577881E-02  0.588559E-02  0.596586E-02  0.601243E-02  0.602159E-02
  0.599318E-02  0.593063E-02  0.584109E-02  0.573494E-02  0.562486E-02  0.552505E-02
  0.545111E-02  0.542025E-02  0.545102E-02  0.556290E-02  0.577660E-02  0.611576E-02
  0.660891E-02  0.728964E-02  0.819441E-02  0.935934E-02  0.108176E-01  0.125974E-01
  0.147166E-01  0.171729E-01  0.199314E-01  0.229146E-01  0.260001E-01  0.290294E-01
  0.318250E-01  0.342148E-01  0.360581E-01  0.372625E-01  0.377856E-01  0.376225E-01
  0.367895E-01  0.353194E-01  0.332707E-01  0.307406E-01  0.278686E-01  0.248222E-01
  0.217712E-01  0.188630E-01  0.162049E-01  0.138599E-01  0.118513E-01  0.101746E-01
  0.880932E-02  0.772671E-02  0.689338E-02  0.627322E-02  0.583039E-02  0.553274E-02
  0.535358E-02  0.527088E-02  0.526511E-02  0.531770E-02  0.541097E-02  0.552858E-02
  0.565572E-02  0.617593E-02  0.633904E-02  0.648678E-02  0.660592E-02  0.668640E-02
  0.672215E-02  0.671124E-02  0.665596E-02  0.656314E-02  0.644387E-02  0.631238E-02
  0.618487E-02  0.607910E-02  0.601459E-02  0.601238E-02  0.609449E-02  0.628413E-02
  0.660761E-02  0.709659E-02  0.778847E-02  0.872433E-02  0.994587E-02  0.114934E-01
  0.134034E-01  0.157031E-01  0.183978E-01  0.214554E-01  0.247938E-01  0.282767E-01
  0.317221E-01  0.349221E-01  0.376753E-01  0.398212E-01  0.412634E-01  0.419699E-01
  0.419494E-01  0.412224E-01  0.398076E-01  0.377353E-01  0.350758E-01  0.319584E-01
  0.285642E-01  0.250952E-01  0.217382E-01  0.186372E-01  0.158825E-01  0.135137E-01
  0.115321E-01  0.991547E-02  0.863027E-02  0.763804E-02  0.689785E-02  0.636860E-02
  0.601234E-02  0.579691E-02  0.569607E-02  0.568746E-02  0.575038E-02  0.586496E-02
  0.601255E-02  0.617593E-02  0.674582E-02  0.696091E-02  0.716209E-02  0.733240E-02
  0.745808E-02  0.752989E-02  0.754348E-02  0.749956E-02  0.740430E-02  0.726930E-02
  0.711048E-02  0.694640E-02  0.679743E-02  0.668582E-02  0.663546E-02  0.667121E-02
  0.681886E-02  0.710703E-02  0.756973E-02  0.824717E-02  0.918393E-02  0.104263E-01
  0.120206E-01  0.140112E-01  0.164342E-01  0.193040E-01  0.225940E-01  0.262216E-01
  0.300410E-01  0.338491E-01  0.374090E-01  0.404880E-01  0.429042E-01  0.445584E-01
  0.454338E-01  0.455613E-01  0.449744E-01  0.436826E-01  0.416852E-01  0.390126E-01
  0.357661E-01  0.321248E-01  0.283150E-01  0.245619E-01  0.210496E-01  0.179016E-01
  0.151793E-01  0.128946E-01  0.110267E-01  0.953855E-02  0.838666E-02  0.752551E-02
  0.690946E-02  0.649545E-02  0.624610E-02  0.613084E-02  0.612439E-02  0.620404E-02
  0.634797E-02  0.653518E-02  0.674582E-02  0.736359E-02  0.764454E-02  0.791368E-02
  0.814979E-02  0.833452E-02  0.845446E-02  0.850201E-02  0.847565E-02  0.838043E-02
  0.822820E-02  0.803652E-02  0.782660E-02  0.762189E-02  0.744786E-02  0.733173E-02
  0.730160E-02  0.738613E-02  0.761611E-02  0.802718E-02  0.866116E-02  0.956475E-02
  0.107872E-01  0.123790E-01  0.143906E-01  0.168663E-01  0.198296E-01  0.232628E-01
  0.270883E-01  0.311573E-01  0.352539E-01  0.391166E-01  0.424824E-01  0.451445E-01
  0.469951E-01  0.480289E-01  0.483010E-01  0.478651E-01  0.467322E-01  0.448773E-01
  0.422893E-01  0.390301E-01  0.352603E-01  0.312158E-01  0.271532E-01  0.232954E-01
  0.198011E-01  0.167580E-01  0.141925E-01  0.120894E-01  0.104100E-01  0.910729E-02
  0.813167E-02  0.743379E-02  0.696660E-02  0.668834E-02  0.656455E-02  0.656718E-02
  0.667174E-02  0.685472E-02  0.709291E-02  0.736359E-02  0.802153E-02  0.838337E-02
  0.873636E-02  0.905454E-02  0.931421E-02  0.949675E-02  0.959020E-02  0.958998E-02
  0.949942E-02  0.933020E-02  0.910138E-02  0.883704E-02  0.856414E-02  0.831184E-02
  0.811115E-02  0.799392E-02  0.799206E-02  0.813859E-02  0.847028E-02  0.902953E-02
  0.986368E-02  0.110231E-01  0.125600E-01  0.145284E-01  0.169782E-01  0.199420E-01
  0.234130E-01  0.273241E-01  0.315336E-01  0.358238E-01  0.399200E-01  0.435352E-01
  0.464344E-01  0.484902E-01  0.496949E-01  0.501180E-01  0.498332E-01  0.488631E-01
  0.471740E-01  0.447254E-01  0.415408E-01  0.377520E-01  0.335890E-01  0.293259E-01
  0.252167E-01  0.214526E-01  0.181477E-01  0.153464E-01  0.130416E-01  0.111968E-01
  0.976263E-02  0.868706E-02  0.791827E-02  0.740661E-02  0.710732E-02  0.698298E-02
  0.700333E-02  0.714242E-02  0.737539E-02  0.767696E-02  0.802153E-02  0.870406E-02
  0.916211E-02  0.961539E-02  0.100328E-01  0.103848E-01  0.106463E-01  0.107999E-01
  0.108369E-01  0.107580E-01  0.105743E-01  0.103060E-01  0.998018E-02  0.962780E-02
  0.928219E-02  0.897862E-02  0.875314E-02  0.864132E-02  0.867854E-02  0.890243E-02
  0.935514E-02  0.100834E-01  0.111370E-01  0.125677E-01  0.144294E-01  0.167748E-01
  0.196429E-01  0.230391E-01  0.269114E-01  0.311343E-01  0.355026E-01  0.397445E-01
  0.435613E-01  0.466927E-01  0.489803E-01  0.503935E-01  0.509954E-01  0.508692E-01
  0.500522E-01  0.485187E-01  0.462200E-01  0.431560E-01  0.394310E-01  0.352580E-01
  0.309122E-01  0.266643E-01  0.227298E-01  0.192459E-01  0.162746E-01  0.138196E-01
  0.118485E-01  0.103128E-01  0.915986E-02  0.833695E-02  0.779361E-02  0.748380E-02
  0.736850E-02  0.741615E-02  0.759996E-02  0.789412E-02  0.827161E-02  0.870406E-02
  0.938656E-02  0.995522E-02  0.105247E-01  0.110586E-01  0.115207E-01  0.118791E-01
  0.121092E-01  0.121970E-01  0.121395E-01  0.119465E-01  0.116390E-01  0.112472E-01
  0.108061E-01  0.103541E-01  0.993121E-02  0.957815E-02  0.933448E-02  0.923817E-02
  0.932752E-02  0.964379E-02  0.102321E-01  0.111404E-01  0.124178E-01  0.141157E-01
  0.162851E-01  0.189684E-01  0.221813E-01  0.258897E-01  0.299909E-01  0.343046E-01
  0.385788E-01  0.425211E-01  0.458559E-01  0.483907E-01  0.500537E-01  0.508768E-01
  0.509327E-01  0.502674E-01  0.488729E-01  0.467134E-01  0.437874E-01  0.401832E-01
  0.360936E-01  0.317809E-01  0.275161E-01  0.235255E-01  0.199624E-01  0.169036E-01
  0.143638E-01  0.123175E-01  0.107194E-01  0.951848E-02  0.866338E-02  0.810467E-02
  0.779685E-02  0.770098E-02  0.778541E-02  0.802335E-02  0.838876E-02  0.885344E-02
  0.938656E-02  0.100359E-01  0.107269E-01  0.114262E-01  0.120921E-01  0.126816E-01
  0.131548E-01  0.134793E-01  0.136337E-01  0.136106E-01  0.134171E-01  0.130746E-01
  0.126157E-01  0.120803E-01  0.115119E-01  0.109564E-01  0.104597E-01  0.100657E-01
  0.981540E-02  0.974756E-02  0.990208E-02  0.103216E-01  0.110511E-01  0.121362E-01
  0.136231E-01  0.155583E-01  0.179830E-01  0.209197E-01  0.243510E-01  0.282006E-01
  0.323202E-01  0.364912E-01  0.404445E-01  0.439065E-01  0.466581E-01  0.485802E-01
  0.496554E-01  0.499242E-01  0.494274E-01  0.481739E-01  0.461534E-01  0.433813E-01
  0.399455E-01  0.360221E-01  0.318523E-01  0.276925E-01  0.237662E-01  0.202323E-01
  0.171779E-01  0.146281E-01  0.125652E-01  0.109500E-01  0.973537E-02  0.887354E-02
  0.831806E-02  0.802580E-02  0.795954E-02  0.808893E-02  0.838828E-02  0.883224E-02
  0.939232E-02  0.100359E-01  0.106132E-01  0.114333E-01  0.122715E-01  0.130809E-01
  0.138118E-01  0.144161E-01  0.148523E-01  0.150908E-01  0.151179E-01  0.149370E-01
  0.145685E-01  0.140471E-01  0.134168E-01  0.127273E-01  0.120307E-01  0.113790E-01
  0.108213E-01  0.104017E-01  0.101600E-01  0.101343E-01  0.103640E-01  0.108901E-01
  0.117540E-01  0.129960E-01  0.146556E-01  0.167689E-01  0.193603E-01  0.224258E-01
  0.259134E-01  0.297096E-01  0.336350E-01  0.374566E-01  0.409196E-01  0.437957E-01
  0.459273E-01  0.472443E-01  0.477418E-01  0.474401E-01  0.463554E-01  0.445022E-01
  0.419212E-01  0.387096E-01  0.350330E-01  0.311086E-01  0.271692E-01  0.234231E-01
  0.200260E-01  0.170693E-01  0.145863E-01  0.125682E-01  0.109832E-01  0.979096E-02
  0.894913E-02  0.841605E-02  0.815260E-02  0.812480E-02  0.830497E-02  0.866965E-02
  0.919532E-02  0.985428E-02  0.106132E-01  0.110773E-01  0.120264E-01  0.130057E-01
  0.139635E-01  0.148439E-01  0.155907E-01  0.161533E-01  0.164928E-01  0.165874E-01
  0.164357E-01  0.160558E-01  0.154829E-01  0.147648E-01  0.139568E-01  0.131177E-01
  0.123065E-01  0.115781E-01  0.109810E-01  0.105561E-01  0.103399E-01  0.103680E-01
  0.106768E-01  0.113027E-01  0.122801E-01  0.136406E-01  0.154131E-01  0.176191E-01
  0.202618E-01  0.233095E-01  0.266800E-01  0.302338E-01  0.337787E-01  0.370914E-01
  0.399528E-01  0.421861E-01  0.436805E-01  0.443869E-01  0.442963E-01  0.434196E-01
  0.417857E-01  0.394554E-01  0.365365E-01  0.331866E-01  0.296000E-01  0.259817E-01
  0.225183E-01  0.193545E-01  0.165810E-01  0.142366E-01  0.123211E-01  0.108118E-01
  0.967658E-02  0.888020E-02  0.838727E-02  0.816407E-02  0.818117E-02  0.841468E-02
  0.884446E-02  0.944983E-02  0.102051E-01  0.110773E-01  0.113900E-01  0.124593E-01
  0.135732E-01  0.146755E-01  0.157051E-01  0.165985E-01  0.172964E-01  0.177500E-01
  0.179289E-01  0.178248E-01  0.174524E-01  0.168461E-01  0.160555E-01  0.151407E-01
  0.141672E-01  0.132011E-01  0.123041E-01  0.115294E-01  0.109202E-01  0.105122E-01
  0.103369E-01  0.104258E-01  0.108097E-01  0.115170E-01  0.125725E-01  0.139967E-01
  0.158053E-01  0.180030E-01  0.205712E-01  0.234536E-01  0.265460E-01  0.296967E-01
  0.327192E-01  0.354175E-01  0.376161E-01  0.391839E-01  0.400405E-01  0.401492E-01
  0.395071E-01  0.381438E-01  0.361277E-01  0.335693E-01  0.306167E-01  0.274423E-01
  0.242233E-01  0.211222E-01  0.182682E-01  0.157473E-01  0.136013E-01  0.118378E-01
  0.104435E-01  0.939537E-02  0.866637E-02  0.822825E-02  0.805367E-02  0.811873E-02
  0.840428E-02  0.889431E-02  0.957178E-02  0.104141E-01  0.113900E-01  0.115197E-01
  0.126917E-01  0.139238E-01  0.151571E-01  0.163257E-01  0.173606E-01  0.181944E-01
  0.187693E-01  0.190454E-01  0.190069E-01  0.186632E-01  0.180464E-01  0.172065E-01
  0.162064E-01  0.151173E-01  0.140119E-01  0.129586E-01  0.120161E-01  0.112309E-01
  0.106387E-01  0.102683E-01  0.101456E-01  0.102956E-01  0.107409E-01  0.115002E-01
  0.125870E-01  0.140102E-01  0.157718E-01  0.178594E-01  0.202345E-01  0.228223E-01
  0.255073E-01  0.281403E-01  0.305555E-01  0.325937E-01  0.341226E-01  0.350478E-01
  0.353143E-01  0.349041E-01  0.338378E-01  0.321778E-01  0.300269E-01  0.275187E-01
  0.248033E-01  0.220321E-01  0.193432E-01  0.168491E-01  0.146282E-01  0.127232E-01
  0.111484E-01  0.989919E-02  0.896153E-02  0.831665E-02  0.794373E-02  0.782228E-02
  0.793458E-02  0.826683E-02  0.880764E-02  0.954414E-02  0.104575E-01  0.115197E-01
  0.114461E-01  0.126948E-01  0.140195E-01  0.153600E-01  0.166476E-01  0.178087E-01
  0.187699E-01  0.194652E-01  0.198458E-01  0.198874E-01  0.195932E-01  0.189917E-01
  0.181312E-01  0.170757E-01  0.158998E-01  0.146816E-01  0.134955E-01  0.124058E-01
  0.114626E-01  0.107033E-01  0.101547E-01  0.983843E-02  0.977357E-02  0.997694E-02
  0.104616E-01  0.112358E-01  0.123027E-01  0.136600E-01  0.152965E-01  0.171844E-01
  0.192701E-01  0.214682E-01  0.236643E-01  0.257247E-01  0.275140E-01  0.289121E-01
  0.298250E-01  0.301907E-01  0.299802E-01  0.292017E-01  0.279037E-01  0.261725E-01
  0.241222E-01  0.218797E-01  0.195715E-01  0.173130E-01  0.151998E-01  0.133016E-01
  0.116606E-01  0.102959E-01  0.921067E-02  0.839859E-02  0.784836E-02  0.754621E-02
  0.747841E-02  0.763356E-02  0.800347E-02  0.858154E-02  0.935930E-02  0.103222E-01
  0.114461E-01  0.111634E-01  0.124563E-01  0.138400E-01  0.152551E-01  0.166319E-01
  0.178942E-01  0.189645E-01  0.197706E-01  0.202556E-01  0.203868E-01  0.201604E-01
  0.195996E-01  0.187500E-01  0.176744E-01  0.164485E-01  0.151535E-01  0.138686E-01
  0.126623E-01  0.115890E-01  0.106880E-01  0.998612E-02  0.950213E-02  0.924999E-02
  0.924078E-02  0.948247E-02  0.997888E-02  0.107292E-01  0.117278E-01  0.129627E-01
  0.144110E-01  0.160331E-01  0.177667E-01  0.195263E-01  0.212092E-01  0.227062E-01
  0.239155E-01  0.247532E-01  0.251585E-01  0.250979E-01  0.245688E-01  0.236037E-01
  0.222690E-01  0.206559E-01  0.188674E-01  0.170065E-01  0.151672E-01  0.134292E-01
  0.118533E-01  0.104800E-01  0.933172E-02  0.841743E-02  0.773710E-02  0.728546E-02
  0.705479E-02  0.703747E-02  0.722810E-02  0.762386E-02  0.822283E-02  0.902079E-02
  0.100076E-01  0.111634E-01  0.106827E-01  0.119834E-01  0.133872E-01  0.148376E-01
  0.162658E-01  0.175957E-01  0.187477E-01  0.196459E-01  0.202271E-01  0.204509E-01
  0.203059E-01  0.198091E-01  0.190017E-01  0.179435E-01  0.167088E-01  0.153797E-01
  0.140373E-01  0.127535E-01  0.115859E-01  0.105763E-01  0.975251E-02  0.913219E-02
  0.872587E-02  0.853973E-02  0.857678E-02  0.883694E-02  0.931667E-02  0.100085E-01
  0.108998E-01  0.119704E-01  0.131892E-01  0.145099E-01  0.158696E-01  0.171916E-01
  0.183918E-01  0.193889E-01  0.201124E-01  0.205090E-01  0.205452E-01  0.202119E-01
  0.195276E-01  0.185394E-01  0.173159E-01  0.159368E-01  0.144828E-01  0.130285E-01
  0.116390E-01  0.103663E-01  0.924851E-02  0.830974E-02  0.756268E-02  0.701174E-02
  0.665622E-02  0.649320E-02  0.652024E-02  0.673702E-02  0.714544E-02  0.774774E-02
  0.854361E-02  0.952697E-02  0.106827E-01  0.100300E-01  0.113022E-01  0.126856E-01
  0.141286E-01  0.155660E-01  0.169236E-01  0.181227E-01  0.190862E-01  0.197473E-01
  0.200593E-01  0.200033E-01  0.195892E-01  0.188522E-01  0.178475E-01  0.166461E-01
  0.153277E-01  0.139733E-01  0.126560E-01  0.114354E-01  0.103554E-01  0.944567E-02
  0.872391E-02  0.819915E-02  0.787429E-02  0.774818E-02  0.781702E-02  0.807492E-02
  0.851345E-02  0.912051E-02  0.987838E-02  0.107616E-01  0.117346E-01  0.127511E-01
  0.137543E-01  0.146815E-01  0.154701E-01  0.160642E-01  0.164198E-01  0.165071E-01
  0.163141E-01  0.158494E-01  0.151439E-01  0.142463E-01  0.132156E-01  0.121124E-01
  0.109943E-01  0.991298E-02  0.891246E-02  0.802713E-02  0.728108E-02  0.668891E-02
  0.625783E-02  0.599042E-02  0.588751E-02  0.595062E-02  0.618340E-02  0.659134E-02