 CRYSTAL
 PRIMVEC
    4.962087201    0.000009171   -0.000000000
   -1.096087382    4.668393985   -0.000000000
   -0.000000000   -0.000000000    5.130336530
 PRIMCOORD
           4           1
Si       -0.105750807    1.137365050    1.733176631
Si        2.484806270    1.973778292    0.713126367
Si        0.105761721    2.778919072    4.054785060
Si        2.477285902    0.676847347    2.996567760
BEGIN_BLOCK_DATAGRID_3D
3D_PWSCF
BEGIN_DATAGRID_3D_UNKNOWN
          49          46          49
  0.000000  0.000000  0.000000
    4.962087    0.000009   -0.000000
   -1.096087    4.668394   -0.000000
   -0.000000   -0.000000    5.130337
  0.321848E-02  0.326031E-02  0.329373E-02  0.332075E-02  0.334377E-02  0.336513E-02
  0.338714E-02  0.341226E-02  0.344311E-02  0.348196E-02  0.353024E-02  0.358838E-02
  0.365607E-02  0.373268E-02  0.381737E-02  0.390865E-02  0.400380E-02  0.409867E-02
  0.418811E-02  0.426675E-02  0.432951E-02  0.437154E-02  0.438797E-02  0.437437E-02
  0.432787E-02  0.424833E-02  0.413852E-02  0.400340E-02  0.384895E-02  0.368169E-02
  0.350875E-02  0.333794E-02  0.317719E-02  0.303348E-02  0.291190E-02  0.281550E-02
  0.274566E-02  0.270273E-02  0.268618E-02  0.269443E-02  0.272453E-02  0.277221E-02
  0.283237E-02  0.290002E-02  0.297080E-02  0.304103E-02  0.310749E-02  0.316732E-02
  0.321848E-02  0.346974E-02  0.349234E-02  0.350103E-02  0.349868E-02  0.348908E-02
  0.347644E-02  0.346515E-02  0.345976E-02  0.346471E-02  0.348399E-02  0.352066E-02
  0.357668E-02  0.365293E-02  0.374931E-02  0.386479E-02  0.399715E-02  0.414262E-02
  0.429553E-02  0.444855E-02  0.459339E-02  0.472169E-02  0.482536E-02  0.489661E-02
  0.492829E-02  0.491513E-02  0.485523E-02  0.475093E-02  0.460818E-02  0.443503E-02
  0.424049E-02  0.403412E-02  0.382604E-02  0.362635E-02  0.344414E-02  0.328649E-02
  0.315823E-02  0.306207E-02  0.299898E-02  0.296832E-02  0.296784E-02  0.299367E-02
  0.304052E-02  0.310228E-02  0.317269E-02  0.324591E-02  0.331664E-02  0.338005E-02
  0.343202E-02  0.346974E-02  0.380954E-02  0.381806E-02  0.380709E-02  0.378012E-02
  0.374213E-02  0.369904E-02  0.365732E-02  0.362362E-02  0.360425E-02  0.360492E-02
  0.363043E-02  0.368450E-02  0.376953E-02  0.388635E-02  0.403403E-02  0.420979E-02
  0.440896E-02  0.462467E-02  0.484785E-02  0.506748E-02  0.527145E-02  0.544746E-02
  0.558363E-02  0.566926E-02  0.569604E-02  0.565986E-02  0.556200E-02  0.540893E-02
  0.521081E-02  0.497971E-02  0.472853E-02  0.447059E-02  0.421889E-02  0.398518E-02
  0.377894E-02  0.360709E-02  0.347398E-02  0.338157E-02  0.332942E-02  0.331474E-02
  0.333266E-02  0.337672E-02  0.343957E-02  0.351368E-02  0.359167E-02  0.366641E-02
  0.373116E-02  0.378016E-02  0.380954E-02  0.423130E-02  0.423069E-02  0.420473E-02
  0.415730E-02  0.409439E-02  0.402357E-02  0.395344E-02  0.389289E-02  0.385034E-02
  0.383341E-02  0.384875E-02  0.390199E-02  0.399731E-02  0.413684E-02  0.432024E-02
  0.454460E-02  0.480462E-02  0.509254E-02  0.539770E-02  0.570637E-02  0.600219E-02
  0.626739E-02  0.648439E-02  0.663752E-02  0.671462E-02  0.670882E-02  0.661984E-02
  0.645413E-02  0.622364E-02  0.594388E-02  0.563215E-02  0.530640E-02  0.498404E-02
  0.468065E-02  0.440894E-02  0.417821E-02  0.399448E-02  0.386064E-02  0.377658E-02
  0.373927E-02  0.374312E-02  0.378048E-02  0.384255E-02  0.392012E-02  0.400404E-02
  0.408522E-02  0.415488E-02  0.420534E-02  0.423130E-02  0.472839E-02  0.472351E-02
  0.468710E-02  0.462312E-02  0.453842E-02  0.444218E-02  0.434521E-02  0.425889E-02
  0.419408E-02  0.416066E-02  0.416733E-02  0.422172E-02  0.432992E-02  0.449583E-02
  0.472040E-02  0.500142E-02  0.533356E-02  0.570827E-02  0.611327E-02  0.653178E-02
  0.694249E-02  0.732087E-02  0.764179E-02  0.788261E-02  0.802585E-02  0.806102E-02
  0.798569E-02  0.780577E-02  0.753464E-02  0.719144E-02  0.679894E-02  0.638147E-02
  0.596285E-02  0.556445E-02  0.520359E-02  0.489285E-02  0.464007E-02  0.444882E-02
  0.431904E-02  0.424745E-02  0.422799E-02  0.425214E-02  0.430960E-02  0.438909E-02
  0.447910E-02  0.456822E-02  0.464549E-02  0.470124E-02  0.472839E-02  0.529419E-02
  0.528957E-02  0.524712E-02  0.517041E-02  0.506701E-02  0.494770E-02  0.482554E-02
  0.471457E-02  0.462851E-02  0.457990E-02  0.457982E-02  0.463798E-02  0.476266E-02
  0.496000E-02  0.523322E-02  0.558182E-02  0.600123E-02  0.648236E-02  0.701094E-02
  0.756655E-02  0.812218E-02  0.864541E-02  0.910167E-02  0.945893E-02  0.969191E-02
  0.978464E-02  0.973147E-02  0.953716E-02  0.921642E-02  0.879255E-02  0.829505E-02
  0.775650E-02  0.720927E-02  0.668263E-02  0.620051E-02  0.578028E-02  0.543261E-02
  0.516203E-02  0.496822E-02  0.484715E-02  0.479201E-02  0.479350E-02  0.483996E-02
  0.491794E-02  0.501301E-02  0.511075E-02  0.519763E-02  0.526179E-02  0.529419E-02
  0.592194E-02  0.592180E-02  0.587763E-02  0.579218E-02  0.567346E-02  0.553382E-02
  0.538855E-02  0.525447E-02  0.514840E-02  0.508599E-02  0.508113E-02  0.514608E-02
  0.529167E-02  0.552699E-02  0.585840E-02  0.628815E-02  0.681323E-02  0.742437E-02
  0.810516E-02  0.883102E-02  0.956855E-02  0.102764E-01  0.109089E-01  0.114218E-01
  0.117784E-01  0.119542E-01  0.119376E-01  0.117314E-01  0.113518E-01  0.108274E-01
  0.101964E-01  0.950210E-02  0.878763E-02  0.809218E-02  0.744818E-02  0.687972E-02
  0.640202E-02  0.602189E-02  0.573916E-02  0.554865E-02  0.544196E-02  0.540829E-02
  0.543448E-02  0.550489E-02  0.560201E-02  0.570786E-02  0.580559E-02  0.588072E-02
  0.592194E-02  0.660453E-02  0.661304E-02  0.657178E-02  0.648214E-02  0.635221E-02
  0.619572E-02  0.603019E-02  0.587512E-02  0.575052E-02  0.567554E-02  0.566751E-02
  0.574204E-02  0.591337E-02  0.619434E-02  0.659516E-02  0.712156E-02  0.777284E-02
  0.854024E-02  0.940563E-02  0.103402E-01  0.113037E-01  0.122447E-01  0.131045E-01
  0.138237E-01  0.143500E-01  0.146455E-01  0.146891E-01  0.144790E-01  0.140326E-01
  0.133858E-01  0.125882E-01  0.116971E-01  0.107694E-01  0.985670E-02  0.900197E-02
  0.823778E-02  0.758575E-02  0.705671E-02  0.665193E-02  0.636543E-02  0.618655E-02
  0.610181E-02  0.609550E-02  0.614943E-02  0.624299E-02  0.635446E-02  0.646315E-02
  0.655122E-02  0.660453E-02  0.733515E-02  0.735658E-02  0.732333E-02  0.723488E-02
  0.709886E-02  0.693005E-02  0.674799E-02  0.657478E-02  0.643354E-02  0.634705E-02
  0.633684E-02  0.642296E-02  0.662436E-02  0.695859E-02  0.744041E-02  0.807950E-02
  0.887817E-02  0.982933E-02  0.109143E-01  0.121007E-01  0.133408E-01  0.145718E-01
  0.157197E-01  0.167062E-01  0.174596E-01  0.179232E-01  0.180618E-01  0.178652E-01
  0.173506E-01  0.165613E-01  0.155615E-01  0.144261E-01  0.132305E-01  0.120426E-01
  0.109189E-01  0.990279E-02  0.902396E-02  0.829855E-02  0.773052E-02  0.731402E-02
  0.703627E-02  0.688021E-02  0.682615E-02  0.685216E-02  0.693411E-02  0.704653E-02
  0.716468E-02  0.726678E-02  0.733515E-02  0.810929E-02  0.814791E-02  0.812811E-02
  0.804687E-02  0.791068E-02  0.773482E-02  0.754059E-02  0.735259E-02  0.719689E-02
  0.709997E-02  0.708806E-02  0.718685E-02  0.742135E-02  0.781501E-02  0.838779E-02
  0.915389E-02  0.101197E-01  0.112813E-01  0.126215E-01  0.141051E-01  0.156769E-01
  0.172603E-01  0.187628E-01  0.200840E-01  0.211285E-01  0.218172E-01  0.220963E-01
  0.219434E-01  0.213714E-01  0.204295E-01  0.191968E-01  0.177692E-01  0.162452E-01
  0.147148E-01  0.132536E-01  0.119198E-01  0.107537E-01  0.977784E-02  0.899911E-02
  0.841221E-02  0.800277E-02  0.775016E-02  0.762974E-02  0.761434E-02  0.767509E-02
  0.778228E-02  0.790703E-02  0.802331E-02  0.810929E-02  0.892739E-02  0.898769E-02
  0.898710E-02  0.891944E-02  0.878931E-02  0.861175E-02  0.840948E-02  0.820957E-02
  0.804111E-02  0.793436E-02  0.792059E-02  0.803198E-02  0.830073E-02  0.875718E-02
  0.942728E-02  0.103306E-01  0.114791E-01  0.128743E-01  0.145022E-01  0.163266E-01
  0.182833E-01  0.202802E-01  0.222024E-01  0.239238E-01  0.253223E-01  0.262940E-01
  0.267647E-01  0.266969E-01  0.260954E-01  0.250101E-01  0.235311E-01  0.217751E-01
  0.198672E-01  0.179257E-01  0.160522E-01  0.143269E-01  0.128055E-01  0.115192E-01
  0.104778E-01  0.967603E-02  0.909759E-02  0.871866E-02  0.850971E-02  0.843744E-02
  0.846671E-02  0.856235E-02  0.869072E-02  0.882123E-02  0.892739E-02  0.979618E-02
  0.988387E-02  0.990925E-02  0.986226E-02  0.974475E-02  0.957067E-02  0.936361E-02
  0.915312E-02  0.897167E-02  0.885367E-02  0.883586E-02  0.895741E-02  0.925844E-02
  0.977688E-02  0.105454E-01  0.115901E-01  0.129301E-01  0.145745E-01  0.165147E-01
  0.187141E-01  0.210992E-01  0.235593E-01  0.259537E-01  0.281268E-01  0.299274E-01
  0.312275E-01  0.319347E-01  0.319982E-01  0.314126E-01  0.302210E-01  0.285147E-01
  0.264241E-01  0.240998E-01  0.216927E-01  0.193386E-01  0.171480E-01  0.151996E-01
  0.135384E-01  0.121795E-01  0.111164E-01  0.103298E-01  0.979218E-02  0.946974E-02
  0.932326E-02  0.931049E-02  0.938921E-02  0.951968E-02  0.966590E-02  0.979618E-02
  0.107276E-01  0.108510E-01  0.109114E-01  0.108940E-01  0.107968E-01  0.106319E-01
  0.104228E-01  0.102014E-01  0.100039E-01  0.986971E-02  0.984151E-02  0.996608E-02
  0.102919E-01  0.108651E-01  0.117258E-01  0.129078E-01  0.144387E-01  0.163371E-01
  0.186011E-01  0.211937E-01  0.240312E-01  0.269817E-01  0.298746E-01  0.325203E-01
  0.347374E-01  0.363774E-01  0.373394E-01  0.375702E-01  0.370578E-01  0.358309E-01
  0.339654E-01  0.315871E-01  0.288613E-01  0.259712E-01  0.230932E-01  0.203779E-01
  0.179372E-01  0.158384E-01  0.141066E-01  0.127360E-01  0.117027E-01  0.109744E-01
  0.105130E-01  0.102741E-01  0.102088E-01  0.102668E-01  0.104003E-01  0.105665E-01
  0.107276E-01  0.117362E-01  0.119069E-01  0.120146E-01  0.120385E-01  0.119718E-01
  0.118233E-01  0.116157E-01  0.113826E-01  0.111639E-01  0.110046E-01  0.109543E-01
  0.110680E-01  0.114032E-01  0.120148E-01  0.129512E-01  0.142551E-01  0.159641E-01
  0.181068E-01  0.206882E-01  0.236707E-01  0.269588E-01  0.303958E-01  0.337754E-01
  0.368685E-01  0.394619E-01  0.413951E-01  0.425781E-01  0.429779E-01  0.425919E-01
  0.414320E-01  0.395361E-01  0.369931E-01  0.339561E-01  0.306288E-01  0.272313E-01
  0.239651E-01  0.209876E-01  0.183994E-01  0.162452E-01  0.145244E-01  0.132099E-01
  0.122629E-01  0.116399E-01  0.112923E-01  0.111652E-01  0.112002E-01  0.113403E-01
  0.115341E-01  0.117362E-01  0.128364E-01  0.130696E-01  0.132401E-01  0.133200E-01
  0.132965E-01  0.131740E-01  0.129732E-01  0.127280E-01  0.124822E-01  0.122863E-01
  0.121975E-01  0.122797E-01  0.125998E-01  0.132226E-01  0.142058E-01  0.156021E-01
  0.174600E-01  0.198186E-01  0.226896E-01  0.260338E-01  0.297417E-01  0.336278E-01
  0.374426E-01  0.409090E-01  0.437791E-01  0.458918E-01  0.471937E-01  0.477075E-01
  0.474697E-01  0.464854E-01  0.447359E-01  0.422313E-01  0.390662E-01  0.354335E-01
  0.315899E-01  0.277973E-01  0.242739E-01  0.211687E-01  0.185572E-01  0.164533E-01
  0.148307E-01  0.136444E-01  0.128442E-01  0.123769E-01  0.121823E-01  0.121949E-01
  0.123480E-01  0.125800E-01  0.128364E-01  0.140398E-01  0.143539E-01  0.146061E-01
  0.147598E-01  0.147949E-01  0.147099E-01  0.145222E-01  0.142655E-01  0.139863E-01
  0.137408E-01  0.135939E-01  0.136185E-01  0.138919E-01  0.144887E-01  0.154771E-01
  0.169203E-01  0.188786E-01  0.214020E-01  0.245092E-01  0.281595E-01  0.322289E-01
  0.364993E-01  0.406708E-01  0.444081E-01  0.474238E-01  0.495627E-01  0.508325E-01
  0.513483E-01  0.512245E-01  0.504855E-01  0.490546E-01  0.468297E-01  0.437909E-01
  0.400691E-01  0.359306E-01  0.316986E-01  0.276678E-01  0.240524E-01  0.209738E-01
  0.184711E-01  0.165263E-01  0.150914E-01  0.141089E-01  0.135192E-01  0.132579E-01
  0.132528E-01  0.134284E-01  0.137123E-01  0.140398E-01  0.153516E-01  0.157689E-01
  0.161254E-01  0.163742E-01  0.164857E-01  0.164515E-01  0.162845E-01  0.160169E-01
  0.156974E-01  0.153875E-01  0.151599E-01  0.150973E-01  0.152868E-01  0.158134E-01
  0.167551E-01  0.181855E-01  0.201764E-01  0.227893E-01  0.260517E-01  0.299242E-01
  0.342710E-01  0.388433E-01  0.432883E-01  0.472059E-01  0.502599E-01  0.522979E-01
  0.533965E-01  0.537853E-01  0.536891E-01  0.531866E-01  0.521678E-01  0.504138E-01
  0.477522E-01  0.441942E-01  0.399692E-01  0.354434E-01  0.309941E-01  0.269171E-01
  0.233940E-01  0.205015E-01  0.182388E-01  0.165601E-01  0.154020E-01  0.146982E-01
  0.143790E-01  0.143670E-01  0.145790E-01  0.149325E-01  0.153516E-01  0.167648E-01
  0.173119E-01  0.177997E-01  0.181690E-01  0.183788E-01  0.184115E-01  0.182740E-01
  0.179966E-01  0.176291E-01  0.172384E-01  0.169054E-01  0.167222E-01  0.167867E-01
  0.171936E-01  0.180300E-01  0.193781E-01  0.213193E-01  0.239265E-01  0.272381E-01
  0.312216E-01  0.357382E-01  0.405187E-01  0.451662E-01  0.492181E-01  0.522806E-01
  0.541859E-01  0.550616E-01  0.552438E-01  0.550780E-01  0.547269E-01  0.540891E-01
  0.528626E-01  0.507249E-01  0.475340E-01  0.434311E-01  0.387871E-01  0.340490E-01
  0.295991E-01  0.256902E-01  0.224463E-01  0.198924E-01  0.179913E-01  0.166773E-01
  0.158779E-01  0.155180E-01  0.155165E-01  0.157841E-01  0.162291E-01  0.167648E-01
  0.182536E-01  0.189611E-01  0.196114E-01  0.201310E-01  0.204652E-01  0.205850E-01
  0.204897E-01  0.202060E-01  0.197846E-01  0.192971E-01  0.188324E-01  0.184932E-01
  0.183881E-01  0.186221E-01  0.192905E-01  0.204819E-01  0.222840E-01  0.247788E-01
  0.280170E-01  0.319797E-01  0.365377E-01  0.414201E-01  0.462090E-01  0.503958E-01
  0.535275E-01  0.553930E-01  0.561263E-01  0.561279E-01  0.558433E-01  0.555302E-01
  0.551368E-01  0.543362E-01  0.527032E-01  0.499528E-01  0.461101E-01  0.415064E-01
  0.366252E-01  0.319214E-01  0.277183E-01  0.241913E-01  0.213971E-01  0.193130E-01
  0.178755E-01  0.170081E-01  0.166322E-01  0.166640E-01  0.170106E-01  0.175730E-01
  0.182536E-01  0.197693E-01  0.206687E-01  0.215141E-01  0.222166E-01  0.227055E-01
  0.229375E-01  0.229023E-01  0.226215E-01  0.221454E-01  0.215494E-01  0.209301E-01
  0.204003E-01  0.200804E-01  0.200867E-01  0.205231E-01  0.214829E-01  0.230568E-01
  0.253316E-01  0.283695E-01  0.321693E-01  0.366241E-01  0.414841E-01  0.463422E-01
  0.506766E-01  0.539877E-01  0.559977E-01  0.567881E-01  0.567548E-01  0.563926E-01
  0.560393E-01  0.557182E-01  0.551366E-01  0.538391E-01  0.514519E-01  0.478947E-01
  0.434311E-01  0.385387E-01  0.337128E-01  0.293310E-01  0.256155E-01  0.226547E-01
  0.204443E-01  0.189274E-01  0.180278E-01  0.176657E-01  0.177571E-01  0.182079E-01
  0.189144E-01  0.197693E-01  0.212395E-01  0.223590E-01  0.234301E-01  0.243472E-01
  0.250217E-01  0.253943E-01  0.254422E-01  0.251802E-01  0.246568E-01  0.239496E-01
  0.231614E-01  0.224140E-01  0.218396E-01  0.215669E-01  0.217102E-01  0.223681E-01
  0.236313E-01  0.255870E-01  0.283049E-01  0.318023E-01  0.360022E-01  0.406949E-01
  0.455159E-01  0.499708E-01  0.535450E-01  0.558902E-01  0.569861E-01  0.571464E-01
  0.568422E-01  0.564509E-01  0.560720E-01  0.554899E-01  0.542913E-01  0.520895E-01
  0.487448E-01  0.444517E-01  0.396477E-01  0.348278E-01  0.303948E-01  0.266026E-01
  0.235668E-01  0.213012E-01  0.197593E-01  0.188690E-01  0.185533E-01  0.187309E-01
  0.193101E-01  0.201845E-01  0.212395E-01  0.225735E-01  0.239334E-01  0.252532E-01
  0.264108E-01  0.272987E-01  0.278394E-01  0.279958E-01  0.277742E-01  0.272195E-01
  0.264100E-01  0.254519E-01  0.244739E-01  0.236182E-01  0.230267E-01  0.228262E-01
  0.231222E-01  0.240054E-01  0.255597E-01  0.278559E-01  0.309264E-01  0.347257E-01
  0.390936E-01  0.437302E-01  0.482041E-01  0.520273E-01  0.548059E-01  0.564011E-01
  0.569845E-01  0.569272E-01  0.565856E-01  0.561112E-01  0.553826E-01  0.540821E-01
  0.518813E-01  0.486405E-01  0.445076E-01  0.398627E-01  0.351643E-01  0.308078E-01
  0.270579E-01  0.240475E-01  0.218064E-01  0.202996E-01  0.194631E-01  0.192263E-01
  0.195145E-01  0.202409E-01  0.213006E-01  0.225735E-01  0.236706E-01  0.252786E-01
  0.268582E-01  0.282715E-01  0.293924E-01  0.301239E-01  0.304131E-01  0.302561E-01
  0.296933E-01  0.288014E-01  0.276877E-01  0.264843E-01  0.253406E-01  0.244101E-01
  0.238331E-01  0.237254E-01  0.241793E-01  0.252729E-01  0.270732E-01  0.296200E-01
  0.328953E-01  0.367880E-01  0.410694E-01  0.453910E-01  0.493279E-01  0.524829E-01
  0.546225E-01  0.557597E-01  0.561130E-01  0.559547E-01  0.554446E-01  0.545444E-01
  0.530554E-01  0.507538E-01  0.475495E-01  0.435740E-01  0.391500E-01  0.346776E-01
  0.305174E-01  0.269250E-01  0.240393E-01  0.219017E-01  0.204894E-01  0.197491E-01
  0.196200E-01  0.200371E-01  0.209219E-01  0.221737E-01  0.236706E-01  0.244313E-01
  0.262792E-01  0.281137E-01  0.297832E-01  0.311443E-01  0.320809E-01  0.325233E-01
  0.324558E-01  0.319128E-01  0.309683E-01  0.297277E-01  0.283231E-01  0.269074E-01
  0.256425E-01  0.246818E-01  0.241530E-01  0.241533E-01  0.247560E-01  0.260200E-01
  0.279850E-01  0.306514E-01  0.339499E-01  0.377173E-01  0.416889E-01  0.455202E-01
  0.488507E-01  0.514013E-01  0.530570E-01  0.538763E-01  0.540094E-01  0.535778E-01
  0.525936E-01  0.509662E-01  0.485879E-01  0.454421E-01  0.416666E-01  0.375365E-01
  0.333875E-01  0.295306E-01  0.261979E-01  0.235248E-01  0.215602E-01  0.202932E-01
  0.196836E-01  0.196829E-01  0.202380E-01  0.212812E-01  0.227190E-01  0.244313E-01
  0.247703E-01  0.268321E-01  0.288983E-01  0.308069E-01  0.324004E-01  0.335457E-01
  0.341558E-01  0.342021E-01  0.337108E-01  0.327508E-01  0.314241E-01  0.298595E-01
  0.282096E-01  0.266410E-01  0.253170E-01  0.243776E-01  0.239279E-01  0.240401E-01
  0.247637E-01  0.261323E-01  0.281544E-01  0.307908E-01  0.339315E-01  0.373838E-01
  0.408817E-01  0.441226E-01  0.468290E-01  0.488145E-01  0.500149E-01  0.504601E-01
  0.502066E-01  0.492779E-01  0.476567E-01  0.453295E-01  0.423478E-01  0.388633E-01
  0.351146E-01  0.313783E-01  0.279137E-01  0.249224E-01  0.225305E-01  0.207916E-01
  0.197066E-01  0.192495E-01  0.193860E-01  0.200763E-01  0.212649E-01  0.228679E-01
  0.247703E-01  0.246300E-01  0.268622E-01  0.291188E-01  0.312316E-01  0.330337E-01
  0.343784E-01  0.351634E-01  0.353453E-01  0.349392E-01  0.340064E-01  0.326426E-01
  0.309719E-01  0.291435E-01  0.273246E-01  0.256842E-01  0.243724E-01  0.235039E-01
  0.231537E-01  0.233656E-01  0.241641E-01  0.255569E-01  0.275220E-01  0.299877E-01
  0.328177E-01  0.358124E-01  0.387289E-01  0.413203E-01  0.433811E-01  0.447801E-01
  0.454625E-01  0.454209E-01  0.446642E-01  0.432075E-01  0.410919E-01  0.384116E-01
  0.353254E-01  0.320425E-01  0.287905E-01  0.257822E-01  0.231883E-01  0.211226E-01
  0.196416E-01  0.187580E-01  0.184607E-01  0.187300E-01  0.195397E-01  0.208469E-01
  0.225793E-01  0.246300E-01  0.239916E-01  0.263357E-01  0.287259E-01  0.309927E-01
  0.329644E-01  0.344863E-01  0.354430E-01  0.357760E-01  0.354864E-01  0.346241E-01
  0.332763E-01  0.315603E-01  0.296205E-01  0.276216E-01  0.257337E-01  0.241127E-01
  0.228814E-01  0.221211E-01  0.218748E-01  0.221602E-01  0.229794E-01  0.243165E-01
  0.261232E-01  0.283042E-01  0.307118E-01  0.331565E-01  0.354321E-01  0.373467E-01
  0.387497E-01  0.395439E-01  0.396800E-01  0.391446E-01  0.379561E-01  0.361727E-01
  0.339012E-01  0.312942E-01  0.285331E-01  0.258060E-01  0.232859E-01  0.211154E-01
  0.193954E-01  0.181841E-01  0.175048E-01  0.173611E-01  0.177471E-01  0.186488E-01
  0.200357E-01  0.218484E-01  0.239916E-01  0.228796E-01  0.252666E-01  0.277232E-01
  0.300827E-01  0.321735E-01  0.338373E-01  0.349497E-01  0.354384E-01  0.352881E-01
  0.345346E-01  0.332535E-01  0.315541E-01  0.295748E-01  0.274758E-01  0.254243E-01
  0.235766E-01  0.220599E-01  0.209617E-01  0.203289E-01  0.201774E-01  0.205042E-01
  0.212928E-01  0.225063E-01  0.240758E-01  0.258928E-01  0.278125E-01  0.296701E-01
  0.313015E-01  0.325648E-01  0.333531E-01  0.335983E-01  0.332703E-01  0.323780E-01
  0.309737E-01  0.291547E-01  0.270548E-01  0.248271E-01  0.226254E-01  0.205901E-01
  0.188387E-01  0.174594E-01  0.165106E-01  0.160250E-01  0.160183E-01  0.164962E-01
  0.174547E-01  0.188746E-01  0.207098E-01  0.228796E-01  0.213591E-01  0.237152E-01
  0.261650E-01  0.285497E-01  0.307014E-01  0.324615E-01  0.337006E-01  0.343349E-01
  0.343336E-01  0.337164E-01  0.325455E-01  0.309203E-01  0.289720E-01  0.268548E-01
  0.247303E-01  0.227501E-01  0.210406E-01  0.196925E-01  0.187580E-01  0.182559E-01
  0.181825E-01  0.185195E-01  0.192341E-01  0.202726E-01  0.215534E-01  0.229677E-01
  0.243883E-01  0.256832E-01  0.267315E-01  0.274340E-01  0.277203E-01  0.275523E-01
  0.269279E-01  0.258846E-01  0.244998E-01  0.228819E-01  0.211547E-01  0.194419E-01
  0.178559E-01  0.164923E-01  0.154279E-01  0.147194E-01  0.144061E-01  0.145127E-01
  0.150529E-01  0.160302E-01  0.174341E-01  0.192318E-01  0.213591E-01  0.195262E-01
  0.217796E-01  0.241490E-01  0.264884E-01  0.286376E-01  0.304411E-01  0.317671E-01
  0.325236E-01  0.326666E-01  0.322003E-01  0.311728E-01  0.296716E-01  0.278190E-01
  0.257613E-01  0.236522E-01  0.216357E-01  0.198322E-01  0.183311E-01  0.171880E-01
  0.164267E-01  0.160468E-01  0.160312E-01  0.163495E-01  0.169562E-01  0.177873E-01
  0.187608E-01  0.197806E-01  0.207453E-01  0.215579E-01  0.221347E-01  0.224116E-01
  0.223493E-01  0.219378E-01  0.211997E-01  0.201909E-01  0.189933E-01  0.177026E-01
  0.164154E-01  0.152205E-01  0.141954E-01  0.134057E-01  0.129051E-01  0.127355E-01
  0.129271E-01  0.134985E-01  0.144578E-01  0.158008E-01  0.175061E-01  0.195262E-01
  0.174953E-01  0.195837E-01  0.218041E-01  0.240288E-01  0.261103E-01  0.278994E-01
  0.292650E-01  0.301101E-01  0.303810E-01  0.300687E-01  0.292069E-01  0.278701E-01
  0.261690E-01  0.242394E-01  0.222252E-01  0.202602E-01  0.184565E-01  0.168983E-01
  0.156408E-01  0.147118E-01  0.141161E-01  0.138410E-01  0.138599E-01  0.141337E-01
  0.146105E-01  0.152269E-01  0.159108E-01  0.165860E-01  0.171777E-01  0.176190E-01
  0.178559E-01  0.178523E-01  0.175940E-01  0.170924E-01  0.163844E-01  0.155284E-01
  0.145951E-01  0.136579E-01  0.127859E-01  0.120414E-01  0.114798E-01  0.111498E-01
  0.110922E-01  0.113390E-01  0.119115E-01  0.128204E-01  0.140661E-01  0.156354E-01
  0.174953E-01  0.153850E-01  0.172623E-01  0.192779E-01  0.213257E-01  0.232763E-01
  0.249920E-01  0.263462E-01  0.272405E-01  0.276146E-01  0.274492E-01  0.267651E-01
  0.256222E-01  0.241168E-01  0.223713E-01  0.205168E-01  0.186761E-01  0.169512E-01
  0.154195E-01  0.141335E-01  0.131223E-01  0.123951E-01  0.119448E-01  0.117504E-01
  0.117796E-01  0.119902E-01  0.123329E-01  0.127531E-01  0.131935E-01  0.135975E-01
  0.139128E-01  0.140960E-01  0.141163E-01  0.139589E-01  0.136274E-01  0.131448E-01
  0.125505E-01  0.118948E-01  0.112319E-01  0.106150E-01  0.100938E-01  0.971406E-02
  0.951741E-02  0.954089E-02  0.981506E-02  0.103621E-01  0.111949E-01  0.123171E-01
  0.137213E-01  0.153850E-01  0.133045E-01  0.149451E-01  0.167194E-01  0.185435E-01
  0.203098E-01  0.218976E-01  0.231902E-01  0.240916E-01  0.245386E-01  0.245045E-01
  0.239983E-01  0.230653E-01  0.217852E-01  0.202634E-01  0.186162E-01  0.169532E-01
  0.153664E-01  0.139259E-01  0.126803E-01  0.116590E-01  0.108739E-01  0.103224E-01
  0.998928E-02  0.984918E-02  0.986900E-02  0.100107E-01  0.102329E-01  0.104928E-01
  0.107470E-01  0.109550E-01  0.110827E-01  0.111049E-01  0.110081E-01  0.107917E-01
  0.104690E-01  0.100658E-01  0.961662E-02  0.916075E-02  0.873836E-02  0.838850E-02
  0.814793E-02  0.805067E-02  0.812770E-02  0.840615E-02  0.890773E-02  0.964708E-02
  0.106306E-01  0.118551E-01  0.133045E-01  0.113430E-01  0.127408E-01  0.142596E-01
  0.158349E-01  0.173816E-01  0.187997E-01  0.199871E-01  0.208554E-01  0.213418E-01
  0.214147E-01  0.210741E-01  0.203511E-01  0.193078E-01  0.180309E-01  0.166189E-01
  0.151672E-01  0.137572E-01  0.124518E-01  0.112961E-01  0.103188E-01  0.953397E-02
  0.894227E-02  0.853313E-02  0.828710E-02  0.817880E-02  0.817956E-02  0.825878E-02
  0.838438E-02  0.852351E-02  0.864482E-02  0.872152E-02  0.873378E-02  0.867001E-02
  0.852770E-02  0.831398E-02  0.804515E-02  0.774460E-02  0.744000E-02  0.716105E-02
  0.693775E-02  0.679893E-02  0.677129E-02  0.687933E-02  0.714551E-02  0.758972E-02
  0.822748E-02  0.906763E-02  0.101100E-01  0.113430E-01  0.956354E-02  0.107278E-01
  0.119965E-01  0.133205E-01  0.146344E-01  0.158595E-01  0.169115E-01  0.177131E-01
  0.182058E-01  0.183561E-01  0.181572E-01  0.176283E-01  0.168149E-01  0.157842E-01
  0.146160E-01  0.133903E-01  0.121772E-01  0.110325E-01  0.999780E-02  0.910115E-02
  0.835795E-02  0.777162E-02  0.733519E-02  0.703389E-02  0.684835E-02  0.675716E-02
  0.673794E-02  0.676724E-02  0.682058E-02  0.687411E-02  0.690719E-02  0.690440E-02
  0.685629E-02  0.675965E-02  0.661790E-02  0.644098E-02  0.624425E-02  0.604673E-02
  0.586972E-02  0.573568E-02  0.566681E-02  0.568377E-02  0.580537E-02  0.604923E-02
  0.643217E-02  0.696906E-02  0.767007E-02  0.853756E-02  0.956354E-02  0.800350E-02
  0.895329E-02  0.999068E-02  0.110780E-01  0.121658E-01  0.131940E-01  0.140963E-01
  0.148087E-01  0.152797E-01  0.154769E-01  0.153890E-01  0.150265E-01  0.144204E-01
  0.136203E-01  0.126874E-01  0.116857E-01  0.106739E-01  0.970072E-02  0.880369E-02
  0.800965E-02  0.733466E-02  0.678428E-02  0.635464E-02  0.603492E-02  0.581048E-02
  0.566532E-02  0.558312E-02  0.554693E-02  0.553894E-02  0.554155E-02  0.553930E-02
  0.552051E-02  0.547776E-02  0.540785E-02  0.531201E-02  0.519599E-02  0.506946E-02
  0.494505E-02  0.483753E-02  0.476323E-02  0.473906E-02  0.478104E-02  0.490365E-02
  0.512024E-02  0.544398E-02  0.588748E-02  0.646067E-02  0.716758E-02  0.800350E-02
  0.667888E-02  0.743836E-02  0.826997E-02  0.914502E-02  0.100262E-01  0.108684E-01
  0.116211E-01  0.122340E-01  0.126639E-01  0.128813E-01  0.128732E-01  0.126439E-01
  0.122135E-01  0.116164E-01  0.108972E-01  0.101050E-01  0.928693E-02  0.848432E-02
  0.773035E-02  0.704962E-02  0.645787E-02  0.596191E-02  0.556050E-02  0.524643E-02
  0.500912E-02  0.483690E-02  0.471791E-02  0.463996E-02  0.459039E-02  0.455655E-02
  0.452725E-02  0.449385E-02  0.445068E-02  0.439498E-02  0.432687E-02  0.424943E-02
  0.416850E-02  0.409209E-02  0.403009E-02  0.399404E-02  0.399652E-02  0.404995E-02
  0.416557E-02  0.435343E-02  0.462324E-02  0.498457E-02  0.544572E-02  0.601117E-02
  0.667888E-02  0.558929E-02  0.618528E-02  0.683916E-02  0.752979E-02  0.822940E-02
  0.890452E-02  0.951760E-02  0.100303E-01  0.104082E-01  0.106260E-01  0.106707E-01
  0.105422E-01  0.102530E-01  0.982579E-02  0.929159E-02  0.868610E-02  0.804582E-02
  0.740439E-02  0.679012E-02  0.622465E-02  0.572235E-02  0.529041E-02  0.492955E-02
  0.463566E-02  0.440182E-02  0.421999E-02  0.408183E-02  0.397880E-02  0.390214E-02
  0.384310E-02  0.379380E-02  0.374795E-02  0.370129E-02  0.365162E-02  0.359870E-02
  0.354417E-02  0.349141E-02  0.344531E-02  0.341226E-02  0.340011E-02  0.341787E-02
  0.347481E-02  0.357948E-02  0.373946E-02  0.396171E-02  0.425304E-02  0.461956E-02
  0.506514E-02  0.558929E-02  0.472260E-02  0.518266E-02  0.568740E-02  0.622189E-02
  0.676614E-02  0.729595E-02  0.778408E-02  0.820225E-02  0.852417E-02  0.872917E-02
  0.880509E-02  0.874950E-02  0.856914E-02  0.827849E-02  0.789809E-02  0.745278E-02
  0.696943E-02  0.647421E-02  0.599012E-02  0.553523E-02  0.512199E-02  0.475726E-02
  0.444306E-02  0.417776E-02  0.395744E-02  0.377701E-02  0.363099E-02  0.351374E-02
  0.341960E-02  0.334296E-02  0.327858E-02  0.322202E-02  0.317010E-02  0.312119E-02
  0.307508E-02  0.303277E-02  0.299626E-02  0.296843E-02  0.295327E-02  0.295589E-02
  0.298235E-02  0.303901E-02  0.313191E-02  0.326654E-02  0.344791E-02  0.368081E-02
  0.396950E-02  0.431677E-02  0.472260E-02  0.405921E-02  0.440959E-02  0.479285E-02
  0.519872E-02  0.561341E-02  0.602011E-02  0.639977E-02  0.673234E-02  0.699862E-02
  0.718261E-02  0.727376E-02  0.726825E-02  0.716897E-02  0.698448E-02  0.672785E-02
  0.641558E-02  0.606638E-02  0.569945E-02  0.533233E-02  0.497926E-02  0.465034E-02
  0.435170E-02  0.408612E-02  0.385380E-02  0.365306E-02  0.348110E-02  0.333457E-02
  0.321010E-02  0.310454E-02  0.301487E-02  0.293814E-02  0.287157E-02  0.281299E-02
  0.276128E-02  0.271645E-02  0.267928E-02  0.265101E-02  0.263333E-02  0.262860E-02
  0.263997E-02  0.267117E-02  0.272605E-02  0.280830E-02  0.292141E-02  0.306882E-02
  0.325395E-02  0.347979E-02  0.374826E-02  0.405921E-02  0.357650E-02  0.384014E-02
  0.412679E-02  0.442949E-02  0.473905E-02  0.504426E-02  0.533241E-02  0.559000E-02
  0.580386E-02  0.596241E-02  0.605715E-02  0.608384E-02  0.604285E-02  0.593867E-02
  0.577909E-02  0.557443E-02  0.533688E-02  0.507949E-02  0.481467E-02  0.455280E-02
  0.430146E-02  0.406563E-02  0.384826E-02  0.365066E-02  0.347280E-02  0.331353E-02
  0.317114E-02  0.304394E-02  0.293070E-02  0.283051E-02  0.274246E-02  0.266546E-02
  0.259853E-02  0.254122E-02  0.249378E-02  0.245691E-02  0.243147E-02  0.241839E-02
  0.241897E-02  0.243496E-02  0.246832E-02  0.252093E-02  0.259444E-02  0.269050E-02
  0.281105E-02  0.295829E-02  0.313433E-02  0.334047E-02  0.357650E-02  0.325263E-02
  0.344808E-02  0.365869E-02  0.387994E-02  0.410589E-02  0.432938E-02  0.454233E-02
  0.473627E-02  0.490288E-02  0.503454E-02  0.512507E-02  0.517056E-02  0.516999E-02
  0.512520E-02  0.504033E-02  0.492120E-02  0.477493E-02  0.460944E-02  0.443264E-02
  0.425133E-02  0.407058E-02  0.389383E-02  0.372343E-02  0.356101E-02  0.340748E-02
  0.326297E-02  0.312712E-02  0.299963E-02  0.288068E-02  0.277098E-02  0.267139E-02
  0.258259E-02  0.250505E-02  0.243929E-02  0.238593E-02  0.234566E-02  0.231907E-02
  0.230668E-02  0.230907E-02  0.232693E-02  0.236090E-02  0.241129E-02  0.247813E-02
  0.256152E-02  0.266194E-02  0.278035E-02  0.291791E-02  0.307539E-02  0.325263E-02
  0.306872E-02  0.321052E-02  0.336103E-02  0.351776E-02  0.367730E-02  0.383539E-02
  0.398730E-02  0.412826E-02  0.425371E-02  0.435933E-02  0.444120E-02  0.449625E-02