 CRYSTAL
 PRIMVEC
    5.051226493    0.000009336   -0.000000000
   -1.115777575    4.752257350   -0.000000000
   -0.000000000   -0.000000000    5.222498264
 PRIMCOORD
           4           1
Si       -0.107650522    1.157796757    1.764311540
Si        2.529443508    2.009235387    0.725937020
Si        0.107661633    2.828839774    4.127625510
Si        2.521788044    0.689006281    3.050398319
BEGIN_BLOCK_DATAGRID_3D
3D_PWSCF
BEGIN_DATAGRID_3D_UNKNOWN
          49          46          51
  0.000000  0.000000  0.000000
    5.051226    0.000009   -0.000000
   -1.115778    4.752257   -0.000000
   -0.000000   -0.000000    5.222498
  0.286616E-02  0.290279E-02  0.293249E-02  0.295687E-02  0.297773E-02  0.299700E-02
  0.301691E-02  0.304005E-02  0.306901E-02  0.310571E-02  0.315103E-02  0.320486E-02
  0.326675E-02  0.333630E-02  0.341306E-02  0.349588E-02  0.358224E-02  0.366818E-02
  0.374894E-02  0.381971E-02  0.387603E-02  0.391356E-02  0.392792E-02  0.391510E-02
  0.387260E-02  0.380038E-02  0.370097E-02  0.357884E-02  0.343947E-02  0.328879E-02
  0.313319E-02  0.297951E-02  0.283472E-02  0.270511E-02  0.259550E-02  0.250879E-02
  0.244623E-02  0.240795E-02  0.239328E-02  0.240070E-02  0.242760E-02  0.247028E-02
  0.252431E-02  0.258516E-02  0.264862E-02  0.271107E-02  0.276952E-02  0.282167E-02
  0.286616E-02  0.309826E-02  0.311715E-02  0.312398E-02  0.312139E-02  0.311258E-02
  0.310103E-02  0.309055E-02  0.308544E-02  0.309008E-02  0.310822E-02  0.314250E-02
  0.319427E-02  0.326395E-02  0.335141E-02  0.345596E-02  0.357583E-02  0.370762E-02
  0.384597E-02  0.398408E-02  0.411457E-02  0.423012E-02  0.432357E-02  0.438781E-02
  0.441621E-02  0.440394E-02  0.434940E-02  0.425485E-02  0.412569E-02  0.396926E-02
  0.379373E-02  0.360778E-02  0.342040E-02  0.324053E-02  0.307635E-02  0.293446E-02
  0.281936E-02  0.273347E-02  0.267741E-02  0.265038E-02  0.265026E-02  0.267367E-02
  0.271602E-02  0.277190E-02  0.283557E-02  0.290149E-02  0.296465E-02  0.302066E-02
  0.306594E-02  0.309826E-02  0.341139E-02  0.341757E-02  0.340638E-02  0.338116E-02
  0.334634E-02  0.330698E-02  0.326868E-02  0.323744E-02  0.321931E-02  0.321980E-02
  0.324335E-02  0.329300E-02  0.337055E-02  0.347656E-02  0.361036E-02  0.376971E-02
  0.395032E-02  0.414568E-02  0.434721E-02  0.454498E-02  0.472847E-02  0.488699E-02
  0.500993E-02  0.508735E-02  0.511146E-02  0.507847E-02  0.498967E-02  0.485108E-02
  0.467193E-02  0.446317E-02  0.423648E-02  0.400381E-02  0.377684E-02  0.356614E-02
  0.338048E-02  0.322624E-02  0.310730E-02  0.302517E-02  0.297918E-02  0.296673E-02
  0.298351E-02  0.302386E-02  0.308120E-02  0.314857E-02  0.321905E-02  0.328604E-02
  0.334350E-02  0.338638E-02  0.341139E-02  0.379970E-02  0.379780E-02  0.377305E-02
  0.372905E-02  0.367119E-02  0.360618E-02  0.354164E-02  0.348559E-02  0.344591E-02
  0.342985E-02  0.344362E-02  0.349215E-02  0.357884E-02  0.370544E-02  0.387176E-02
  0.407545E-02  0.431166E-02  0.457291E-02  0.484901E-02  0.512738E-02  0.539366E-02
  0.563252E-02  0.582849E-02  0.596721E-02  0.603714E-02  0.603170E-02  0.595068E-02
  0.580024E-02  0.559140E-02  0.533822E-02  0.505632E-02  0.476189E-02  0.447068E-02
  0.419687E-02  0.395205E-02  0.374469E-02  0.358011E-02  0.346070E-02  0.338620E-02
  0.335381E-02  0.335852E-02  0.339349E-02  0.345070E-02  0.352166E-02  0.359786E-02
  0.367097E-02  0.373311E-02  0.377756E-02  0.379970E-02  0.425771E-02  0.425192E-02
  0.421761E-02  0.415833E-02  0.408017E-02  0.399139E-02  0.390182E-02  0.382186E-02
  0.376159E-02  0.373021E-02  0.373578E-02  0.378511E-02  0.388343E-02  0.403403E-02
  0.423790E-02  0.449329E-02  0.479541E-02  0.513611E-02  0.550366E-02  0.588252E-02
  0.625370E-02  0.659579E-02  0.688668E-02  0.710571E-02  0.723621E-02  0.726790E-02
  0.719854E-02  0.703403E-02  0.678706E-02  0.647515E-02  0.611881E-02  0.574003E-02
  0.536059E-02  0.500014E-02  0.467446E-02  0.439474E-02  0.416768E-02  0.399627E-02
  0.388040E-02  0.381725E-02  0.380145E-02  0.382521E-02  0.387898E-02  0.395231E-02
  0.403460E-02  0.411545E-02  0.418494E-02  0.423443E-02  0.425771E-02  0.477977E-02
  0.477384E-02  0.473357E-02  0.466227E-02  0.456659E-02  0.445619E-02  0.434301E-02
  0.424007E-02  0.416011E-02  0.411471E-02  0.411404E-02  0.416682E-02  0.428024E-02
  0.445968E-02  0.470809E-02  0.502537E-02  0.540753E-02  0.584615E-02  0.632776E-02
  0.683345E-02  0.733883E-02  0.781510E-02  0.823149E-02  0.855861E-02  0.877224E-02
  0.885660E-02  0.880633E-02  0.862671E-02  0.833224E-02  0.794453E-02  0.749016E-02
  0.699858E-02  0.649964E-02  0.602064E-02  0.558364E-02  0.520407E-02  0.489079E-02
  0.464732E-02  0.447321E-02  0.436515E-02  0.431726E-02  0.432105E-02  0.436558E-02
  0.443826E-02  0.452584E-02  0.461527E-02  0.469419E-02  0.475174E-02  0.477977E-02
  0.535924E-02  0.535691E-02  0.531432E-02  0.523437E-02  0.512426E-02  0.499491E-02
  0.486018E-02  0.473563E-02  0.463701E-02  0.457885E-02  0.457389E-02  0.463306E-02
  0.476584E-02  0.498029E-02  0.528236E-02  0.567462E-02  0.615473E-02  0.671424E-02
  0.733778E-02  0.800256E-02  0.867818E-02  0.932746E-02  0.990912E-02  0.103822E-01
  0.107117E-01  0.108729E-01  0.108553E-01  0.106624E-01  0.103109E-01  0.982793E-02
  0.924792E-02  0.860981E-02  0.795351E-02  0.731600E-02  0.672779E-02  0.621080E-02
  0.577795E-02  0.543434E-02  0.517919E-02  0.500787E-02  0.491308E-02  0.488511E-02
  0.491165E-02  0.497800E-02  0.506805E-02  0.516552E-02  0.525504E-02  0.532312E-02
  0.535924E-02  0.598875E-02  0.599399E-02  0.595334E-02  0.586884E-02  0.574808E-02
  0.560320E-02  0.544972E-02  0.530556E-02  0.518957E-02  0.511976E-02  0.511209E-02
  0.518037E-02  0.533709E-02  0.559381E-02  0.596042E-02  0.644310E-02  0.704185E-02
  0.774866E-02  0.854638E-02  0.940815E-02  0.102971E-01  0.111666E-01  0.119631E-01
  0.126312E-01  0.131207E-01  0.133941E-01  0.134315E-01  0.132327E-01  0.128162E-01
  0.122164E-01  0.114784E-01  0.106538E-01  0.979521E-02  0.895135E-02  0.816327E-02
  0.746159E-02  0.686563E-02  0.638410E-02  0.601693E-02  0.575796E-02  0.559727E-02
  0.552261E-02  0.551948E-02  0.557096E-02  0.565808E-02  0.576108E-02  0.586107E-02
  0.594142E-02  0.598875E-02  0.666189E-02  0.667888E-02  0.664511E-02  0.656112E-02
  0.643443E-02  0.627817E-02  0.610946E-02  0.594833E-02  0.581663E-02  0.573613E-02
  0.572676E-02  0.580625E-02  0.599113E-02  0.629753E-02  0.674013E-02  0.732942E-02
  0.806853E-02  0.895080E-02  0.995817E-02  0.110602E-01  0.122130E-01  0.133593E-01
  0.144307E-01  0.153539E-01  0.160595E-01  0.164922E-01  0.166183E-01  0.164298E-01
  0.159454E-01  0.152073E-01  0.142749E-01  0.132163E-01  0.121012E-01  0.109937E-01
  0.994792E-02  0.900548E-02  0.819408E-02  0.752783E-02  0.700888E-02  0.663020E-02
  0.637886E-02  0.623868E-02  0.619152E-02  0.621731E-02  0.629395E-02  0.639814E-02
  0.650711E-02  0.660058E-02  0.666189E-02  0.737548E-02  0.740831E-02  0.738673E-02
  0.730897E-02  0.718172E-02  0.701873E-02  0.683861E-02  0.666345E-02  0.651794E-02
  0.642766E-02  0.641710E-02  0.650898E-02  0.672519E-02  0.708750E-02  0.761614E-02
  0.832664E-02  0.922634E-02  0.103116E-01  0.115653E-01  0.129546E-01  0.144280E-01
  0.159156E-01  0.173307E-01  0.185781E-01  0.195652E-01  0.202146E-01  0.204744E-01
  0.203244E-01  0.197797E-01  0.188889E-01  0.177266E-01  0.163824E-01  0.149481E-01
  0.135090E-01  0.121372E-01  0.108887E-01  0.980172E-02  0.889686E-02  0.817915E-02
  0.764142E-02  0.726814E-02  0.703879E-02  0.693028E-02  0.691787E-02  0.697532E-02
  0.707532E-02  0.719095E-02  0.729782E-02  0.737548E-02  0.813090E-02  0.818382E-02
  0.817992E-02  0.811442E-02  0.799229E-02  0.782724E-02  0.763923E-02  0.745253E-02
  0.729466E-02  0.719499E-02  0.718297E-02  0.728723E-02  0.753618E-02  0.795812E-02
  0.857952E-02  0.942177E-02  0.104981E-01  0.118102E-01  0.133447E-01  0.150674E-01
  0.169191E-01  0.188142E-01  0.206442E-01  0.222875E-01  0.236243E-01  0.245523E-01
  0.249984E-01  0.249274E-01  0.243461E-01  0.233045E-01  0.218903E-01  0.202156E-01
  0.183999E-01  0.165560E-01  0.147813E-01  0.131523E-01  0.117218E-01  0.105185E-01
  0.955000E-02  0.880882E-02  0.827693E-02  0.792987E-02  0.773923E-02  0.767435E-02
  0.770331E-02  0.779364E-02  0.791366E-02  0.803433E-02  0.813090E-02  0.893412E-02
  0.901257E-02  0.903278E-02  0.898628E-02  0.887538E-02  0.871293E-02  0.851992E-02
  0.832291E-02  0.815251E-02  0.804206E-02  0.802630E-02  0.814056E-02  0.842065E-02
  0.890209E-02  0.961807E-02  0.105967E-01  0.118589E-01  0.134148E-01  0.152571E-01
  0.173519E-01  0.196312E-01  0.219913E-01  0.242977E-01  0.263987E-01  0.281439E-01
  0.294044E-01  0.300873E-01  0.301426E-01  0.295662E-01  0.284028E-01  0.267446E-01
  0.247209E-01  0.224796E-01  0.201673E-01  0.179147E-01  0.158273E-01  0.139795E-01
  0.124125E-01  0.111378E-01  0.101463E-01  0.941650E-02  0.891992E-02  0.862324E-02
  0.848959E-02  0.848011E-02  0.855570E-02  0.867872E-02  0.881478E-02  0.893412E-02
  0.979511E-02  0.990705E-02  0.996006E-02  0.994110E-02  0.984889E-02  0.969440E-02
  0.949904E-02  0.929164E-02  0.910615E-02  0.898027E-02  0.895457E-02  0.907187E-02
  0.937624E-02  0.991108E-02  0.107167E-01  0.118288E-01  0.132776E-01  0.150836E-01
  0.172480E-01  0.197380E-01  0.224759E-01  0.253371E-01  0.281574E-01  0.307505E-01
  0.329331E-01  0.345518E-01  0.355005E-01  0.357229E-01  0.352073E-01  0.339858E-01
  0.321393E-01  0.297984E-01  0.271312E-01  0.243191E-01  0.215338E-01  0.189199E-01
  0.165835E-01  0.145862E-01  0.129482E-01  0.116593E-01  0.106928E-01  0.100147E-01
  0.958699E-02  0.936701E-02  0.930874E-02  0.936524E-02  0.949154E-02  0.964672E-02
  0.979511E-02  0.107272E-01  0.108839E-01  0.109816E-01  0.110015E-01  0.109377E-01
  0.107982E-01  0.106039E-01  0.103854E-01  0.101801E-01  0.100305E-01  0.998351E-02
  0.100903E-01  0.104043E-01  0.109776E-01  0.118584E-01  0.130906E-01  0.147148E-01
  0.167633E-01  0.192466E-01  0.221332E-01  0.253346E-01  0.287021E-01  0.320366E-01
  0.351122E-01  0.377105E-01  0.396596E-01  0.408555E-01  0.412564E-01  0.408573E-01
  0.396749E-01  0.377571E-01  0.352055E-01  0.321838E-01  0.288996E-01  0.255704E-01
  0.223908E-01  0.195110E-01  0.170249E-01  0.149701E-01  0.133394E-01  0.121008E-01
  0.112129E-01  0.106316E-01  0.103090E-01  0.101925E-01  0.102272E-01  0.103593E-01
  0.105402E-01  0.107272E-01  0.117455E-01  0.119617E-01  0.121193E-01  0.121926E-01
  0.121696E-01  0.120542E-01  0.118655E-01  0.116353E-01  0.114043E-01  0.112197E-01
  0.111354E-01  0.112115E-01  0.115114E-01  0.120973E-01  0.130263E-01  0.143514E-01
  0.161239E-01  0.183885E-01  0.211652E-01  0.244237E-01  0.280637E-01  0.319085E-01
  0.357175E-01  0.392168E-01  0.421501E-01  0.443352E-01  0.456941E-01  0.462315E-01
  0.459783E-01  0.449447E-01  0.431258E-01  0.405519E-01  0.373382E-01  0.336922E-01
  0.298731E-01  0.261369E-01  0.226928E-01  0.196811E-01  0.171687E-01  0.151601E-01
  0.136210E-01  0.125019E-01  0.117507E-01  0.113140E-01  0.111335E-01  0.111466E-01
  0.112904E-01  0.115071E-01  0.117455E-01  0.128641E-01  0.131581E-01  0.133943E-01
  0.135383E-01  0.135708E-01  0.134902E-01  0.133128E-01  0.130707E-01  0.128071E-01
  0.125745E-01  0.124335E-01  0.124532E-01  0.127079E-01  0.132702E-01  0.142071E-01
  0.155814E-01  0.174557E-01  0.198869E-01  0.229049E-01  0.264815E-01  0.305043E-01
  0.347668E-01  0.389798E-01  0.428120E-01  0.459625E-01  0.482452E-01  0.496303E-01
  0.502057E-01  0.500761E-01  0.492704E-01  0.477267E-01  0.453666E-01  0.422008E-01
  0.383884E-01  0.342103E-01  0.299881E-01  0.260060E-01  0.224668E-01  0.194802E-01
  0.170735E-01  0.152173E-01  0.138557E-01  0.129280E-01  0.123737E-01  0.121294E-01
  0.121257E-01  0.122910E-01  0.125574E-01  0.128641E-01  0.140904E-01  0.144847E-01
  0.148220E-01  0.150576E-01  0.151631E-01  0.151299E-01  0.149703E-01  0.147157E-01
  0.144121E-01  0.141165E-01  0.138967E-01  0.138309E-01  0.140036E-01  0.144983E-01
  0.153918E-01  0.167567E-01  0.186666E-01  0.211905E-01  0.243692E-01  0.281791E-01
  0.324995E-01  0.370965E-01  0.416308E-01  0.457069E-01  0.489706E-01  0.512282E-01
  0.525067E-01  0.530002E-01  0.529203E-01  0.523495E-01  0.511906E-01  0.492463E-01
  0.463792E-01  0.426427E-01  0.382979E-01  0.337206E-01  0.292791E-01  0.252535E-01
  0.218099E-01  0.190094E-01  0.168364E-01  0.152344E-01  0.141345E-01  0.134689E-01
  0.131687E-01  0.131590E-01  0.133602E-01  0.136944E-01  0.140904E-01  0.154185E-01
  0.159402E-01  0.164060E-01  0.167591E-01  0.169592E-01  0.169889E-01  0.168554E-01
  0.165884E-01  0.162363E-01  0.158612E-01  0.155381E-01  0.153542E-01  0.154042E-01
  0.157821E-01  0.165739E-01  0.178606E-01  0.197250E-01  0.222472E-01  0.254804E-01
  0.294103E-01  0.339159E-01  0.387459E-01  0.435210E-01  0.477844E-01  0.511220E-01
  0.533159E-01  0.544336E-01  0.547680E-01  0.546495E-01  0.542446E-01  0.534613E-01
  0.520130E-01  0.496093E-01  0.461584E-01  0.418515E-01  0.370862E-01  0.323076E-01
  0.278797E-01  0.240338E-01  0.208738E-01  0.184071E-01  0.165826E-01  0.153275E-01
  0.145670E-01  0.142268E-01  0.142278E-01  0.144839E-01  0.149082E-01  0.154185E-01
  0.168239E-01  0.175037E-01  0.181300E-01  0.186313E-01  0.189534E-01  0.190668E-01
  0.189715E-01  0.186948E-01  0.182870E-01  0.178156E-01  0.173632E-01  0.170261E-01
  0.169097E-01  0.171181E-01  0.177461E-01  0.188812E-01  0.206117E-01  0.230265E-01
  0.261911E-01  0.301057E-01  0.346604E-01  0.396049E-01  0.445416E-01  0.489720E-01
  0.524234E-01  0.546306E-01  0.556588E-01  0.558580E-01  0.556558E-01  0.553141E-01
  0.547885E-01  0.537607E-01  0.518297E-01  0.487609E-01  0.446424E-01  0.398508E-01
  0.348793E-01  0.301658E-01  0.260071E-01  0.225536E-01  0.198407E-01  0.178303E-01
  0.164501E-01  0.156209E-01  0.152642E-01  0.152977E-01  0.156314E-01  0.161709E-01
  0.168239E-01  0.182603E-01  0.191299E-01  0.199503E-01  0.206341E-01  0.211100E-01
  0.213338E-01  0.212950E-01  0.210168E-01  0.205507E-01  0.199696E-01  0.193639E-01
  0.188392E-01  0.185118E-01  0.184968E-01  0.188982E-01  0.198082E-01  0.213173E-01
  0.235180E-01  0.264860E-01  0.302393E-01  0.346906E-01  0.396110E-01  0.446161E-01
  0.491989E-01  0.528462E-01  0.552280E-01  0.563524E-01  0.565572E-01  0.563135E-01
  0.559620E-01  0.555329E-01  0.547384E-01  0.531393E-01  0.504069E-01  0.465285E-01
  0.418264E-01  0.368013E-01  0.319363E-01  0.275802E-01  0.239260E-01  0.210385E-01
  0.188967E-01  0.174342E-01  0.165712E-01  0.162274E-01  0.163193E-01  0.167554E-01
  0.174360E-01  0.182603E-01  0.196607E-01  0.207481E-01  0.217936E-01  0.226929E-01
  0.233557E-01  0.237200E-01  0.237618E-01  0.234978E-01  0.229789E-01  0.222828E-01
  0.215071E-01  0.207668E-01  0.201887E-01  0.199000E-01  0.200149E-01  0.206310E-01
  0.218382E-01  0.237271E-01  0.263786E-01  0.298279E-01  0.340171E-01  0.387566E-01
  0.437046E-01  0.483856E-01  0.522807E-01  0.549987E-01  0.564480E-01  0.568776E-01
  0.567264E-01  0.563692E-01  0.559119E-01  0.551428E-01  0.536612E-01  0.511188E-01
  0.474406E-01  0.428852E-01  0.379226E-01  0.330421E-01  0.286189E-01  0.248759E-01
  0.219038E-01  0.196998E-01  0.182079E-01  0.173521E-01  0.170537E-01  0.172311E-01
  0.177937E-01  0.186395E-01  0.196607E-01  0.209393E-01  0.222653E-01  0.235591E-01
  0.247001E-01  0.255787E-01  0.261130E-01  0.262630E-01  0.260355E-01  0.254792E-01
  0.246743E-01  0.237249E-01  0.227537E-01  0.218975E-01  0.212954E-01  0.210737E-01
  0.213371E-01  0.221745E-01  0.236709E-01  0.259055E-01  0.289255E-01  0.327035E-01
  0.370977E-01  0.418285E-01  0.464849E-01  0.505841E-01  0.537036E-01  0.556436E-01
  0.565103E-01  0.566335E-01  0.563577E-01  0.558374E-01  0.549556E-01  0.534068E-01
  0.508963E-01  0.473421E-01  0.429535E-01  0.381464E-01  0.333793E-01  0.290232E-01
  0.253128E-01  0.223566E-01  0.201685E-01  0.187053E-01  0.178995E-01  0.176782E-01
  0.179652E-01  0.186738E-01  0.197026E-01  0.209393E-01  0.219977E-01  0.235709E-01
  0.251248E-01  0.265230E-01  0.276373E-01  0.283657E-01  0.286505E-01  0.284866E-01
  0.279172E-01  0.270230E-01  0.259117E-01  0.247120E-01  0.235688E-01  0.226322E-01
  0.220410E-01  0.219098E-01  0.223285E-01  0.233750E-01  0.251206E-01  0.276171E-01
  0.308615E-01  0.347590E-01  0.390981E-01  0.435484E-01  0.476959E-01  0.511300E-01
  0.535735E-01  0.549814E-01  0.555264E-01  0.554596E-01  0.549369E-01  0.539239E-01
  0.522340E-01  0.496736E-01  0.462021E-01  0.420040E-01  0.374361E-01  0.329017E-01
  0.287415E-01  0.251840E-01  0.223450E-01  0.202519E-01  0.188751E-01  0.181591E-01
  0.180413E-01  0.184544E-01  0.193193E-01  0.205385E-01  0.219977E-01  0.227359E-01
  0.245494E-01  0.263595E-01  0.280161E-01  0.293736E-01  0.303111E-01  0.307532E-01
  0.306810E-01  0.301299E-01  0.291775E-01  0.279321E-01  0.265258E-01  0.251089E-01
  0.238405E-01  0.228714E-01  0.223271E-01  0.223024E-01  0.228694E-01  0.240886E-01
  0.260075E-01  0.286381E-01  0.319244E-01  0.357167E-01  0.397646E-01  0.437357E-01
  0.472673E-01  0.500545E-01  0.519394E-01  0.529383E-01  0.531748E-01  0.527601E-01
  0.517067E-01  0.499345E-01  0.473614E-01  0.440108E-01  0.400631E-01  0.358224E-01
  0.316293E-01  0.277799E-01  0.244828E-01  0.218527E-01  0.199259E-01  0.186864E-01
  0.180931E-01  0.180966E-01  0.186418E-01  0.196605E-01  0.210627E-01  0.227359E-01
  0.230686E-01  0.250962E-01  0.271405E-01  0.290395E-01  0.306329E-01  0.317830E-01
  0.323976E-01  0.324436E-01  0.319458E-01  0.309754E-01  0.296376E-01  0.280645E-01
  0.264095E-01  0.248379E-01  0.235100E-01  0.225624E-01  0.220974E-01  0.221850E-01
  0.228754E-01  0.242064E-01  0.261938E-01  0.288081E-01  0.319492E-01  0.354352E-01
  0.390105E-01  0.423759E-01  0.452425E-01  0.473969E-01  0.487430E-01  0.492860E-01
  0.490687E-01  0.481114E-01  0.464033E-01  0.439492E-01  0.408300E-01  0.372291E-01
  0.334083E-01  0.296502E-01  0.262041E-01  0.232524E-01  0.209029E-01  0.191977E-01
  0.181337E-01  0.176851E-01  0.178174E-01  0.184896E-01  0.196462E-01  0.212080E-01
  0.230686E-01  0.229404E-01  0.251370E-01  0.273733E-01  0.294798E-01  0.312850E-01
  0.326378E-01  0.334310E-01  0.336168E-01  0.332075E-01  0.322643E-01  0.308856E-01
  0.292001E-01  0.273618E-01  0.255393E-01  0.238993E-01  0.225871E-01  0.217129E-01
  0.213493E-01  0.215402E-01  0.223120E-01  0.236766E-01  0.256173E-01  0.280688E-01
  0.309027E-01  0.339277E-01  0.369071E-01  0.395908E-01  0.417590E-01  0.432602E-01
  0.440208E-01  0.440218E-01  0.432667E-01  0.417730E-01  0.395919E-01  0.368359E-01
  0.336851E-01  0.303660E-01  0.271130E-01  0.241329E-01  0.215818E-01  0.195580E-01
  0.181077E-01  0.172404E-01  0.169453E-01  0.172030E-01  0.179862E-01  0.192528E-01
  0.209365E-01  0.229404E-01  0.223351E-01  0.246392E-01  0.270078E-01  0.292691E-01
  0.312456E-01  0.327769E-01  0.337434E-01  0.340831E-01  0.337935E-01  0.329227E-01
  0.315590E-01  0.298248E-01  0.278716E-01  0.258689E-01  0.239860E-01  0.223733E-01
  0.211473E-01  0.203855E-01  0.201304E-01  0.204014E-01  0.212022E-01  0.225190E-01
  0.243063E-01  0.264739E-01  0.288814E-01  0.313464E-01  0.336644E-01  0.356369E-01
  0.371017E-01  0.379498E-01  0.381240E-01  0.376066E-01  0.364157E-01  0.346133E-01
  0.323150E-01  0.296854E-01  0.269175E-01  0.242055E-01  0.217198E-01  0.195924E-01
  0.179117E-01  0.167271E-01  0.160595E-01  0.159128E-01  0.162814E-01  0.171501E-01
  0.184892E-01  0.202457E-01  0.223351E-01  0.212777E-01  0.236171E-01  0.260460E-01
  0.283961E-01  0.304896E-01  0.321614E-01  0.332833E-01  0.337797E-01  0.336325E-01
  0.328743E-01  0.315801E-01  0.298633E-01  0.278706E-01  0.257693E-01  0.237283E-01
  0.218984E-01  0.203989E-01  0.193117E-01  0.186824E-01  0.185285E-01  0.188483E-01
  0.196251E-01  0.208219E-01  0.223720E-01  0.241730E-01  0.260877E-01  0.279557E-01
  0.296115E-01  0.309065E-01  0.317270E-01  0.320003E-01  0.316942E-01  0.308171E-01
  0.294219E-01  0.276086E-01  0.255158E-01  0.233029E-01  0.211280E-01  0.191301E-01
  0.174194E-01  0.160744E-01  0.151467E-01  0.146671E-01  0.146522E-01  0.151077E-01
  0.160286E-01  0.173957E-01  0.191687E-01  0.212777E-01  0.198308E-01  0.221302E-01
  0.245417E-01  0.269073E-01  0.290541E-01  0.308175E-01  0.320637E-01  0.327063E-01
  0.327116E-01  0.320953E-01  0.309178E-01  0.292811E-01  0.273241E-01  0.252094E-01
  0.231017E-01  0.211484E-01  0.194675E-01  0.181428E-01  0.172237E-01  0.167306E-01
  0.166611E-01  0.169966E-01  0.177022E-01  0.187241E-01  0.199848E-01  0.213828E-01
  0.227966E-01  0.240959E-01  0.251563E-01  0.258746E-01  0.261782E-01  0.260283E-01
  0.254233E-01  0.244008E-01  0.230384E-01  0.214450E-01  0.197462E-01  0.180670E-01
  0.165189E-01  0.151924E-01  0.141568E-01  0.134634E-01  0.131500E-01  0.132424E-01
  0.137552E-01  0.146909E-01  0.160390E-01  0.177706E-01  0.198308E-01  0.180880E-01
  0.202757E-01  0.225940E-01  0.249005E-01  0.270329E-01  0.288311E-01  0.301595E-01
  0.309236E-01  0.310764E-01  0.306176E-01  0.295922E-01  0.280892E-01  0.262373E-01
  0.241902E-01  0.221054E-01  0.201238E-01  0.183585E-01  0.168915E-01  0.157748E-01
  0.150328E-01  0.146667E-01  0.146593E-01  0.149780E-01  0.155758E-01  0.163909E-01
  0.173467E-01  0.183534E-01  0.193125E-01  0.201262E-01  0.207083E-01  0.209936E-01
  0.209431E-01  0.205479E-01  0.198316E-01  0.188497E-01  0.176831E-01  0.164261E-01
  0.151747E-01  0.140159E-01  0.130237E-01  0.122580E-01  0.117678E-01  0.115931E-01
  0.117650E-01  0.123037E-01  0.132175E-01  0.145025E-01  0.161397E-01  0.180880E-01
  0.161614E-01  0.181775E-01  0.203352E-01  0.225124E-01  0.245629E-01  0.263356E-01
  0.276965E-01  0.285462E-01  0.288276E-01  0.285273E-01  0.276759E-01  0.263481E-01
  0.246591E-01  0.227505E-01  0.207690E-01  0.188460E-01  0.170876E-01  0.155719E-01
  0.143502E-01  0.134498E-01  0.128767E-01  0.126183E-01  0.126463E-01  0.129199E-01
  0.133880E-01  0.139911E-01  0.146623E-01  0.153290E-01  0.159169E-01  0.163580E-01
  0.165979E-01  0.166009E-01  0.163543E-01  0.158705E-01  0.151870E-01  0.143608E-01
  0.134603E-01  0.125563E-01  0.117163E-01  0.109999E-01  0.104584E-01  0.101357E-01
  0.100701E-01  0.102934E-01  0.108289E-01  0.116890E-01  0.128750E-01  0.143755E-01
  0.161614E-01  0.141662E-01  0.159685E-01  0.179139E-01  0.199028E-01  0.218094E-01
  0.234970E-01  0.248376E-01  0.257304E-01  0.261122E-01  0.259595E-01  0.252903E-01
  0.241648E-01  0.226820E-01  0.209676E-01  0.191538E-01  0.173609E-01  0.156864E-01
  0.142031E-01  0.129601E-01  0.119857E-01  0.112892E-01  0.108631E-01  0.106852E-01
  0.107219E-01  0.109312E-01  0.112666E-01  0.116775E-01  0.121101E-01  0.125090E-01
  0.128223E-01  0.130062E-01  0.130307E-01  0.128816E-01  0.125640E-01  0.121012E-01
  0.115320E-01  0.109043E-01  0.102695E-01  0.967892E-02  0.918024E-02  0.881626E-02
  0.862457E-02  0.863857E-02  0.888766E-02  0.939552E-02  0.101777E-01  0.112398E-01
  0.125762E-01  0.141662E-01  0.122064E-01  0.137732E-01  0.154752E-01  0.172342E-01
  0.189475E-01  0.204974E-01  0.217672E-01  0.226595E-01  0.231084E-01  0.230837E-01
  0.225929E-01  0.216816E-01  0.204309E-01  0.189476E-01  0.173467E-01  0.157352E-01
  0.142016E-01  0.128129E-01  0.116156E-01  0.106374E-01  0.988984E-02  0.936918E-02
  0.905899E-02  0.893280E-02  0.895780E-02  0.909788E-02  0.931492E-02  0.956884E-02
  0.981840E-02  0.100241E-01  0.101521E-01  0.101778E-01  0.100880E-01  0.988272E-02
  0.957577E-02  0.919249E-02  0.876570E-02  0.833209E-02  0.792983E-02  0.759653E-02
  0.736696E-02  0.727184E-02  0.733850E-02  0.759199E-02  0.805467E-02  0.874384E-02
  0.966869E-02  0.108278E-01  0.122064E-01  0.103653E-01  0.116935E-01  0.131424E-01
  0.146518E-01  0.161414E-01  0.175148E-01  0.186719E-01  0.195237E-01  0.200054E-01
  0.200831E-01  0.197557E-01  0.190551E-01  0.180441E-01  0.168086E-01  0.154450E-01
  0.140455E-01  0.126888E-01  0.114364E-01  0.103315E-01  0.940153E-02  0.865889E-02
  0.810286E-02  0.772152E-02  0.749463E-02  0.739705E-02  0.740154E-02  0.747974E-02
  0.760203E-02  0.773773E-02  0.785711E-02  0.793433E-02  0.794997E-02  0.789251E-02
  0.775956E-02  0.755847E-02  0.730523E-02  0.702191E-02  0.673415E-02  0.646977E-02
  0.625743E-02  0.612460E-02  0.609575E-02  0.619243E-02  0.643487E-02  0.684268E-02
  0.743319E-02  0.821785E-02  0.919862E-02  0.103653E-01  0.870181E-02  0.980216E-02
  0.110061E-01  0.122673E-01  0.135241E-01  0.147014E-01  0.157178E-01  0.164970E-01
  0.169796E-01  0.171305E-01  0.169419E-01  0.164340E-01  0.156523E-01  0.146624E-01
  0.135410E-01  0.123650E-01  0.112029E-01  0.101099E-01  0.912638E-02  0.827848E-02
  0.757952E-02  0.703112E-02  0.662509E-02  0.634630E-02  0.617574E-02  0.609304E-02
  0.607727E-02  0.610667E-02  0.615873E-02  0.621141E-02  0.624541E-02  0.624587E-02
  0.620335E-02  0.611455E-02  0.598279E-02  0.581772E-02  0.563376E-02  0.544842E-02
  0.528138E-02  0.515376E-02  0.508662E-02  0.509924E-02  0.520857E-02  0.543045E-02
  0.578091E-02  0.627546E-02  0.692601E-02  0.773690E-02  0.870181E-02  0.725079E-02
  0.814262E-02  0.912122E-02  0.101510E-01  0.111849E-01  0.121656E-01  0.130299E-01
  0.137162E-01  0.141732E-01  0.143675E-01  0.142872E-01  0.139430E-01  0.133656E-01
  0.126027E-01  0.117123E-01  0.107560E-01  0.979136E-02  0.886680E-02  0.801903E-02
  0.727275E-02  0.664146E-02  0.612869E-02  0.572962E-02  0.543356E-02  0.522655E-02
  0.509344E-02  0.501870E-02  0.498632E-02  0.497991E-02  0.498353E-02  0.498310E-02
  0.496761E-02  0.492974E-02  0.486617E-02  0.477796E-02  0.467054E-02  0.455296E-02
  0.443682E-02  0.433568E-02  0.426463E-02  0.423941E-02  0.427504E-02  0.438499E-02
  0.458164E-02  0.487734E-02  0.528449E-02  0.581360E-02  0.647003E-02  0.725079E-02
  0.602588E-02  0.673366E-02  0.751258E-02  0.833598E-02  0.916824E-02  0.996610E-02
  0.106816E-01  0.112667E-01  0.116799E-01  0.118916E-01  0.118883E-01  0.116736E-01
  0.112672E-01  0.107017E-01  0.100195E-01  0.926731E-02  0.849169E-02  0.773361E-02
  0.702536E-02  0.638938E-02  0.583873E-02  0.537818E-02  0.500580E-02  0.471483E-02
  0.449569E-02  0.433747E-02  0.422870E-02  0.415760E-02  0.411234E-02  0.408163E-02
  0.405543E-02  0.402577E-02  0.398709E-02  0.393658E-02  0.387424E-02  0.380290E-02
  0.372794E-02  0.365677E-02  0.359852E-02  0.356375E-02  0.356388E-02  0.361033E-02
  0.371372E-02  0.388376E-02  0.412974E-02  0.446072E-02  0.488474E-02  0.540672E-02
  0.602588E-02  0.502403E-02  0.557508E-02  0.618266E-02  0.682780E-02  0.748440E-02
  0.812019E-02  0.869912E-02  0.918482E-02  0.954475E-02  0.975440E-02  0.980048E-02
  0.968236E-02  0.941151E-02  0.900953E-02  0.850581E-02  0.793464E-02  0.733166E-02
  0.672994E-02  0.615662E-02  0.563127E-02  0.516593E-02  0.476603E-02  0.443180E-02
  0.415971E-02  0.394379E-02  0.377666E-02  0.365015E-02  0.355585E-02  0.348550E-02
  0.343135E-02  0.338643E-02  0.334497E-02  0.330279E-02  0.325767E-02  0.320935E-02
  0.315932E-02  0.311061E-02  0.306772E-02  0.303664E-02  0.302457E-02  0.303952E-02
  0.308974E-02  0.318323E-02  0.332750E-02  0.352955E-02  0.379581E-02  0.413183E-02
  0.454121E-02  0.502403E-02  0.423068E-02  0.465305E-02  0.511840E-02  0.561399E-02
  0.612158E-02  0.661792E-02  0.707647E-02  0.747008E-02  0.777410E-02  0.796914E-02
  0.804340E-02  0.799388E-02  0.782640E-02  0.755451E-02  0.719793E-02  0.678071E-02
  0.632893E-02  0.586777E-02  0.541881E-02  0.499828E-02  0.461677E-02  0.427996E-02
  0.398961E-02  0.374458E-02  0.354161E-02  0.337600E-02  0.324225E-02  0.313477E-02
  0.304825E-02  0.297784E-02  0.291896E-02  0.286752E-02  0.282034E-02  0.277575E-02
  0.273364E-02  0.269497E-02  0.266147E-02  0.263572E-02  0.262139E-02  0.262323E-02
  0.264658E-02  0.269696E-02  0.277989E-02  0.290083E-02  0.306504E-02  0.327720E-02
  0.354107E-02  0.385891E-02  0.423068E-02  0.362511E-02  0.394504E-02  0.429617E-02
  0.467010E-02  0.505466E-02  0.543388E-02  0.578902E-02  0.610051E-02  0.635026E-02
  0.652362E-02  0.661078E-02  0.660774E-02  0.651661E-02  0.634519E-02  0.610605E-02
  0.581532E-02  0.549114E-02  0.515164E-02  0.481294E-02  0.448770E-02  0.418474E-02
  0.390952E-02  0.366479E-02  0.345106E-02  0.326691E-02  0.310956E-02  0.297555E-02
  0.286151E-02  0.276462E-02  0.268238E-02  0.261229E-02  0.255169E-02  0.249836E-02
  0.245113E-02  0.241011E-02  0.237615E-02  0.235037E-02  0.233413E-02  0.232951E-02
  0.233939E-02  0.236710E-02  0.241596E-02  0.248926E-02  0.259049E-02  0.272331E-02
  0.289118E-02  0.309679E-02  0.334154E-02  0.362511E-02  0.318517E-02  0.342496E-02
  0.368650E-02  0.396415E-02  0.424990E-02  0.453328E-02  0.480181E-02  0.504222E-02
  0.524193E-02  0.539036E-02  0.547984E-02  0.550630E-02  0.546966E-02  0.537381E-02
  0.522610E-02  0.503660E-02  0.481711E-02  0.457990E-02  0.433626E-02  0.409542E-02
  0.386415E-02  0.364716E-02  0.344748E-02  0.326654E-02  0.310420E-02  0.295905E-02
  0.282915E-02  0.271287E-02  0.260925E-02  0.251774E-02  0.243758E-02  0.236765E-02
  0.230680E-02  0.225449E-02  0.221107E-02  0.217735E-02  0.215413E-02  0.214214E-02
  0.214236E-02  0.215631E-02  0.218579E-02  0.223247E-02  0.229784E-02  0.238356E-02
  0.249166E-02  0.262442E-02  0.278379E-02  0.297081E-02  0.318517E-02  0.289047E-02
  0.306775E-02  0.325949E-02  0.346185E-02  0.366964E-02  0.387627E-02  0.407402E-02
  0.425461E-02  0.440999E-02  0.453299E-02  0.461795E-02  0.466130E-02  0.466197E-02
  0.462150E-02  0.454367E-02  0.443398E-02  0.429923E-02  0.414688E-02  0.398417E-02
  0.381727E-02  0.365085E-02  0.348837E-02  0.333230E-02  0.318426E-02  0.304482E-02
  0.291365E-02  0.279009E-02  0.267388E-02  0.256546E-02  0.246568E-02  0.237533E-02
  0.229485E-02  0.222450E-02  0.216465E-02  0.211594E-02  0.207916E-02  0.205489E-02
  0.204348E-02  0.204528E-02  0.206079E-02  0.209063E-02  0.213516E-02  0.219452E-02
  0.226880E-02  0.235849E-02  0.246457E-02  0.258820E-02  0.273019E-02  0.289047E-02
  0.272376E-02  0.285210E-02  0.298897E-02  0.313204E-02  0.327817E-02  0.342360E-02
  0.356409E-02  0.369516E-02  0.381231E-02  0.391117E-02  0.398783E-02  0.403947E-02