 CRYSTAL
 PRIMVEC
    3.892415709    0.000007194   -0.000000000
   -0.859805072    3.662033605   -0.000000000
   -0.000000000   -0.000000000    4.024395721
 PRIMCOORD
           4           1
Si       -0.082954226    0.892184560    1.359557716
Si        1.949159409    1.548293151    0.559398527
Si        0.082962787    2.179870649    3.180699658
Si        1.943260199    0.530940134    2.350601057
BEGIN_BLOCK_DATAGRID_3D
3D_PWSCF
BEGIN_DATAGRID_3D_UNKNOWN
          41          37          41
  0.000000  0.000000  0.000000
    3.892416    0.000007   -0.000000
   -0.859805    3.662034   -0.000000
   -0.000000   -0.000000    4.024396
  0.139440E-01  0.141969E-01  0.143978E-01  0.145504E-01  0.146639E-01  0.147528E-01
  0.148359E-01  0.149340E-01  0.150671E-01  0.152517E-01  0.154986E-01  0.158100E-01
  0.161781E-01  0.165841E-01  0.169997E-01  0.173894E-01  0.177151E-01  0.179406E-01
  0.180355E-01  0.179776E-01  0.177556E-01  0.173701E-01  0.168359E-01  0.161814E-01
  0.154468E-01  0.146787E-01  0.139255E-01  0.132324E-01  0.126382E-01  0.121719E-01
  0.118502E-01  0.116767E-01  0.116442E-01  0.117376E-01  0.119374E-01  0.122207E-01
  0.125609E-01  0.129292E-01  0.132973E-01  0.136412E-01  0.139440E-01  0.147015E-01
  0.148721E-01  0.149763E-01  0.150207E-01  0.150197E-01  0.149962E-01  0.149790E-01
  0.150002E-01  0.150905E-01  0.152752E-01  0.155717E-01  0.159867E-01  0.165146E-01
  0.171356E-01  0.178155E-01  0.185071E-01  0.191537E-01  0.196965E-01  0.200822E-01
  0.202696E-01  0.202331E-01  0.199647E-01  0.194754E-01  0.187954E-01  0.179718E-01
  0.170641E-01  0.161365E-01  0.152510E-01  0.144615E-01  0.138093E-01  0.133203E-01
  0.130040E-01  0.128557E-01  0.128597E-01  0.129925E-01  0.132251E-01  0.135238E-01
  0.138524E-01  0.141762E-01  0.144660E-01  0.147015E-01  0.158663E-01  0.159739E-01
  0.160011E-01  0.159557E-01  0.158568E-01  0.157345E-01  0.156278E-01  0.155795E-01
  0.156311E-01  0.158172E-01  0.161626E-01  0.166796E-01  0.173667E-01  0.182059E-01
  0.191609E-01  0.201751E-01  0.211750E-01  0.220781E-01  0.228038E-01  0.232855E-01
  0.234774E-01  0.233578E-01  0.229308E-01  0.222263E-01  0.212989E-01  0.202219E-01
  0.190791E-01  0.179535E-01  0.169178E-01  0.160286E-01  0.153228E-01  0.148179E-01
  0.145137E-01  0.143958E-01  0.144381E-01  0.146053E-01  0.148561E-01  0.151459E-01
  0.154327E-01  0.156812E-01  0.158663E-01  0.174072E-01  0.174690E-01  0.174372E-01
  0.173192E-01  0.171380E-01  0.169307E-01  0.167460E-01  0.166375E-01  0.166569E-01
  0.168481E-01  0.172441E-01  0.178645E-01  0.187140E-01  0.197790E-01  0.210233E-01
  0.223841E-01  0.237729E-01  0.250832E-01  0.262046E-01  0.270392E-01  0.275142E-01
  0.275875E-01  0.272508E-01  0.265306E-01  0.254875E-01  0.242111E-01  0.228082E-01
  0.213881E-01  0.200478E-01  0.188632E-01  0.178850E-01  0.171397E-01  0.166330E-01
  0.163528E-01  0.162721E-01  0.163511E-01  0.165406E-01  0.167875E-01  0.170410E-01
  0.172581E-01  0.174072E-01  0.192972E-01  0.193301E-01  0.192569E-01  0.190835E-01
  0.188352E-01  0.185564E-01  0.183051E-01  0.181452E-01  0.181383E-01  0.183379E-01
  0.187862E-01  0.195124E-01  0.205297E-01  0.218310E-01  0.233817E-01  0.251142E-01
  0.269263E-01  0.286882E-01  0.302588E-01  0.315059E-01  0.323234E-01  0.326422E-01
  0.324354E-01  0.317208E-01  0.305621E-01  0.290647E-01  0.273612E-01  0.255920E-01
  0.238843E-01  0.223391E-01  0.210253E-01  0.199813E-01  0.192198E-01  0.187317E-01
  0.184896E-01  0.184506E-01  0.185594E-01  0.187545E-01  0.189756E-01  0.191700E-01
  0.192972E-01  0.215129E-01  0.215349E-01  0.214394E-01  0.212286E-01  0.209296E-01
  0.205931E-01  0.202864E-01  0.200831E-01  0.200543E-01  0.202632E-01  0.207631E-01
  0.215952E-01  0.227840E-01  0.243298E-01  0.262001E-01  0.283221E-01  0.305804E-01
  0.328239E-01  0.348819E-01  0.365872E-01  0.377981E-01  0.384143E-01  0.383848E-01
  0.377134E-01  0.364612E-01  0.347449E-01  0.327215E-01  0.305642E-01  0.284351E-01
  0.264659E-01  0.247499E-01  0.233433E-01  0.222692E-01  0.215235E-01  0.210789E-01
  0.208893E-01  0.208945E-01  0.210257E-01  0.212131E-01  0.213931E-01  0.215129E-01
  0.240336E-01  0.240631E-01  0.239653E-01  0.237370E-01  0.234056E-01  0.230273E-01
  0.226776E-01  0.224394E-01  0.223926E-01  0.226103E-01  0.231584E-01  0.240920E-01
  0.254485E-01  0.272361E-01  0.294235E-01  0.319317E-01  0.346327E-01  0.373556E-01
  0.399031E-01  0.420765E-01  0.437018E-01  0.446493E-01  0.448441E-01  0.442715E-01
  0.429815E-01  0.410909E-01  0.387721E-01  0.362270E-01  0.336529E-01  0.312170E-01
  0.290435E-01  0.272133E-01  0.257676E-01  0.247126E-01  0.240235E-01  0.236513E-01
  0.235301E-01  0.235842E-01  0.237350E-01  0.239070E-01  0.240336E-01  0.268375E-01
  0.268918E-01  0.268120E-01  0.265871E-01  0.262436E-01  0.258418E-01  0.254644E-01
  0.252021E-01  0.251429E-01  0.253699E-01  0.259616E-01  0.269874E-01  0.284971E-01
  0.305058E-01  0.329817E-01  0.358385E-01  0.389344E-01  0.420794E-01  0.450531E-01
  0.476333E-01  0.496264E-01  0.508890E-01  0.513345E-01  0.509318E-01  0.497082E-01
  0.477584E-01  0.452460E-01  0.423844E-01  0.394009E-01  0.365012E-01  0.338475E-01
  0.315539E-01  0.296890E-01  0.282776E-01  0.273042E-01  0.267194E-01  0.264511E-01
  0.264156E-01  0.265252E-01  0.266929E-01  0.268375E-01  0.298975E-01  0.299917E-01
  0.299499E-01  0.297510E-01  0.294177E-01  0.290127E-01  0.286246E-01  0.283507E-01
  0.282868E-01  0.285254E-01  0.291564E-01  0.302616E-01  0.319001E-01  0.340909E-01
  0.367987E-01  0.399261E-01  0.433131E-01  0.467464E-01  0.499837E-01  0.527918E-01
  0.549851E-01  0.564434E-01  0.571030E-01  0.569347E-01  0.559346E-01  0.541406E-01
  0.516588E-01  0.486721E-01  0.454160E-01  0.421330E-01  0.390344E-01  0.362806E-01
  0.339781E-01  0.321811E-01  0.308923E-01  0.300689E-01  0.296352E-01  0.294987E-01
  0.295618E-01  0.297264E-01  0.298975E-01  0.331769E-01  0.333262E-01  0.333443E-01
  0.331965E-01  0.328985E-01  0.325123E-01  0.321302E-01  0.318560E-01  0.317935E-01
  0.320445E-01  0.327090E-01  0.338779E-01  0.356149E-01  0.379373E-01  0.408000E-01
  0.440867E-01  0.476078E-01  0.511144E-01  0.543386E-01  0.570521E-01  0.591179E-01
  0.604985E-01  0.612149E-01  0.612835E-01  0.606775E-01  0.593435E-01  0.572623E-01
  0.545094E-01  0.512718E-01  0.478090E-01  0.443903E-01  0.412432E-01  0.385314E-01
  0.363512E-01  0.347350E-01  0.336561E-01  0.330427E-01  0.327962E-01  0.328089E-01
  0.329715E-01  0.331769E-01  0.366279E-01  0.368504E-01  0.369536E-01  0.368867E-01
  0.366532E-01  0.363099E-01  0.359502E-01  0.356837E-01  0.356228E-01  0.358799E-01
  0.365655E-01  0.377768E-01  0.395779E-01  0.419779E-01  0.449131E-01  0.482346E-01
  0.517043E-01  0.550186E-01  0.578747E-01  0.600652E-01  0.615471E-01  0.624337E-01
  0.629048E-01  0.630850E-01  0.629613E-01  0.623835E-01  0.611509E-01  0.591374E-01
  0.563838E-01  0.531045E-01  0.496134E-01  0.462259E-01  0.431918E-01  0.406723E-01
  0.387442E-01  0.374096E-01  0.366107E-01  0.362502E-01  0.362125E-01  0.363780E-01
  0.366279E-01  0.401917E-01  0.405076E-01  0.407234E-01  0.407696E-01  0.406332E-01
  0.403601E-01  0.400408E-01  0.397885E-01  0.397245E-01  0.399731E-01  0.406564E-01
  0.418789E-01  0.437038E-01  0.461275E-01  0.490597E-01  0.523040E-01  0.555531E-01
  0.584263E-01  0.605751E-01  0.618245E-01  0.622626E-01  0.622060E-01  0.620485E-01
  0.620785E-01  0.623503E-01  0.626580E-01  0.626206E-01  0.618503E-01  0.601345E-01
  0.575340E-01  0.543454E-01  0.509671E-01  0.477633E-01  0.449929E-01  0.428002E-01
  0.412314E-01  0.402556E-01  0.397859E-01  0.397045E-01  0.398827E-01  0.401917E-01
  0.437953E-01  0.442229E-01  0.445742E-01  0.447616E-01  0.447527E-01  0.445783E-01
  0.443209E-01  0.440934E-01  0.440234E-01  0.442458E-01  0.448955E-01  0.460872E-01
  0.478859E-01  0.502777E-01  0.531431E-01  0.562314E-01  0.591523E-01  0.614323E-01
  0.626663E-01  0.627135E-01  0.618081E-01  0.604876E-01  0.593750E-01  0.589408E-01
  0.593480E-01  0.604041E-01  0.616188E-01  0.623673E-01  0.621286E-01  0.606977E-01
  0.582452E-01  0.551968E-01  0.520334E-01  0.491413E-01  0.467618E-01  0.450048E-01
  0.438786E-01  0.433170E-01  0.432062E-01  0.434117E-01  0.437953E-01  0.473448E-01
  0.478941E-01  0.483910E-01  0.487338E-01  0.488720E-01  0.488195E-01  0.486474E-01
  0.484630E-01  0.483935E-01  0.485792E-01  0.491651E-01  0.502780E-01  0.519913E-01
  0.542891E-01  0.570321E-01  0.599233E-01  0.624949E-01  0.641791E-01  0.645038E-01
  0.633459E-01  0.610663E-01  0.584024E-01  0.561823E-01  0.550413E-01  0.552591E-01
  0.567132E-01  0.589050E-01  0.610743E-01  0.624330E-01  0.624595E-01  0.610909E-01
  0.586836E-01  0.557917E-01  0.529334E-01  0.504696E-01  0.485932E-01  0.473634E-01
  0.467416E-01  0.466242E-01  0.468740E-01  0.473448E-01  0.507144E-01  0.513820E-01
  0.520160E-01  0.525065E-01  0.527915E-01  0.528718E-01  0.528059E-01  0.526901E-01
  0.526418E-01  0.527955E-01  0.532983E-01  0.542877E-01  0.558516E-01  0.579857E-01
  0.605505E-01  0.632291E-01  0.655056E-01  0.667374E-01  0.663789E-01  0.642845E-01
  0.608817E-01  0.570491E-01  0.537747E-01  0.518274E-01  0.515921E-01  0.530376E-01
  0.557312E-01  0.588963E-01  0.615914E-01  0.630239E-01  0.628539E-01  0.612777E-01
  0.588456E-01  0.561735E-01  0.537407E-01  0.518320E-01  0.505639E-01  0.499292E-01
  0.498370E-01  0.501496E-01  0.507144E-01  0.537384E-01  0.545072E-01  0.552486E-01
  0.558544E-01  0.562624E-01  0.564689E-01  0.565228E-01  0.565049E-01  0.565120E-01
  0.566575E-01  0.570766E-01  0.579102E-01  0.592645E-01  0.611606E-01  0.634840E-01
  0.659364E-01  0.680028E-01  0.690094E-01  0.683438E-01  0.657867E-01  0.617369E-01
  0.571180E-01  0.530169E-01  0.503107E-01  0.494800E-01  0.505858E-01  0.532889E-01
  0.568754E-01  0.603728E-01  0.628320E-01  0.636824E-01  0.629260E-01  0.610357E-01
  0.586620E-01  0.563701E-01  0.545253E-01  0.532982E-01  0.527109E-01  0.526839E-01
  0.530793E-01  0.537384E-01  0.562211E-01  0.570632E-01  0.578659E-01  0.585335E-01
  0.590180E-01  0.593242E-01  0.594986E-01  0.596057E-01  0.597111E-01  0.598905E-01
  0.602478E-01  0.609144E-01  0.620130E-01  0.636005E-01  0.656108E-01  0.678018E-01
  0.697155E-01  0.707085E-01  0.701351E-01  0.676696E-01  0.635787E-01  0.587065E-01
  0.541505E-01  0.508642E-01  0.494238E-01  0.499832E-01  0.522984E-01  0.557492E-01
  0.594197E-01  0.623320E-01  0.637925E-01  0.636447E-01  0.622469E-01  0.602178E-01
  0.581523E-01  0.564641E-01  0.553619E-01  0.548889E-01  0.549724E-01  0.554716E-01
  0.562211E-01  0.579699E-01  0.588562E-01  0.596692E-01  0.603353E-01  0.608344E-01
  0.611949E-01  0.614719E-01  0.617167E-01  0.619592E-01  0.622227E-01  0.625601E-01
  0.630746E-01  0.638956E-01  0.651194E-01  0.667427E-01  0.686068E-01  0.703549E-01
  0.714373E-01  0.712359E-01  0.693333E-01  0.658006E-01  0.612795E-01  0.567588E-01
  0.532021E-01  0.512658E-01  0.512007E-01  0.528592E-01  0.557258E-01  0.589937E-01
  0.617598E-01  0.633282E-01  0.634610E-01  0.624071E-01  0.607045E-01  0.589170E-01
  0.574622E-01  0.565622E-01  0.562686E-01  0.565083E-01  0.571336E-01  0.579699E-01
  0.588370E-01  0.597526E-01  0.605404E-01  0.611524E-01  0.616054E-01  0.619630E-01
  0.623012E-01  0.626676E-01  0.630599E-01  0.634442E-01  0.638078E-01  0.642051E-01
  0.647550E-01  0.655859E-01  0.667603E-01  0.682127E-01  0.697089E-01  0.708357E-01
  0.710698E-01  0.699657E-01  0.674102E-01  0.637735E-01  0.598167E-01  0.564049E-01
  0.542165E-01  0.535839E-01  0.544606E-01  0.564511E-01  0.588944E-01  0.610351E-01
  0.622705E-01  0.623614E-01  0.614751E-01  0.600450E-01  0.585570E-01  0.573901E-01
  0.567536E-01  0.566941E-01  0.571318E-01  0.579080E-01  0.588370E-01  0.587431E-01
  0.597033E-01  0.604683E-01  0.610108E-01  0.613823E-01  0.616857E-01  0.620266E-01
  0.624619E-01  0.629705E-01  0.634706E-01  0.638823E-01  0.641969E-01  0.645021E-01
  0.649404E-01  0.656301E-01  0.665933E-01  0.677150E-01  0.687291E-01  0.692497E-01
  0.688812E-01  0.674031E-01  0.649336E-01  0.619438E-01  0.590915E-01  0.569791E-01
  0.559686E-01  0.561048E-01  0.571269E-01  0.585487E-01  0.598063E-01  0.604471E-01
  0.602844E-01  0.594349E-01  0.582255E-01  0.570402E-01  0.561920E-01  0.558584E-01
  0.560715E-01  0.567414E-01  0.576979E-01  0.587431E-01  0.576717E-01  0.587273E-01
  0.595215E-01  0.600340E-01  0.603374E-01  0.605653E-01  0.608544E-01  0.612815E-01
  0.618259E-01  0.623797E-01  0.628112E-01  0.630496E-01  0.631359E-01  0.632042E-01
  0.634071E-01  0.638372E-01  0.644790E-01  0.651960E-01  0.657436E-01  0.658258E-01
  0.652064E-01  0.638393E-01  0.619331E-01  0.598896E-01  0.581480E-01  0.570247E-01
  0.566180E-01  0.567954E-01  0.572535E-01  0.576310E-01  0.576410E-01  0.571726E-01
  0.563144E-01  0.553006E-01  0.544132E-01  0.538920E-01  0.538753E-01  0.543781E-01
  0.553021E-01  0.564690E-01  0.576717E-01  0.556520E-01  0.568744E-01  0.577876E-01
  0.583606E-01  0.586645E-01  0.588441E-01  0.590574E-01  0.594053E-01  0.598836E-01
  0.603850E-01  0.607553E-01  0.608803E-01  0.607538E-01  0.604828E-01  0.602290E-01
  0.601295E-01  0.602426E-01  0.605304E-01  0.608646E-01  0.610548E-01  0.609077E-01
  0.603107E-01  0.592982E-01  0.580496E-01  0.568151E-01  0.558101E-01  0.551345E-01
  0.547483E-01  0.545036E-01  0.542163E-01  0.537469E-01  0.530571E-01  0.522229E-01
  0.514076E-01  0.508088E-01  0.506014E-01  0.508883E-01  0.516715E-01  0.528502E-01
  0.542469E-01  0.556520E-01  0.527524E-01  0.542019E-01  0.553272E-01  0.560717E-01
  0.564811E-01  0.566859E-01  0.568467E-01  0.570813E-01  0.574108E-01  0.577503E-01
  0.579543E-01  0.578960E-01  0.575384E-01  0.569567E-01  0.562993E-01  0.557203E-01
  0.553233E-01  0.551374E-01  0.551172E-01  0.551565E-01  0.551195E-01  0.548899E-01
  0.544192E-01  0.537453E-01  0.529669E-01  0.521908E-01  0.514827E-01  0.508462E-01
  0.502351E-01  0.495901E-01  0.488778E-01  0.481155E-01  0.473755E-01  0.467736E-01
  0.464470E-01  0.465212E-01  0.470727E-01  0.480977E-01  0.495025E-01  0.511213E-01
  0.527524E-01  0.490913E-01  0.507843E-01  0.521762E-01  0.531786E-01  0.537956E-01
  0.541200E-01  0.542918E-01  0.544312E-01  0.545810E-01  0.546898E-01  0.546445E-01
  0.543356E-01  0.537214E-01  0.528544E-01  0.518601E-01  0.508856E-01  0.500524E-01
  0.494286E-01  0.490220E-01  0.487844E-01  0.486283E-01  0.484574E-01  0.481995E-01
  0.478257E-01  0.473463E-01  0.467892E-01  0.461786E-01  0.455247E-01  0.448285E-01
  0.440970E-01  0.433572E-01  0.426598E-01  0.420769E-01  0.416962E-01  0.416149E-01
  0.419241E-01  0.426819E-01  0.438854E-01  0.454568E-01  0.472530E-01  0.490913E-01
  0.448477E-01  0.467416E-01  0.483887E-01  0.496736E-01  0.505550E-01  0.510753E-01
  0.513348E-01  0.514373E-01  0.514365E-01  0.513131E-01  0.509957E-01  0.504117E-01
  0.495368E-01  0.484178E-01  0.471596E-01  0.458902E-01  0.447270E-01  0.437530E-01
  0.430060E-01  0.424747E-01  0.421069E-01  0.418298E-01  0.415744E-01  0.412912E-01
  0.409526E-01  0.405452E-01  0.400635E-01  0.395082E-01  0.388913E-01  0.382423E-01
  0.376110E-01  0.370622E-01  0.366666E-01  0.364962E-01  0.366224E-01  0.371114E-01
  0.380078E-01  0.393132E-01  0.409707E-01  0.428670E-01  0.448477E-01  0.402527E-01
  0.422565E-01  0.440833E-01  0.456027E-01  0.467372E-01  0.474794E-01  0.478815E-01
  0.480171E-01  0.479361E-01  0.476416E-01  0.471006E-01  0.462806E-01  0.451855E-01
  0.438694E-01  0.424259E-01  0.409636E-01  0.395848E-01  0.383704E-01  0.373695E-01
  0.365920E-01  0.360108E-01  0.355749E-01  0.352279E-01  0.349213E-01  0.346178E-01
  0.342889E-01  0.339141E-01  0.334841E-01  0.330061E-01  0.325086E-01  0.320413E-01
  0.316680E-01  0.314555E-01  0.314652E-01  0.317515E-01  0.323619E-01  0.333302E-01
  0.346617E-01  0.363206E-01  0.382249E-01  0.402527E-01  0.355619E-01  0.375640E-01
  0.394572E-01  0.411105E-01  0.424254E-01  0.433567E-01  0.439126E-01  0.441316E-01
  0.440495E-01  0.436787E-01  0.430131E-01  0.420520E-01  0.408237E-01  0.393934E-01
  0.378507E-01  0.362911E-01  0.348021E-01  0.334546E-01  0.322971E-01  0.313490E-01
  0.305998E-01  0.300169E-01  0.295592E-01  0.291871E-01  0.288658E-01  0.285651E-01
  0.282600E-01  0.279360E-01  0.275931E-01  0.272507E-01  0.269481E-01  0.267389E-01
  0.266814E-01  0.268282E-01  0.272223E-01  0.278978E-01  0.288792E-01  0.301736E-01
  0.317613E-01  0.335875E-01  0.355619E-01  0.310206E-01  0.329179E-01  0.347610E-01
  0.364298E-01  0.378208E-01  0.388669E-01  0.395447E-01  0.398621E-01  0.398373E-01
  0.394824E-01  0.388042E-01  0.378197E-01  0.365712E-01  0.351291E-01  0.335804E-01
  0.320127E-01  0.305031E-01  0.291136E-01  0.278876E-01  0.268473E-01  0.259918E-01
  0.253029E-01  0.247533E-01  0.243141E-01  0.239570E-01  0.236553E-01  0.233859E-01
  0.231333E-01  0.228936E-01  0.226776E-01  0.225116E-01  0.224350E-01  0.224938E-01
  0.227315E-01  0.231831E-01  0.238744E-01  0.248228E-01  0.260350E-01  0.275004E-01
  0.291837E-01  0.310206E-01  0.268350E-01  0.285512E-01  0.302499E-01  0.318298E-01
  0.331940E-01  0.342684E-01  0.350113E-01  0.354103E-01  0.354683E-01  0.351925E-01
  0.345923E-01  0.336896E-01  0.325287E-01  0.311766E-01  0.297138E-01  0.282205E-01
  0.267666E-01  0.254078E-01  0.241837E-01  0.231170E-01  0.222133E-01  0.214648E-01
  0.208553E-01  0.203649E-01  0.199722E-01  0.196557E-01  0.193963E-01  0.191813E-01
  0.190063E-01  0.188766E-01  0.188079E-01  0.188256E-01  0.189618E-01  0.192496E-01
  0.197177E-01  0.203872E-01  0.212714E-01  0.223746E-01  0.236894E-01  0.251914E-01
  0.268350E-01  0.231537E-01  0.246458E-01  0.261399E-01  0.275566E-01  0.288139E-01
  0.298409E-01  0.305894E-01  0.310358E-01  0.311735E-01  0.310042E-01  0.305348E-01
  0.297842E-01  0.287897E-01  0.276083E-01  0.263089E-01  0.249616E-01  0.236284E-01
  0.223595E-01  0.211917E-01  0.201486E-01  0.192417E-01  0.184716E-01  0.178309E-01
  0.173071E-01  0.168846E-01  0.165470E-01  0.162806E-01  0.160763E-01  0.159316E-01
  0.158498E-01  0.158395E-01  0.159149E-01  0.160954E-01  0.164033E-01  0.168606E-01
  0.174850E-01  0.182873E-01  0.192697E-01  0.204238E-01  0.217298E-01  0.231537E-01
  0.200632E-01  0.213185E-01  0.225811E-01  0.237941E-01  0.248936E-01  0.258191E-01
  0.265241E-01  0.269811E-01  0.271789E-01  0.271153E-01  0.267940E-01  0.262272E-01
  0.254418E-01  0.244804E-01  0.233973E-01  0.222494E-01  0.210886E-01  0.199580E-01
  0.188906E-01  0.179106E-01  0.170341E-01  0.162692E-01  0.156166E-01  0.150706E-01
  0.146213E-01  0.142578E-01  0.139715E-01  0.137579E-01  0.136170E-01  0.135518E-01
  0.135674E-01  0.136705E-01  0.138702E-01  0.141788E-01  0.146107E-01  0.151795E-01
  0.158936E-01  0.167534E-01  0.177490E-01  0.188614E-01  0.200632E-01  0.175956E-01
  0.186233E-01  0.196548E-01  0.206517E-01  0.215694E-01  0.223614E-01  0.229885E-01
  0.234246E-01  0.236575E-01  0.236834E-01  0.235033E-01  0.231233E-01  0.225590E-01
  0.218380E-01  0.209980E-01  0.200814E-01  0.191282E-01  0.181724E-01  0.172416E-01
  0.163580E-01  0.155398E-01  0.148007E-01  0.141485E-01  0.135851E-01  0.131072E-01
  0.127106E-01  0.123923E-01  0.121526E-01  0.119945E-01  0.119217E-01  0.119378E-01
  0.120450E-01  0.122454E-01  0.125427E-01  0.129434E-01  0.134551E-01  0.140829E-01
  0.148252E-01  0.156714E-01  0.166026E-01  0.175956E-01  0.157463E-01  0.165679E-01
  0.173849E-01  0.181736E-01  0.189056E-01  0.195499E-01  0.200780E-01  0.204695E-01
  0.207139E-01  0.208076E-01  0.207503E-01  0.205436E-01  0.201934E-01  0.197131E-01
  0.191241E-01  0.184531E-01  0.177273E-01  0.169710E-01  0.162044E-01  0.154449E-01
  0.147095E-01  0.140142E-01  0.133723E-01  0.127932E-01  0.122822E-01  0.118427E-01
  0.114789E-01  0.111966E-01  0.110022E-01  0.109012E-01  0.108967E-01  0.109885E-01
  0.111743E-01  0.114515E-01  0.118189E-01  0.122773E-01  0.128265E-01  0.134623E-01
  0.141730E-01  0.149411E-01  0.157463E-01  0.144915E-01  0.151326E-01  0.157591E-01
  0.163574E-01  0.169123E-01  0.174069E-01  0.178252E-01  0.181553E-01  0.183912E-01
  0.185313E-01  0.185754E-01  0.185226E-01  0.183715E-01  0.181233E-01  0.177840E-01
  0.173644E-01  0.168779E-01  0.163377E-01  0.157554E-01  0.151419E-01  0.145096E-01
  0.138735E-01  0.132502E-01  0.126559E-01  0.121051E-01  0.116108E-01  0.111857E-01
  0.108421E-01  0.105912E-01  0.104413E-01  0.103961E-01  0.104544E-01  0.106113E-01
  0.108595E-01  0.111921E-01  0.116028E-01  0.120850E-01  0.126296E-01  0.132234E-01
  0.138499E-01  0.144915E-01  0.137986E-01  0.142852E-01  0.147460E-01  0.151750E-01
  0.155668E-01  0.159168E-01  0.162214E-01  0.164789E-01  0.166903E-01  0.168582E-01
  0.169840E-01  0.170661E-01  0.170987E-01  0.170734E-01  0.169822E-01  0.168201E-01
  0.165849E-01  0.162765E-01  0.158963E-01  0.154467E-01  0.149339E-01  0.143694E-01
  0.137707E-01  0.131597E-01  0.125600E-01  0.119955E-01  0.114888E-01  0.110607E-01
  0.107290E-01  0.105062E-01  0.103985E-01  0.104045E-01  0.105174E-01  0.107270E-01
  0.110218E-01  0.113895E-01  0.118166E-01  0.122879E-01  0.127864E-01  0.132951E-01
  0.137986E-01  0.136297E-01  0.139872E-01  0.143065E-01  0.145871E-01  0.148316E-01
  0.150456E-01  0.152372E-01  0.154157E-01  0.155911E-01  0.157721E-01  0.159638E-01
  0.161658E-01  0.163700E-01  0.165616E-01  0.167208E-01  0.168269E-01  0.168604E-01
  0.168048E-01  0.166476E-01  0.163811E-01  0.160035E-01  0.155217E-01  0.149523E-01
  0.143213E-01  0.136609E-01  0.130063E-01  0.123919E-01  0.118495E-01  0.114058E-01
  0.110803E-01  0.108830E-01  0.108140E-01  0.108657E-01  0.110252E-01  0.112769E-01
  0.116035E-01  0.119848E-01  0.123988E-01  0.128233E-01  0.132386E-01  0.136297E-01
  0.139440E-01  0.141969E-01  0.143978E-01  0.145504E-01  0.146639E-01  0.147528E-01
  0.148359E-01  0.149340E-01  0.150671E-01  0.152517E-01  0.154986E-01  0.158100E-01
  0.161781E-01  0.165841E-01  0.169997E-01  0.173894E-01  0.177151E-01  0.179406E-01
  0.180355E-01  0.179776E-01  0.177556E-01  0.173701E-01  0.168359E-01  0.161814E-01
  0.154468E-01  0.146787E-01  0.139255E-01  0.132324E-01  0.126382E-01  0.121719E-01
  0.118502E-01  0.116767E-01  0.116442E-01  0.117376E-01  0.119374E-01  0.122207E-01
  0.125609E-01  0.129292E-01  0.132973E-01  0.136412E-01  0.139440E-01  0.155470E-01
  0.156865E-01  0.157366E-01  0.157058E-01  0.156102E-01  0.154726E-01  0.153209E-01
  0.151844E-01  0.150906E-01  0.150617E-01  0.151129E-01  0.152496E-01  0.154663E-01
  0.157459E-01  0.160609E-01  0.163773E-01  0.166590E-01  0.168720E-01  0.169879E-01
  0.169851E-01  0.168504E-01  0.165809E-01  0.161864E-01  0.156904E-01  0.151282E-01
  0.145428E-01  0.139790E-01  0.134787E-01  0.130769E-01  0.127991E-01  0.126596E-01
  0.126602E-01  0.127924E-01  0.130389E-01  0.133761E-01  0.137750E-01  0.142023E-01
  0.146226E-01  0.150028E-01  0.153166E-01  0.155470E-01  0.167710E-01  0.168488E-01
  0.168172E-01  0.166882E-01  0.164836E-01  0.162348E-01  0.159801E-01  0.157603E-01
  0.156134E-01  0.155702E-01  0.156518E-01  0.158678E-01  0.162148E-01  0.166746E-01
  0.172147E-01  0.177896E-01  0.183462E-01  0.188302E-01  0.191928E-01  0.193954E-01
  0.194128E-01  0.192354E-01  0.188701E-01  0.183420E-01  0.176928E-01  0.169767E-01
  0.162529E-01  0.155790E-01  0.150041E-01  0.145652E-01  0.142844E-01  0.141691E-01
  0.142133E-01  0.143997E-01  0.147016E-01  0.150840E-01  0.155056E-01  0.159221E-01
  0.162921E-01  0.165823E-01  0.167710E-01  0.184083E-01  0.184401E-01  0.183425E-01
  0.181290E-01  0.178270E-01  0.174764E-01  0.171264E-01  0.168293E-01  0.166338E-01
  0.165796E-01  0.166942E-01  0.169926E-01  0.174751E-01  0.181257E-01  0.189094E-01
  0.197722E-01  0.206446E-01  0.214497E-01  0.221133E-01  0.225739E-01  0.227883E-01
  0.227353E-01  0.224166E-01  0.218577E-01  0.211071E-01  0.202314E-01  0.193072E-01
  0.184115E-01  0.176114E-01  0.169583E-01  0.164847E-01  0.162051E-01  0.161178E-01
  0.162074E-01  0.164454E-01  0.167915E-01  0.171963E-01  0.176061E-01  0.179702E-01
  0.182470E-01  0.184083E-01  0.204195E-01  0.204202E-01  0.202718E-01  0.199882E-01
  0.196014E-01  0.191602E-01  0.187249E-01  0.183592E-01  0.181223E-01  0.180628E-01
  0.182159E-01  0.186033E-01  0.192314E-01  0.200883E-01  0.211393E-01  0.223237E-01
  0.235568E-01  0.247382E-01  0.257654E-01  0.265478E-01  0.270174E-01  0.271350E-01
  0.268918E-01  0.263113E-01  0.254476E-01  0.243817E-01  0.232112E-01  0.220368E-01
  0.209491E-01  0.200185E-01  0.192914E-01  0.187912E-01  0.185216E-01  0.184694E-01
  0.186054E-01  0.188857E-01  0.192538E-01  0.196468E-01  0.200039E-01  0.202738E-01
  0.204195E-01  0.227595E-01  0.227440E-01  0.225614E-01  0.222237E-01  0.217670E-01
  0.212487E-01  0.207402E-01  0.203163E-01  0.200462E-01  0.199878E-01  0.201860E-01
  0.206716E-01  0.214594E-01  0.225431E-01  0.238886E-01  0.254290E-01  0.270651E-01
  0.286737E-01  0.301232E-01  0.312912E-01  0.320796E-01  0.324242E-01  0.322994E-01
  0.317210E-01  0.307464E-01  0.294703E-01  0.280135E-01  0.265046E-01  0.250624E-01
  0.237824E-01  0.227303E-01  0.219427E-01  0.214307E-01  0.211837E-01  0.211721E-01
  0.213485E-01  0.216511E-01  0.220092E-01  0.223526E-01  0.226188E-01  0.227595E-01
  0.253789E-01  0.253628E-01  0.251647E-01  0.247923E-01  0.242840E-01  0.237053E-01
  0.231383E-01  0.226682E-01  0.223738E-01  0.223234E-01  0.225733E-01  0.231667E-01
  0.241289E-01  0.254592E-01  0.271225E-01  0.290441E-01  0.311104E-01  0.331770E-01
  0.350855E-01  0.366827E-01  0.378399E-01  0.384649E-01  0.385105E-01  0.379783E-01
  0.369224E-01  0.354461E-01  0.336906E-01  0.318130E-01  0.299635E-01  0.282669E-01
  0.268148E-01  0.256638E-01  0.248387E-01  0.243350E-01  0.241230E-01  0.241519E-01
  0.243545E-01  0.246540E-01  0.249716E-01  0.252338E-01  0.253789E-01  0.282283E-01
  0.282269E-01  0.280335E-01  0.276486E-01  0.271110E-01  0.264926E-01  0.258851E-01
  0.253833E-01  0.250754E-01  0.250406E-01  0.253488E-01  0.260575E-01  0.272033E-01
  0.287898E-01  0.307783E-01  0.330833E-01  0.355748E-01  0.380884E-01  0.404423E-01
  0.424596E-01  0.439889E-01  0.449181E-01  0.451813E-01  0.447624E-01  0.437002E-01
  0.420915E-01  0.400844E-01  0.378569E-01  0.355888E-01  0.334376E-01  0.315263E-01
  0.299401E-01  0.287267E-01  0.278966E-01  0.274254E-01  0.272598E-01  0.273262E-01
  0.275410E-01  0.278176E-01  0.280720E-01  0.282283E-01  0.312589E-01  0.312842E-01
  0.311151E-01  0.307416E-01  0.302000E-01  0.295665E-01  0.289401E-01  0.284243E-01
  0.281167E-01  0.281075E-01  0.284807E-01  0.293084E-01  0.306368E-01  0.324714E-01
  0.347658E-01  0.374187E-01  0.402785E-01  0.431571E-01  0.458521E-01  0.481756E-01
  0.499772E-01  0.511540E-01  0.516453E-01  0.514241E-01  0.504989E-01  0.489273E-01
  0.468271E-01  0.443698E-01  0.417538E-01  0.391711E-01  0.367846E-01  0.347184E-01
  0.330548E-01  0.318318E-01  0.310410E-01  0.306322E-01  0.305263E-01  0.306307E-01
  0.308496E-01  0.310887E-01  0.312589E-01  0.344178E-01  0.344775E-01  0.343493E-01
  0.340109E-01  0.334924E-01  0.328706E-01  0.322497E-01  0.317405E-01  0.314494E-01
  0.314781E-01  0.319236E-01  0.328697E-01  0.343690E-01  0.364241E-01  0.389748E-01
  0.418948E-01  0.449983E-01  0.480607E-01  0.508573E-01  0.532082E-01  0.550083E-01
  0.562233E-01  0.568545E-01  0.568960E-01  0.563188E-01  0.550936E-01  0.532369E-01
  0.508469E-01  0.481011E-01  0.452194E-01  0.424188E-01  0.398818E-01  0.377430E-01
  0.360822E-01  0.349207E-01  0.342227E-01  0.339091E-01  0.338779E-01  0.340219E-01
  0.342356E-01  0.344178E-01  0.376422E-01  0.377411E-01  0.376688E-01  0.373885E-01
  0.369206E-01  0.363383E-01  0.357476E-01  0.352652E-01  0.350067E-01  0.350851E-01
  0.356088E-01  0.366696E-01  0.383207E-01  0.405550E-01  0.432893E-01  0.463567E-01
  0.495136E-01  0.524759E-01  0.549887E-01  0.569046E-01  0.582250E-01  0.590694E-01
  0.595866E-01  0.598554E-01  0.598299E-01  0.593586E-01  0.582697E-01  0.564765E-01
  0.540429E-01  0.511737E-01  0.481465E-01  0.452337E-01  0.426532E-01  0.405495E-01
  0.389898E-01  0.379672E-01  0.374135E-01  0.372225E-01  0.372747E-01  0.374522E-01
  0.376422E-01  0.408582E-01  0.410022E-01  0.410010E-01  0.408025E-01  0.404133E-01
  0.398979E-01  0.393606E-01  0.389225E-01  0.387081E-01  0.388426E-01  0.394452E-01
  0.406124E-01  0.423928E-01  0.447619E-01  0.476009E-01  0.506812E-01  0.536709E-01
  0.561960E-01  0.579610E-01  0.588789E-01  0.591224E-01  0.590486E-01  0.590369E-01
  0.593229E-01  0.598982E-01  0.605082E-01  0.607488E-01  0.602369E-01  0.587806E-01
  0.564590E-01  0.535700E-01  0.504975E-01  0.475879E-01  0.450887E-01  0.431378E-01
  0.417747E-01  0.409566E-01  0.405839E-01  0.405294E-01  0.406624E-01  0.408582E-01
  0.439852E-01  0.441836E-01  0.442705E-01  0.441779E-01  0.438954E-01  0.434743E-01
  0.430123E-01  0.426323E-01  0.424677E-01  0.426561E-01  0.433282E-01  0.445856E-01
  0.464698E-01  0.489337E-01  0.518121E-01  0.547942E-01  0.574310E-01  0.592305E-01
  0.598488E-01  0.592850E-01  0.579341E-01  0.564425E-01  0.554572E-01  0.554054E-01
  0.563746E-01  0.580866E-01  0.599630E-01  0.613001E-01  0.615279E-01  0.604351E-01
  0.582188E-01  0.553405E-01  0.523070E-01  0.495191E-01  0.472235E-01  0.455295E-01
  0.444375E-01  0.438684E-01  0.436965E-01  0.437810E-01  0.439852E-01  0.469429E-01
  0.472065E-01  0.473973E-01  0.474318E-01  0.472809E-01  0.469789E-01  0.466133E-01
  0.463046E-01  0.461920E-01  0.464247E-01  0.471462E-01  0.484656E-01  0.504211E-01
  0.529445E-01  0.558220E-01  0.586526E-01  0.608551E-01  0.618023E-01  0.610943E-01
  0.588271E-01  0.556390E-01  0.524722E-01  0.502212E-01  0.494801E-01  0.504478E-01
  0.529115E-01  0.562599E-01  0.595802E-01  0.619195E-01  0.626432E-01  0.616727E-01
  0.594293E-01  0.565567E-01  0.536430E-01  0.510884E-01  0.491023E-01  0.477473E-01
  0.469799E-01  0.466872E-01  0.467242E-01  0.469429E-01  0.496526E-01  0.499889E-01
  0.502925E-01  0.504660E-01  0.504624E-01  0.502981E-01  0.500472E-01  0.498236E-01
  0.497666E-01  0.500319E-01  0.507749E-01  0.521159E-01  0.540977E-01  0.566421E-01
  0.594997E-01  0.621941E-01  0.640217E-01  0.642179E-01  0.623098E-01  0.584653E-01