 CRYSTAL
 PRIMVEC
    4.338112164    0.000008018   -0.000000000
   -0.958256035    4.081350430   -0.000000000
   -0.000000000   -0.000000000    4.485204391
 PRIMCOORD
           4           1
Si       -0.092452801    0.994343098    1.515232264
Si        2.172345601    1.725578627    0.623451794
Si        0.092462343    2.429474158    3.544901909
Si        2.165770909    0.591734806    2.619753850
BEGIN_BLOCK_DATAGRID_3D
3D_PWSCF
BEGIN_DATAGRID_3D_UNKNOWN
          46          41          46
  0.000000  0.000000  0.000000
    4.338112    0.000008   -0.000000
   -0.958256    4.081350   -0.000000
   -0.000000   -0.000000    4.485204
  0.743808E-02  0.755601E-02  0.764870E-02  0.771832E-02  0.776970E-02  0.780994E-02
  0.784767E-02  0.789193E-02  0.795076E-02  0.802998E-02  0.813285E-02  0.826059E-02
  0.841322E-02  0.858979E-02  0.878748E-02  0.900033E-02  0.921835E-02  0.942776E-02
  0.961214E-02  0.975436E-02  0.983851E-02  0.985190E-02  0.978657E-02  0.964034E-02
  0.941708E-02  0.912638E-02  0.878270E-02  0.840421E-02  0.801110E-02  0.762369E-02
  0.726046E-02  0.693659E-02  0.666337E-02  0.644839E-02  0.629620E-02  0.620859E-02
  0.618459E-02  0.622007E-02  0.630763E-02  0.643707E-02  0.659645E-02  0.677326E-02
  0.695557E-02  0.713269E-02  0.729571E-02  0.743808E-02  0.792792E-02  0.800230E-02
  0.804090E-02  0.804782E-02  0.803095E-02  0.800117E-02  0.797142E-02  0.795552E-02
  0.796669E-02  0.801604E-02  0.811154E-02  0.825783E-02  0.845658E-02  0.870670E-02
  0.900382E-02  0.933919E-02  0.969887E-02  0.100638E-01  0.104110E-01  0.107151E-01
  0.109511E-01  0.110970E-01  0.111367E-01  0.110618E-01  0.108732E-01  0.105804E-01
  0.102014E-01  0.976024E-02  0.928432E-02  0.880158E-02  0.833761E-02  0.791387E-02
  0.754696E-02  0.724865E-02  0.702619E-02  0.688252E-02  0.681638E-02  0.682239E-02
  0.689126E-02  0.701028E-02  0.716425E-02  0.733693E-02  0.751245E-02  0.767664E-02
  0.781790E-02  0.792792E-02  0.862818E-02  0.867089E-02  0.866717E-02  0.862244E-02
  0.854721E-02  0.845599E-02  0.836583E-02  0.829497E-02  0.826143E-02  0.828157E-02
  0.836874E-02  0.853228E-02  0.877703E-02  0.910306E-02  0.950519E-02  0.997227E-02
  0.104866E-01  0.110242E-01  0.115551E-01  0.120454E-01  0.124595E-01  0.127642E-01
  0.129325E-01  0.129476E-01  0.128047E-01  0.125123E-01  0.120910E-01  0.115709E-01
  0.109883E-01  0.103807E-01  0.978313E-02  0.922545E-02  0.873144E-02  0.831865E-02
  0.799836E-02  0.777558E-02  0.764918E-02  0.761241E-02  0.765367E-02  0.775736E-02
  0.790485E-02  0.807587E-02  0.825024E-02  0.840968E-02  0.853922E-02  0.862818E-02
  0.951992E-02  0.954205E-02  0.950705E-02  0.942084E-02  0.929603E-02  0.915060E-02
  0.900589E-02  0.888469E-02  0.880978E-02  0.880276E-02  0.888277E-02  0.906482E-02
  0.935831E-02  0.976581E-02  0.102824E-01  0.108952E-01  0.115833E-01  0.123176E-01
  0.130613E-01  0.137708E-01  0.143983E-01  0.148967E-01  0.152253E-01  0.153556E-01
  0.152755E-01  0.149901E-01  0.145217E-01  0.139067E-01  0.131910E-01  0.124242E-01
  0.116538E-01  0.109208E-01  0.102587E-01  0.969224E-02  0.923831E-02  0.890523E-02
  0.869296E-02  0.859377E-02  0.859347E-02  0.867295E-02  0.880949E-02  0.897831E-02
  0.915456E-02  0.931538E-02  0.944177E-02  0.951992E-02  0.105833E-01  0.105954E-01
  0.105401E-01  0.104229E-01  0.102576E-01  0.100652E-01  0.987174E-02  0.970480E-02
  0.959241E-02  0.956174E-02  0.963794E-02  0.984227E-02  0.101896E-01  0.106862E-01
  0.113288E-01  0.121040E-01  0.129886E-01  0.139492E-01  0.149419E-01  0.159127E-01
  0.167991E-01  0.175366E-01  0.180668E-01  0.183464E-01  0.183526E-01  0.180858E-01
  0.175683E-01  0.168424E-01  0.159647E-01  0.149995E-01  0.140104E-01  0.130537E-01
  0.121750E-01  0.114087E-01  0.107780E-01  0.102957E-01  0.996374E-02  0.977453E-02
  0.971181E-02  0.975266E-02  0.986953E-02  0.100323E-01  0.102107E-01  0.103767E-01
  0.105068E-01  0.105833E-01  0.117974E-01  0.118094E-01  0.117450E-01  0.116081E-01
  0.114127E-01  0.111822E-01  0.109465E-01  0.107390E-01  0.105937E-01  0.105440E-01
  0.106216E-01  0.108540E-01  0.112619E-01  0.118565E-01  0.126377E-01  0.135934E-01
  0.146998E-01  0.159202E-01  0.172039E-01  0.184849E-01  0.196839E-01  0.207156E-01
  0.214994E-01  0.219722E-01  0.220972E-01  0.218670E-01  0.213030E-01  0.204527E-01
  0.193839E-01  0.181777E-01  0.169178E-01  0.156805E-01  0.145285E-01  0.135084E-01
  0.126513E-01  0.119743E-01  0.114821E-01  0.111677E-01  0.110137E-01  0.109943E-01
  0.110771E-01  0.112259E-01  0.114036E-01  0.115763E-01  0.117149E-01  0.117974E-01
  0.131430E-01  0.131640E-01  0.131017E-01  0.129574E-01  0.127438E-01  0.124853E-01
  0.122154E-01  0.119733E-01  0.118001E-01  0.117366E-01  0.118214E-01  0.120883E-01
  0.125644E-01  0.132664E-01  0.141993E-01  0.153547E-01  0.167097E-01  0.182251E-01
  0.198429E-01  0.214845E-01  0.230522E-01  0.244369E-01  0.255321E-01  0.262505E-01
  0.265362E-01  0.263708E-01  0.257723E-01  0.247921E-01  0.235096E-01  0.220232E-01
  0.204394E-01  0.188594E-01  0.173688E-01  0.160318E-01  0.148904E-01  0.139672E-01
  0.132686E-01  0.127880E-01  0.125073E-01  0.123988E-01  0.124264E-01  0.125478E-01
  0.127188E-01  0.128974E-01  0.130479E-01  0.131430E-01  0.146073E-01  0.146461E-01
  0.145968E-01  0.144573E-01  0.142382E-01  0.139631E-01  0.136679E-01  0.133975E-01
  0.132010E-01  0.131278E-01  0.132244E-01  0.135313E-01  0.140818E-01  0.148996E-01
  0.159966E-01  0.173700E-01  0.189993E-01  0.208426E-01  0.228333E-01  0.248789E-01
  0.268625E-01  0.286510E-01  0.301111E-01  0.311281E-01  0.316232E-01  0.315619E-01
  0.309554E-01  0.298569E-01  0.283549E-01  0.265648E-01  0.246157E-01  0.226362E-01
  0.207402E-01  0.190164E-01  0.175242E-01  0.162955E-01  0.153391E-01  0.146472E-01
  0.142003E-01  0.139689E-01  0.139146E-01  0.139906E-01  0.141454E-01  0.143278E-01
  0.144933E-01  0.146073E-01  0.161876E-01  0.162538E-01  0.162281E-01  0.161051E-01
  0.158923E-01  0.156118E-01  0.153004E-01  0.150076E-01  0.147911E-01  0.147100E-01
  0.148194E-01  0.151677E-01  0.157950E-01  0.167331E-01  0.180026E-01  0.196079E-01
  0.215312E-01  0.237264E-01  0.261166E-01  0.285930E-01  0.310187E-01  0.332383E-01
  0.350944E-01  0.364474E-01  0.371951E-01  0.372844E-01  0.367149E-01  0.355358E-01
  0.338400E-01  0.317544E-01  0.294278E-01  0.270150E-01  0.246608E-01  0.224851E-01
  0.205731E-01  0.189735E-01  0.177021E-01  0.167508E-01  0.160966E-01  0.157074E-01
  0.155425E-01  0.155524E-01  0.156794E-01  0.158628E-01  0.160471E-01  0.161876E-01
  0.178893E-01  0.179944E-01  0.180039E-01  0.179085E-01  0.177130E-01  0.174371E-01
  0.171176E-01  0.168077E-01  0.165729E-01  0.164823E-01  0.166010E-01  0.169859E-01
  0.176854E-01  0.187405E-01  0.201821E-01  0.220224E-01  0.242462E-01  0.268018E-01
  0.295980E-01  0.325058E-01  0.353656E-01  0.380008E-01  0.402359E-01  0.419171E-01
  0.429296E-01  0.432073E-01  0.427361E-01  0.415521E-01  0.397388E-01  0.374213E-01
  0.347574E-01  0.319228E-01  0.290932E-01  0.264241E-01  0.240356E-01  0.220029E-01
  0.203577E-01  0.190970E-01  0.181952E-01  0.176153E-01  0.173132E-01  0.172367E-01
  0.173237E-01  0.175050E-01  0.177126E-01  0.178893E-01  0.197186E-01  0.198762E-01
  0.199348E-01  0.198798E-01  0.197127E-01  0.194511E-01  0.191311E-01  0.188086E-01
  0.185558E-01  0.184516E-01  0.185713E-01  0.189815E-01  0.197401E-01  0.208985E-01
  0.224981E-01  0.245600E-01  0.270711E-01  0.299723E-01  0.331539E-01  0.364593E-01
  0.396986E-01  0.426706E-01  0.451900E-01  0.471087E-01  0.483264E-01  0.487881E-01
  0.484758E-01  0.474039E-01  0.456222E-01  0.432237E-01  0.403489E-01  0.371793E-01
  0.339174E-01  0.307594E-01  0.278690E-01  0.253601E-01  0.232919E-01  0.216758E-01
  0.204890E-01  0.196900E-01  0.192288E-01  0.190490E-01  0.190847E-01  0.192599E-01
  0.194951E-01  0.197186E-01  0.216769E-01  0.219028E-01  0.220277E-01  0.220293E-01
  0.219043E-01  0.216678E-01  0.213548E-01  0.210235E-01  0.207516E-01  0.206272E-01
  0.207360E-01  0.211547E-01  0.219515E-01  0.231885E-01  0.249176E-01  0.271684E-01
  0.299299E-01  0.331345E-01  0.366493E-01  0.402797E-01  0.437915E-01  0.469503E-01
  0.495660E-01  0.515230E-01  0.527790E-01  0.533358E-01  0.532027E-01  0.523759E-01
  0.508449E-01  0.486230E-01  0.457830E-01  0.424753E-01  0.389146E-01  0.353409E-01
  0.319742E-01  0.289819E-01  0.264649E-01  0.244613E-01  0.229602E-01  0.219197E-01
  0.212836E-01  0.209889E-01  0.209650E-01  0.211304E-01  0.213963E-01  0.216769E-01
  0.237620E-01  0.240728E-01  0.242846E-01  0.243631E-01  0.242979E-01  0.240997E-01
  0.238022E-01  0.234646E-01  0.231703E-01  0.230157E-01  0.230971E-01  0.235020E-01
  0.243090E-01  0.255901E-01  0.274072E-01  0.297970E-01  0.327502E-01  0.361901E-01
  0.399565E-01  0.438066E-01  0.474453E-01  0.505900E-01  0.530472E-01  0.547584E-01
  0.557865E-01  0.562474E-01  0.562281E-01  0.557322E-01  0.546799E-01  0.529593E-01
  0.505085E-01  0.473823E-01  0.437677E-01  0.399402E-01  0.361893E-01  0.327555E-01
  0.297995E-01  0.274008E-01  0.255715E-01  0.242774E-01  0.234586E-01  0.230446E-01
  0.229582E-01  0.231132E-01  0.234137E-01  0.237620E-01  0.259690E-01  0.263835E-01
  0.267049E-01  0.268840E-01  0.268996E-01  0.267557E-01  0.264826E-01  0.261402E-01
  0.258165E-01  0.256167E-01  0.256481E-01  0.260094E-01  0.267898E-01  0.280710E-01
  0.299230E-01  0.323882E-01  0.354585E-01  0.390477E-01  0.429673E-01  0.469199E-01
  0.505373E-01  0.534744E-01  0.555281E-01  0.567099E-01  0.572202E-01  0.573349E-01
  0.572684E-01  0.570759E-01  0.566316E-01  0.556873E-01  0.539942E-01  0.514355E-01
  0.481026E-01  0.442708E-01  0.402989E-01  0.365201E-01  0.331769E-01  0.304069E-01
  0.282581E-01  0.267131E-01  0.257148E-01  0.251867E-01  0.250444E-01  0.251960E-01
  0.255399E-01  0.259690E-01  0.282869E-01  0.288268E-01  0.292823E-01  0.295869E-01
  0.297056E-01  0.296330E-01  0.293940E-01  0.290475E-01  0.286852E-01  0.284208E-01
  0.283727E-01  0.286517E-01  0.293581E-01  0.305834E-01  0.324051E-01  0.348707E-01
  0.379725E-01  0.416170E-01  0.455911E-01  0.495465E-01  0.530399E-01  0.556551E-01
  0.571674E-01  0.576501E-01  0.574433E-01  0.569969E-01  0.566794E-01  0.566389E-01
  0.567530E-01  0.566747E-01  0.559680E-01  0.542973E-01  0.515834E-01  0.480377E-01
  0.440602E-01  0.400812E-01  0.364431E-01  0.333589E-01  0.309251E-01  0.291513E-01
  0.279909E-01  0.273662E-01  0.271862E-01  0.273525E-01  0.277578E-01  0.282869E-01
  0.306835E-01  0.313744E-01  0.319893E-01  0.324438E-01  0.326872E-01  0.327029E-01
  0.325087E-01  0.321606E-01  0.317521E-01  0.314035E-01  0.312437E-01  0.313956E-01
  0.319710E-01  0.330719E-01  0.347845E-01  0.371624E-01  0.402012E-01  0.438046E-01
  0.477454E-01  0.516399E-01  0.549838E-01  0.572907E-01  0.582959E-01  0.581026E-01
  0.571575E-01  0.560613E-01  0.553321E-01  0.552312E-01  0.556898E-01  0.563297E-01
  0.565855E-01  0.559154E-01  0.540301E-01  0.510109E-01  0.472442E-01  0.432337E-01
  0.394229E-01  0.361109E-01  0.334525E-01  0.314930E-01  0.302039E-01  0.295124E-01
  0.293243E-01  0.295342E-01  0.300284E-01  0.306835E-01  0.330898E-01  0.339587E-01
  0.347578E-01  0.353846E-01  0.357725E-01  0.358932E-01  0.357567E-01  0.354143E-01
  0.349586E-01  0.345132E-01  0.342148E-01  0.341962E-01  0.345806E-01  0.354807E-01
  0.369937E-01  0.391834E-01  0.420537E-01  0.455152E-01  0.493432E-01  0.531447E-01
  0.563837E-01  0.585167E-01  0.592199E-01  0.585744E-01  0.570685E-01  0.554001E-01
  0.542070E-01  0.538628E-01  0.543826E-01  0.554222E-01  0.563703E-01  0.565489E-01
  0.554805E-01  0.530845E-01  0.496772E-01  0.457880E-01  0.419372E-01  0.385041E-01
  0.357037E-01  0.336211E-01  0.322518E-01  0.315343E-01  0.313749E-01  0.316635E-01
  0.322791E-01  0.330898E-01  0.353960E-01  0.364658E-01  0.374690E-01  0.382859E-01
  0.388349E-01  0.390766E-01  0.390138E-01  0.386918E-01  0.381986E-01  0.376564E-01
  0.372047E-01  0.369832E-01  0.371235E-01  0.377490E-01  0.389692E-01  0.408628E-01
  0.434500E-01  0.466598E-01  0.502896E-01  0.539692E-01  0.571703E-01  0.593213E-01
  0.600295E-01  0.592967E-01  0.575680E-01  0.555607E-01  0.539843E-01  0.533077E-01
  0.536410E-01  0.547154E-01  0.559488E-01  0.566196E-01  0.561356E-01  0.542770E-01
  0.512608E-01  0.475905E-01  0.438187E-01  0.403781E-01  0.375332E-01  0.354061E-01
  0.340182E-01  0.333233E-01  0.332330E-01  0.336353E-01  0.344030E-01  0.353960E-01
  0.374645E-01  0.387485E-01  0.399657E-01  0.409812E-01  0.417006E-01  0.420759E-01
  0.421038E-01  0.418231E-01  0.413132E-01  0.406885E-01  0.400852E-01  0.396447E-01
  0.395040E-01  0.397950E-01  0.406397E-01  0.421346E-01  0.443233E-01  0.471636E-01
  0.504926E-01  0.539912E-01  0.571808E-01  0.595038E-01  0.605130E-01  0.600928E-01
  0.585616E-01  0.565628E-01  0.548094E-01  0.538328E-01  0.538338E-01  0.546389E-01
  0.557472E-01  0.564777E-01  0.562165E-01  0.546683E-01  0.519600E-01  0.485343E-01
  0.449267E-01  0.415841E-01  0.387970E-01  0.367135E-01  0.353776E-01  0.347595E-01
  0.347795E-01  0.353269E-01  0.362710E-01  0.374645E-01  0.391521E-01  0.406521E-01
  0.420803E-01  0.432899E-01  0.441773E-01  0.446898E-01  0.448210E-01  0.446029E-01
  0.441031E-01  0.434215E-01  0.426832E-01  0.420257E-01  0.415881E-01  0.415080E-01
  0.419179E-01  0.429323E-01  0.446208E-01  0.469773E-01  0.498879E-01  0.531024E-01
  0.562235E-01  0.587533E-01  0.602308E-01  0.604269E-01  0.594822E-01  0.578780E-01
  0.562444E-01  0.551191E-01  0.547711E-01  0.551279E-01  0.558017E-01  0.562154E-01
  0.558172E-01  0.543105E-01  0.517671E-01  0.485576E-01  0.451625E-01  0.420035E-01
  0.393685E-01  0.374162E-01  0.362052E-01  0.357201E-01  0.358911E-01  0.366115E-01
  0.377493E-01  0.391521E-01  0.403258E-01  0.420358E-01  0.436624E-01  0.450504E-01
  0.460912E-01  0.467325E-01  0.469688E-01  0.468278E-01  0.463631E-01  0.456544E-01
  0.448083E-01  0.439518E-01  0.432226E-01  0.427618E-01  0.427097E-01  0.431951E-01
  0.443124E-01  0.460917E-01  0.484701E-01  0.512692E-01  0.541857E-01  0.568136E-01
  0.587299E-01  0.596379E-01  0.595056E-01  0.586026E-01  0.573946E-01  0.563500E-01
  0.557608E-01  0.556429E-01  0.557382E-01  0.556132E-01  0.548371E-01  0.531710E-01
  0.506700E-01  0.476378E-01  0.444810E-01  0.415682E-01  0.391618E-01  0.374154E-01
  0.363939E-01  0.360925E-01  0.364507E-01  0.373674E-01  0.387112E-01  0.403258E-01
  0.408690E-01  0.427802E-01  0.445910E-01  0.461389E-01  0.473140E-01  0.480680E-01
  0.484009E-01  0.483400E-01  0.479266E-01  0.472178E-01  0.462954E-01  0.452697E-01
  0.442727E-01  0.434476E-01  0.429398E-01  0.428876E-01  0.434044E-01  0.445516E-01
  0.463123E-01  0.485726E-01  0.511162E-01  0.536377E-01  0.557887E-01  0.572668E-01
  0.579231E-01  0.578279E-01  0.572421E-01  0.564982E-01  0.558514E-01  0.553737E-01
  0.549303E-01  0.542454E-01  0.530344E-01  0.511478E-01  0.486496E-01  0.457891E-01
  0.428961E-01  0.402754E-01  0.381518E-01  0.366642E-01  0.358777E-01  0.357946E-01
  0.363635E-01  0.374900E-01  0.390448E-01  0.408690E-01  0.406882E-01  0.427895E-01
  0.447735E-01  0.464704E-01  0.477682E-01  0.486227E-01  0.490417E-01  0.490563E-01
  0.487001E-01  0.480099E-01  0.470411E-01  0.458823E-01  0.446554E-01  0.435032E-01
  0.425748E-01  0.420142E-01  0.419461E-01  0.424547E-01  0.435598E-01  0.451999E-01
  0.472292E-01  0.494295E-01  0.515363E-01  0.532868E-01  0.544859E-01  0.550664E-01
  0.551051E-01  0.547736E-01  0.542437E-01  0.535996E-01  0.527998E-01  0.517086E-01
  0.501803E-01  0.481558E-01  0.457175E-01  0.430720E-01  0.404814E-01  0.381899E-01
  0.363835E-01  0.351834E-01  0.346519E-01  0.347972E-01  0.355780E-01  0.369088E-01
  0.386653E-01  0.406882E-01  0.397313E-01  0.420025E-01  0.441492E-01  0.459935E-01
  0.474169E-01  0.483746E-01  0.488787E-01  0.489654E-01  0.486664E-01  0.480051E-01
  0.470143E-01  0.457594E-01  0.443481E-01  0.429202E-01  0.416274E-01  0.406172E-01
  0.400194E-01  0.399312E-01  0.403976E-01  0.413962E-01  0.428343E-01  0.445598E-01
  0.463801E-01  0.480873E-01  0.494918E-01  0.504616E-01  0.509508E-01  0.509957E-01
  0.506732E-01  0.500446E-01  0.491197E-01  0.478612E-01  0.462282E-01  0.442317E-01
  0.419686E-01  0.396123E-01  0.373706E-01  0.354377E-01  0.339664E-01  0.330608E-01
  0.327798E-01  0.331381E-01  0.341060E-01  0.356107E-01  0.375377E-01  0.397313E-01
  0.380108E-01  0.404137E-01  0.427026E-01  0.446924E-01  0.462540E-01  0.473325E-01
  0.479356E-01  0.481003E-01  0.478599E-01  0.472328E-01  0.462377E-01  0.449209E-01
  0.433743E-01  0.417310E-01  0.401435E-01  0.387619E-01  0.377180E-01  0.371139E-01
  0.370083E-01  0.374045E-01  0.382475E-01  0.394329E-01  0.408223E-01  0.422578E-01
  0.435781E-01  0.446384E-01  0.453351E-01  0.456208E-01  0.454977E-01  0.449920E-01
  0.441281E-01  0.429204E-01  0.413887E-01  0.395848E-01  0.376098E-01  0.356102E-01
  0.337526E-01  0.321932E-01  0.310577E-01  0.304356E-01  0.303822E-01  0.309181E-01
  0.320274E-01  0.336534E-01  0.356961E-01  0.380108E-01  0.356121E-01  0.380875E-01
  0.404776E-01  0.425962E-01  0.443019E-01  0.455217E-01  0.462469E-01  0.465062E-01
  0.463322E-01  0.457452E-01  0.447605E-01  0.434135E-01  0.417826E-01  0.399909E-01
  0.381880E-01  0.365250E-01  0.351348E-01  0.341201E-01  0.335441E-01  0.334239E-01
  0.337289E-01  0.343885E-01  0.353035E-01  0.363564E-01  0.374181E-01  0.383572E-01
  0.390566E-01  0.394324E-01  0.394441E-01  0.390881E-01  0.383831E-01  0.373598E-01
  0.360618E-01  0.345545E-01  0.329336E-01  0.313223E-01  0.298556E-01  0.286609E-01
  0.278422E-01  0.274764E-01  0.276142E-01  0.282817E-01  0.294757E-01  0.311575E-01
  0.332456E-01  0.356121E-01  0.326817E-01  0.351537E-01  0.375815E-01  0.397861E-01
  0.416184E-01  0.429842E-01  0.438492E-01  0.442230E-01  0.441312E-01  0.435971E-01
  0.426406E-01  0.412968E-01  0.396355E-01  0.377687E-01  0.358379E-01  0.339914E-01
  0.323616E-01  0.310504E-01  0.301217E-01  0.295977E-01  0.294616E-01  0.296649E-01
  0.301369E-01  0.307918E-01  0.315302E-01  0.322433E-01  0.328228E-01  0.331786E-01
  0.332528E-01  0.330237E-01  0.324987E-01  0.317055E-01  0.306882E-01  0.295093E-01
  0.282518E-01  0.270173E-01  0.259157E-01  0.250510E-01  0.245102E-01  0.243589E-01
  0.246433E-01  0.253923E-01  0.266133E-01  0.282839E-01  0.303423E-01  0.326817E-01
  0.294020E-01  0.317887E-01  0.341747E-01  0.363971E-01  0.383072E-01  0.397940E-01
  0.407960E-01  0.412961E-01  0.413054E-01  0.408460E-01  0.399452E-01  0.386441E-01
  0.370106E-01  0.351466E-01  0.331813E-01  0.312537E-01  0.294920E-01  0.279967E-01
  0.268317E-01  0.260217E-01  0.255570E-01  0.254026E-01  0.255075E-01  0.258093E-01
  0.262341E-01  0.266967E-01  0.271066E-01  0.273818E-01  0.274633E-01  0.273212E-01
  0.269529E-01  0.263765E-01  0.256268E-01  0.247547E-01  0.238276E-01  0.229266E-01
  0.221398E-01  0.215520E-01  0.212359E-01  0.212480E-01  0.216304E-01  0.224124E-01
  0.236081E-01  0.252077E-01  0.271671E-01  0.294020E-01  0.259674E-01  0.281933E-01
  0.304554E-01  0.326129E-01  0.345268E-01  0.360790E-01  0.371865E-01  0.378062E-01
  0.379297E-01  0.375716E-01  0.367632E-01  0.355519E-01  0.340071E-01  0.322230E-01
  0.303146E-01  0.284066E-01  0.266172E-01  0.250428E-01  0.237473E-01  0.227585E-01
  0.220728E-01  0.216643E-01  0.214947E-01  0.215180E-01  0.216796E-01  0.219150E-01
  0.221528E-01  0.223252E-01  0.223794E-01  0.222849E-01  0.220328E-01  0.216319E-01
  0.211057E-01  0.204913E-01  0.198395E-01  0.192127E-01  0.186797E-01  0.183087E-01
  0.181604E-01  0.182842E-01  0.187182E-01  0.194908E-01  0.206184E-01  0.220992E-01
  0.239034E-01  0.259674E-01  0.225649E-01  0.245708E-01  0.266382E-01  0.286508E-01
  0.304861E-01  0.320293E-01  0.331869E-01  0.338973E-01  0.341332E-01  0.338977E-01
  0.332186E-01  0.321453E-01  0.307470E-01  0.291111E-01  0.273393E-01  0.255396E-01
  0.238161E-01  0.222566E-01  0.209231E-01  0.198470E-01  0.190317E-01  0.184604E-01
  0.181045E-01  0.179289E-01  0.178923E-01  0.179459E-01  0.180353E-01  0.181070E-01
  0.181177E-01  0.180402E-01  0.178634E-01  0.175896E-01  0.172326E-01  0.168172E-01
  0.163794E-01  0.159649E-01  0.156255E-01  0.154151E-01  0.153837E-01  0.155744E-01
  0.160218E-01  0.167518E-01  0.177806E-01  0.191097E-01  0.207198E-01  0.225649E-01
  0.193562E-01  0.211059E-01  0.229298E-01  0.247352E-01  0.264193E-01  0.278787E-01
  0.290211E-01  0.297767E-01  0.301052E-01  0.299976E-01  0.294732E-01  0.285759E-01
  0.273697E-01  0.259340E-01  0.243580E-01  0.227342E-01  0.211508E-01  0.196840E-01
  0.183906E-01  0.173036E-01  0.164335E-01  0.157729E-01  0.153026E-01  0.149965E-01
  0.148227E-01  0.147436E-01  0.147176E-01  0.147039E-01  0.146686E-01  0.145892E-01
  0.144549E-01  0.142647E-01  0.140259E-01  0.137537E-01  0.134722E-01  0.132134E-01
  0.130154E-01  0.129191E-01  0.129648E-01  0.131890E-01  0.136222E-01  0.142875E-01
  0.151990E-01  0.163594E-01  0.177560E-01  0.193562E-01  0.164616E-01  0.179439E-01
  0.195017E-01  0.210635E-01  0.225467E-01  0.238637E-01  0.249315E-01  0.256818E-01
  0.260695E-01  0.260764E-01  0.257117E-01  0.250089E-01  0.240211E-01  0.228166E-01
  0.214720E-01  0.200656E-01  0.186716E-01  0.173536E-01  0.161607E-01  0.151246E-01
  0.142604E-01  0.135689E-01  0.130400E-01  0.126559E-01  0.123928E-01  0.122218E-01
  0.121115E-01  0.120310E-01  0.119545E-01  0.118641E-01  0.117503E-01  0.116108E-01
  0.114487E-01  0.112734E-01  0.111001E-01  0.109506E-01  0.108519E-01  0.108341E-01
  0.109282E-01  0.111634E-01  0.115654E-01  0.121538E-01  0.129408E-01  0.139292E-01
  0.151104E-01  0.164616E-01  0.139534E-01  0.151779E-01  0.164713E-01  0.177799E-01
  0.190394E-01  0.201793E-01  0.211303E-01  0.218322E-01  0.222413E-01  0.223358E-01
  0.221161E-01  0.216038E-01  0.208387E-01  0.198747E-01  0.187746E-01  0.176036E-01
  0.164234E-01  0.152865E-01  0.142338E-01  0.132936E-01  0.124823E-01  0.118062E-01
  0.112623E-01  0.108402E-01  0.105234E-01  0.102911E-01  0.101205E-01  0.998910E-02
  0.987776E-02  0.977260E-02  0.966558E-02  0.955378E-02  0.943851E-02  0.932503E-02
  0.922301E-02  0.914680E-02  0.911495E-02  0.914881E-02  0.927084E-02  0.950297E-02
  0.986502E-02  0.103730E-01  0.110373E-01  0.118611E-01  0.128385E-01  0.139534E-01
  0.118613E-01  0.128510E-01  0.138988E-01  0.149651E-01  0.160014E-01  0.169533E-01
  0.177661E-01  0.183903E-01  0.187886E-01  0.189391E-01  0.188371E-01  0.184941E-01
  0.179366E-01  0.172035E-01  0.163430E-01  0.154071E-01  0.144456E-01  0.135016E-01
  0.126089E-01  0.117916E-01  0.110655E-01  0.104388E-01  0.991329E-02  0.948403E-02
  0.914106E-02  0.887074E-02  0.865784E-02  0.848739E-02  0.834624E-02  0.822424E-02
  0.811483E-02  0.801506E-02  0.792511E-02  0.784802E-02  0.778981E-02  0.775969E-02
  0.776997E-02  0.783509E-02  0.797040E-02  0.819098E-02  0.851082E-02  0.894185E-02
  0.949259E-02  0.101663E-01  0.109597E-01  0.118613E-01  0.101854E-01  0.109690E-01
  0.117988E-01  0.126458E-01  0.134746E-01  0.142449E-01  0.149154E-01  0.154481E-01
  0.158130E-01  0.159914E-01  0.159762E-01  0.157720E-01  0.153945E-01  0.148693E-01
  0.142304E-01  0.135164E-01  0.127661E-01  0.120135E-01  0.112860E-01  0.106037E-01
  0.998046E-02  0.942495E-02  0.894080E-02  0.852704E-02  0.817871E-02  0.788825E-02
  0.764702E-02  0.744651E-02  0.727903E-02  0.713817E-02  0.701929E-02  0.691982E-02
  0.683944E-02  0.677991E-02  0.674500E-02  0.674051E-02  0.677423E-02  0.685538E-02
  0.699366E-02  0.719843E-02  0.747835E-02  0.784112E-02  0.829274E-02  0.883615E-02
  0.946960E-02  0.101854E-01  0.890786E-02  0.951558E-02  0.101572E-01  0.108123E-01
  0.114562E-01  0.120604E-01  0.125956E-01  0.130340E-01  0.133533E-01  0.135382E-01
  0.135816E-01  0.134842E-01  0.132541E-01  0.129067E-01  0.124638E-01  0.119520E-01
  0.113987E-01  0.108291E-01  0.102641E-01  0.971952E-02  0.920680E-02  0.873364E-02
  0.830444E-02  0.792062E-02  0.758108E-02  0.728313E-02  0.702349E-02  0.679901E-02
  0.660686E-02  0.644445E-02  0.630958E-02  0.620078E-02  0.611773E-02  0.606150E-02
  0.603454E-02  0.604052E-02  0.608411E-02  0.617064E-02  0.630542E-02  0.649330E-02
  0.673845E-02  0.704451E-02  0.741441E-02  0.784970E-02  0.834924E-02  0.890786E-02
  0.800106E-02  0.846233E-02  0.894504E-02  0.943589E-02  0.991878E-02  0.103755E-01
  0.107870E-01  0.111345E-01  0.114024E-01  0.115793E-01  0.116588E-01  0.116397E-01
  0.115256E-01  0.113251E-01  0.110507E-01  0.107187E-01  0.103459E-01  0.994849E-02
  0.954027E-02  0.913208E-02  0.873214E-02  0.834644E-02  0.797928E-02  0.763354E-02
  0.731106E-02  0.701300E-02  0.674038E-02  0.649446E-02  0.627669E-02  0.608841E-02
  0.593045E-02  0.580319E-02  0.570699E-02  0.564276E-02  0.561218E-02  0.561761E-02
  0.566166E-02  0.574674E-02  0.587472E-02  0.604679E-02  0.626344E-02  0.652470E-02
  0.683036E-02  0.717980E-02  0.757130E-02  0.800106E-02  0.743206E-02  0.777461E-02
  0.812613E-02  0.847886E-02  0.882396E-02  0.915172E-02  0.945191E-02  0.971414E-02
  0.992882E-02  0.100882E-01  0.101871E-01  0.102238E-01  0.101995E-01  0.101185E-01
  0.998716E-02  0.981323E-02  0.960464E-02  0.936860E-02  0.911118E-02  0.883731E-02
  0.855098E-02  0.825567E-02  0.795477E-02  0.765187E-02  0.735084E-02  0.705590E-02
  0.677164E-02  0.650314E-02  0.625589E-02  0.603520E-02  0.584550E-02  0.568984E-02
  0.557006E-02  0.548753E-02  0.544366E-02  0.543999E-02  0.547768E-02  0.555693E-02
  0.567678E-02  0.583523E-02  0.602960E-02  0.625683E-02  0.651380E-02  0.679747E-02
  0.710476E-02  0.743206E-02  0.716752E-02  0.741600E-02  0.766138E-02  0.790013E-02
  0.812908E-02  0.834550E-02  0.854675E-02  0.872984E-02  0.889118E-02  0.902694E-02
  0.913389E-02  0.921027E-02  0.925620E-02  0.927337E-02  0.926402E-02  0.922984E-02
  0.917124E-02  0.908727E-02  0.897614E-02  0.883594E-02  0.866532E-02  0.846410E-02
  0.823368E-02  0.797735E-02  0.770016E-02  0.740868E-02  0.711072E-02  0.681512E-02
  0.653147E-02  0.626936E-02  0.603724E-02  0.584152E-02  0.568637E-02  0.557438E-02
  0.550729E-02  0.548626E-02  0.551140E-02  0.558118E-02  0.569216E-02  0.583945E-02
  0.601734E-02  0.621988E-02  0.644128E-02  0.667612E-02  0.691961E-02  0.716752E-02
  0.717771E-02  0.735268E-02  0.751318E-02  0.765887E-02  0.779103E-02  0.791237E-02
  0.802649E-02  0.813692E-02  0.824601E-02  0.835449E-02  0.846184E-02  0.856723E-02
  0.867032E-02  0.877115E-02  0.886908E-02  0.896145E-02  0.904283E-02  0.910529E-02
  0.913947E-02  0.913601E-02  0.908696E-02  0.898682E-02  0.883344E-02  0.862834E-02
  0.837670E-02  0.808690E-02  0.777000E-02  0.743906E-02  0.710842E-02  0.679246E-02
  0.650420E-02  0.625399E-02  0.604913E-02  0.589426E-02  0.579213E-02  0.574401E-02
  0.574933E-02  0.580514E-02  0.590591E-02  0.604400E-02  0.621062E-02  0.639674E-02
  0.659376E-02  0.679382E-02  0.699022E-02  0.717771E-02  0.743808E-02  0.755601E-02
  0.764870E-02  0.771832E-02  0.776970E-02  0.780994E-02  0.784767E-02  0.789193E-02
  0.795076E-02  0.802998E-02  0.813285E-02  0.826059E-02  0.841322E-02  0.858979E-02
  0.878748E-02  0.900033E-02  0.921835E-02  0.942776E-02  0.961214E-02  0.975436E-02
  0.983851E-02  0.985190E-02  0.978657E-02  0.964034E-02  0.941708E-02  0.912638E-02
  0.878270E-02  0.840421E-02  0.801110E-02  0.762369E-02  0.726046E-02  0.693659E-02
  0.666337E-02  0.644839E-02  0.629620E-02  0.620859E-02  0.618459E-02  0.622007E-02
  0.630763E-02  0.643707E-02  0.659645E-02  0.677326E-02  0.695557E-02  0.713269E-02
  0.729571E-02  0.743808E-02  0.839824E-02  0.845413E-02  0.846367E-02  0.843242E-02
  0.836969E-02  0.828744E-02  0.819898E-02  0.811737E-02  0.805392E-02  0.801726E-02
  0.801311E-02  0.804481E-02  0.811388E-02  0.821998E-02  0.836010E-02  0.852757E-02
  0.871176E-02  0.889866E-02  0.907220E-02  0.921570E-02  0.931342E-02  0.935223E-02
  0.932326E-02  0.922336E-02  0.905562E-02  0.882893E-02  0.855683E-02  0.825603E-02
  0.794496E-02  0.764229E-02  0.736539E-02  0.712901E-02  0.694446E-02  0.681935E-02
  0.675773E-02  0.676028E-02  0.682443E-02  0.694422E-02  0.711032E-02  0.731033E-02
  0.752949E-02  0.775201E-02  0.796245E-02  0.814705E-02  0.829480E-02  0.839824E-02
  0.916731E-02  0.918786E-02  0.914789E-02  0.905513E-02  0.892234E-02  0.876586E-02
  0.860389E-02  0.845477E-02  0.833531E-02  0.825953E-02  0.823783E-02  0.827690E-02
  0.837987E-02  0.854633E-02  0.877175E-02  0.904673E-02  0.935671E-02  0.968251E-02
  0.100015E-01  0.102895E-01  0.105221E-01  0.106779E-01  0.107404E-01  0.107006E-01
  0.105586E-01  0.103234E-01  0.100120E-01  0.964693E-02  0.925363E-02  0.885806E-02
  0.848445E-02  0.815385E-02  0.788319E-02  0.768466E-02  0.756535E-02  0.752706E-02
  0.756657E-02  0.767614E-02  0.784396E-02  0.805466E-02  0.828988E-02  0.852945E-02
  0.875324E-02  0.894306E-02  0.908433E-02  0.916731E-02  0.101592E-01  0.101553E-01
  0.100761E-01  0.993084E-02  0.973537E-02  0.951029E-02  0.927871E-02  0.906411E-02
  0.888874E-02  0.877237E-02  0.873119E-02  0.877682E-02  0.891563E-02  0.914815E-02
  0.946873E-02  0.986518E-02  0.103189E-01  0.108054E-01  0.112955E-01  0.117564E-01
  0.121541E-01  0.124564E-01  0.126364E-01  0.126767E-01  0.125723E-01  0.123310E-01
  0.119727E-01  0.115265E-01  0.110263E-01  0.105075E-01  0.100033E-01  0.954308E-02
  0.915113E-02  0.884582E-02  0.863875E-02  0.853410E-02  0.852871E-02  0.861309E-02
  0.877256E-02  0.898826E-02  0.923778E-02  0.949634E-02  0.973868E-02  0.994153E-02
  0.100860E-01  0.101592E-01  0.113501E-01  0.113329E-01  0.112254E-01  0.110372E-01
  0.107868E-01  0.104989E-01  0.102018E-01  0.992454E-02  0.969499E-02  0.953902E-02
  0.947930E-02  0.953361E-02  0.971301E-02  0.100204E-01  0.104498E-01  0.109866E-01
  0.116083E-01  0.122851E-01  0.129805E-01  0.136525E-01  0.142552E-01  0.147428E-01
  0.150751E-01  0.152232E-01  0.151742E-01  0.149331E-01  0.145219E-01  0.139765E-01
  0.133410E-01  0.126627E-01  0.119868E-01  0.113535E-01  0.107967E-01  0.103424E-01
  0.100081E-01  0.980176E-02  0.972172E-02  0.975754E-02  0.989174E-02  0.101014E-01
  0.103592E-01  0.106352E-01  0.108985E-01  0.111202E-01  0.112763E-01  0.113501E-01