 CRYSTAL
 PRIMVEC
    6.031758694    0.000011148   -0.000000000
   -1.332369692    5.674754365   -0.000000000
   -0.000000000   -0.000000000    6.236277338
 PRIMCOORD
           4           1
Si       -0.128547388    1.382545540    2.106795545
Si        3.020453130    2.399263433    0.866854206
Si        0.128560655    3.377967494    4.928870462
Si        3.011311606    0.822754559    3.642534463
BEGIN_BLOCK_DATAGRID_3D
3D_PWSCF
BEGIN_DATAGRID_3D_UNKNOWN
          61          61          61
  0.000000  0.000000  0.000000
    6.031759    0.000011   -0.000000
   -1.332370    5.674754   -0.000000
   -0.000000   -0.000000    6.236277
  0.836832E-03  0.845584E-03  0.852999E-03  0.859369E-03  0.865150E-03  0.870943E-03
  0.877378E-03  0.885004E-03  0.894214E-03  0.905235E-03  0.918151E-03  0.932952E-03
  0.949591E-03  0.968033E-03  0.988242E-03  0.101010E-02  0.103336E-02  0.105763E-02
  0.108246E-02  0.110739E-02  0.113197E-02  0.115571E-02  0.117802E-02  0.119821E-02
  0.121551E-02  0.122904E-02  0.123791E-02  0.124133E-02  0.123870E-02  0.122973E-02
  0.121437E-02  0.119280E-02  0.116544E-02  0.113295E-02  0.109620E-02  0.105628E-02
  0.101438E-02  0.971743E-03  0.929550E-03  0.888869E-03  0.850614E-03  0.815562E-03
  0.784368E-03  0.757579E-03  0.735609E-03  0.718705E-03  0.706913E-03  0.700072E-03
  0.697855E-03  0.699846E-03  0.705588E-03  0.714591E-03  0.726307E-03  0.740109E-03
  0.755282E-03  0.771048E-03  0.786629E-03  0.801349E-03  0.814740E-03  0.826578E-03
  0.836832E-03  0.901911E-03  0.906652E-03  0.909070E-03  0.909603E-03  0.908886E-03
  0.907713E-03  0.906922E-03  0.907288E-03  0.909462E-03  0.913967E-03  0.921206E-03
  0.931461E-03  0.944911E-03  0.961667E-03  0.981784E-03  0.100522E-02  0.103179E-02
  0.106113E-02  0.109274E-02  0.112607E-02  0.116049E-02  0.119522E-02  0.122936E-02
  0.126190E-02  0.129171E-02  0.131759E-02  0.133830E-02  0.135264E-02  0.135960E-02
  0.135850E-02  0.134905E-02  0.133133E-02  0.130580E-02  0.127323E-02  0.123466E-02
  0.119136E-02  0.114475E-02  0.109636E-02  0.104769E-02  0.100017E-02  0.955032E-03
  0.913330E-03  0.875923E-03  0.843506E-03  0.816610E-03  0.795561E-03  0.780450E-03
  0.771125E-03  0.767234E-03  0.768300E-03  0.773769E-03  0.783014E-03  0.795319E-03
  0.809868E-03  0.825771E-03  0.842089E-03  0.857884E-03  0.872306E-03  0.884686E-03
  0.894608E-03  0.901911E-03  0.985585E-03  0.987129E-03  0.985293E-03  0.980666E-03
  0.974078E-03  0.966511E-03  0.958990E-03  0.952514E-03  0.948007E-03  0.946308E-03
  0.948134E-03  0.954049E-03  0.964450E-03  0.979592E-03  0.999636E-03  0.102464E-02
  0.105450E-02  0.108893E-02  0.112747E-02  0.116949E-02  0.121419E-02  0.126056E-02
  0.130738E-02  0.135328E-02  0.139676E-02  0.143626E-02  0.147014E-02  0.149677E-02
  0.151464E-02  0.152260E-02  0.151995E-02  0.150659E-02  0.148295E-02  0.144994E-02
  0.140883E-02  0.136110E-02  0.130844E-02  0.125268E-02  0.119571E-02  0.113938E-02
  0.108535E-02  0.103503E-02  0.989532E-03  0.949746E-03  0.916346E-03  0.889774E-03
  0.870193E-03  0.857465E-03  0.851204E-03  0.850860E-03  0.855779E-03  0.865200E-03
  0.878228E-03  0.893828E-03  0.910876E-03  0.928220E-03  0.944754E-03  0.959480E-03
  0.971561E-03  0.980380E-03  0.985585E-03  0.108754E-02  0.108664E-02  0.108126E-02
  0.107208E-02  0.106013E-02  0.104656E-02  0.103262E-02  0.101954E-02  0.100856E-02
  0.100084E-02  0.997408E-03  0.999090E-03  0.100650E-02  0.102008E-02  0.104013E-02
  0.106685E-02  0.110027E-02  0.114020E-02  0.118622E-02  0.123767E-02  0.129365E-02
  0.135294E-02  0.141403E-02  0.147514E-02  0.153435E-02  0.158963E-02  0.163886E-02
  0.167989E-02  0.171063E-02  0.172935E-02  0.173484E-02  0.172666E-02  0.170516E-02
  0.167135E-02  0.162675E-02  0.157315E-02  0.151259E-02  0.144728E-02  0.137958E-02
  0.131187E-02  0.124634E-02  0.118485E-02  0.112883E-02  0.107940E-02  0.103740E-02
  0.100343E-02  0.977775E-03  0.960344E-03  0.950725E-03  0.948269E-03  0.952179E-03
  0.961529E-03  0.975237E-03  0.992055E-03  0.101061E-02  0.102947E-02  0.104730E-02
  0.106291E-02  0.107531E-02  0.108370E-02  0.108754E-02  0.120743E-02  0.120472E-02
  0.119645E-02  0.118332E-02  0.116647E-02  0.114724E-02  0.112710E-02  0.110758E-02
  0.109026E-02  0.107665E-02  0.106807E-02  0.106558E-02  0.107005E-02  0.108215E-02
  0.110241E-02  0.113122E-02  0.116872E-02  0.121485E-02  0.126927E-02  0.133135E-02
  0.140015E-02  0.147433E-02  0.155209E-02  0.163124E-02  0.170931E-02  0.178362E-02
  0.185145E-02  0.190998E-02  0.195646E-02  0.198844E-02  0.200406E-02  0.200241E-02
  0.198358E-02  0.194867E-02  0.189942E-02  0.183804E-02  0.176702E-02  0.168914E-02
  0.160739E-02  0.152480E-02  0.144425E-02  0.136814E-02  0.129835E-02  0.123629E-02
  0.118300E-02  0.113923E-02  0.110539E-02  0.108148E-02  0.106708E-02  0.106146E-02
  0.106363E-02  0.107243E-02  0.108658E-02  0.110458E-02  0.112484E-02  0.114566E-02
  0.116538E-02  0.118252E-02  0.119583E-02  0.120436E-02  0.120743E-02  0.134495E-02
  0.134096E-02  0.133036E-02  0.131384E-02  0.129255E-02  0.126797E-02  0.124182E-02
  0.121600E-02  0.119247E-02  0.117307E-02  0.115942E-02  0.115283E-02  0.115446E-02
  0.116528E-02  0.118612E-02  0.121759E-02  0.126001E-02  0.131340E-02  0.137754E-02
  0.145194E-02  0.153571E-02  0.162747E-02  0.172521E-02  0.182627E-02  0.192749E-02
  0.202539E-02  0.211639E-02  0.219685E-02  0.226318E-02  0.231205E-02  0.234075E-02
  0.234769E-02  0.233257E-02  0.229639E-02  0.224117E-02  0.216958E-02  0.208479E-02
  0.199035E-02  0.189009E-02  0.178794E-02  0.168757E-02  0.159214E-02  0.150413E-02
  0.142539E-02  0.135724E-02  0.130058E-02  0.125589E-02  0.122319E-02  0.120207E-02
  0.119171E-02  0.119096E-02  0.119842E-02  0.121249E-02  0.123144E-02  0.125341E-02
  0.127646E-02  0.129861E-02  0.131795E-02  0.133287E-02  0.134214E-02  0.134495E-02
  0.149974E-02  0.149499E-02  0.148257E-02  0.146316E-02  0.143789E-02  0.140829E-02
  0.137633E-02  0.134432E-02  0.131466E-02  0.128955E-02  0.127089E-02  0.126030E-02
  0.125924E-02  0.126909E-02  0.129103E-02  0.132595E-02  0.137436E-02  0.143646E-02
  0.151220E-02  0.160127E-02  0.170294E-02  0.181586E-02  0.193784E-02  0.206576E-02
  0.219571E-02  0.232325E-02  0.244370E-02  0.255230E-02  0.264433E-02  0.271531E-02
  0.276140E-02  0.278003E-02  0.277029E-02  0.273294E-02  0.267023E-02  0.258545E-02
  0.248266E-02  0.236649E-02  0.224194E-02  0.211406E-02  0.198759E-02  0.186661E-02
  0.175443E-02  0.165352E-02  0.156565E-02  0.149193E-02  0.143287E-02  0.138839E-02
  0.135797E-02  0.134071E-02  0.133532E-02  0.134015E-02  0.135330E-02  0.137267E-02
  0.139614E-02  0.142150E-02  0.144643E-02  0.146860E-02  0.148587E-02  0.149659E-02
  0.149974E-02  0.167116E-02  0.166629E-02  0.165261E-02  0.163085E-02  0.160207E-02
  0.156783E-02  0.153032E-02  0.149228E-02  0.145655E-02  0.142574E-02  0.140210E-02
  0.138760E-02  0.138408E-02  0.139334E-02  0.141696E-02  0.145622E-02  0.151193E-02
  0.158460E-02  0.167441E-02  0.178130E-02  0.190474E-02  0.204344E-02  0.219506E-02
  0.235609E-02  0.252189E-02  0.268696E-02  0.284531E-02  0.299068E-02  0.311674E-02
  0.321733E-02  0.328707E-02  0.332199E-02  0.332022E-02  0.328216E-02  0.321026E-02
  0.310857E-02  0.298233E-02  0.283765E-02  0.268114E-02  0.251941E-02  0.235862E-02
  0.220404E-02  0.205998E-02  0.192972E-02  0.181563E-02  0.171916E-02  0.164087E-02
  0.158057E-02  0.153750E-02  0.151051E-02  0.149814E-02  0.149852E-02  0.150943E-02
  0.152841E-02  0.155292E-02  0.158041E-02  0.160824E-02  0.163363E-02  0.165392E-02
  0.166689E-02  0.167116E-02  0.185807E-02  0.185394E-02  0.183974E-02  0.181624E-02
  0.178452E-02  0.174616E-02  0.170351E-02  0.165967E-02  0.161798E-02  0.158149E-02
  0.155290E-02  0.153459E-02  0.152889E-02  0.153800E-02  0.156397E-02  0.160853E-02
  0.167301E-02  0.175838E-02  0.186525E-02  0.199388E-02  0.214394E-02  0.231423E-02
  0.250235E-02  0.270446E-02  0.291526E-02  0.312821E-02  0.333574E-02  0.352962E-02
  0.370125E-02  0.384210E-02  0.394443E-02  0.400235E-02  0.401260E-02  0.397497E-02
  0.389209E-02  0.376891E-02  0.361220E-02  0.343005E-02  0.323128E-02  0.302474E-02
  0.281862E-02  0.261986E-02  0.243400E-02  0.226522E-02  0.211652E-02  0.198975E-02
  0.188567E-02  0.180403E-02  0.174380E-02  0.170346E-02  0.168115E-02  0.167469E-02
  0.168154E-02  0.169884E-02  0.172361E-02  0.175281E-02  0.178338E-02  0.181213E-02
  0.183587E-02  0.185182E-02  0.185807E-02  0.205903E-02  0.205663E-02  0.204282E-02
  0.201839E-02  0.198445E-02  0.194263E-02  0.189542E-02  0.184622E-02  0.179878E-02
  0.175671E-02  0.172323E-02  0.170130E-02  0.169376E-02  0.170327E-02  0.173234E-02
  0.178329E-02  0.185815E-02  0.195860E-02  0.208588E-02  0.224069E-02  0.242305E-02
  0.263200E-02  0.286518E-02  0.311857E-02  0.338627E-02  0.366055E-02  0.393203E-02
  0.418993E-02  0.442260E-02  0.461813E-02  0.476557E-02  0.485617E-02  0.488469E-02
  0.484991E-02  0.475455E-02  0.460464E-02  0.440882E-02  0.417769E-02  0.392308E-02
  0.365702E-02  0.339067E-02  0.313343E-02  0.289259E-02  0.267338E-02  0.247937E-02
  0.231272E-02  0.217439E-02  0.206414E-02  0.198077E-02  0.192230E-02  0.188630E-02
  0.187001E-02  0.187042E-02  0.188425E-02  0.190804E-02  0.193822E-02  0.197113E-02
  0.200310E-02  0.203049E-02  0.204994E-02  0.205903E-02  0.227272E-02  0.227304E-02
  0.226069E-02  0.223628E-02  0.220096E-02  0.215647E-02  0.210545E-02  0.205149E-02
  0.199872E-02  0.195129E-02  0.191310E-02  0.188778E-02  0.187877E-02  0.188927E-02
  0.192233E-02  0.198092E-02  0.206798E-02  0.218610E-02  0.233736E-02  0.252316E-02
  0.274414E-02  0.299992E-02  0.328854E-02  0.360596E-02  0.394563E-02  0.429840E-02
  0.465257E-02  0.499421E-02  0.530771E-02  0.557683E-02  0.578617E-02  0.592306E-02
  0.597926E-02  0.595193E-02  0.584362E-02  0.566151E-02  0.541654E-02  0.512249E-02
  0.479508E-02  0.445060E-02  0.410441E-02  0.376952E-02  0.345588E-02  0.317033E-02
  0.291710E-02  0.269849E-02  0.251537E-02  0.236743E-02  0.225326E-02  0.217047E-02
  0.211591E-02  0.208601E-02  0.207700E-02  0.208503E-02  0.210613E-02  0.213614E-02
  0.217077E-02  0.220570E-02  0.223673E-02  0.226006E-02  0.227272E-02  0.249826E-02
  0.250223E-02  0.249244E-02  0.246911E-02  0.243337E-02  0.238709E-02  0.233309E-02
  0.227513E-02  0.221761E-02  0.216520E-02  0.212255E-02  0.209409E-02  0.208396E-02
  0.209599E-02  0.213388E-02  0.220145E-02  0.230266E-02  0.244120E-02  0.262020E-02
  0.284206E-02  0.310852E-02  0.342031E-02  0.377636E-02  0.417292E-02  0.460275E-02
  0.505488E-02  0.551471E-02  0.596432E-02  0.638330E-02  0.674994E-02  0.704314E-02
  0.724486E-02  0.734252E-02  0.733052E-02  0.721064E-02  0.699122E-02  0.668599E-02
  0.631283E-02  0.589244E-02  0.544659E-02  0.499612E-02  0.455901E-02  0.414918E-02
  0.377608E-02  0.344522E-02  0.315907E-02  0.291809E-02  0.272139E-02  0.256707E-02
  0.245218E-02  0.237283E-02  0.232447E-02  0.230234E-02  0.230171E-02  0.231796E-02
  0.234631E-02  0.238178E-02  0.241928E-02  0.245395E-02  0.248143E-02  0.249826E-02
  0.273535E-02  0.274384E-02  0.273770E-02  0.271663E-02  0.268151E-02  0.263438E-02
  0.257828E-02  0.251713E-02  0.245555E-02  0.239867E-02  0.235186E-02  0.232045E-02
  0.230939E-02  0.232328E-02  0.236667E-02  0.244439E-02  0.256158E-02  0.272322E-02
  0.293373E-02  0.319694E-02  0.351621E-02  0.389399E-02  0.433072E-02  0.482330E-02
  0.536392E-02  0.593955E-02  0.653207E-02  0.711876E-02  0.767330E-02  0.816728E-02
  0.857244E-02  0.886365E-02  0.902211E-02  0.903782E-02  0.891065E-02  0.864983E-02
  0.827247E-02  0.780176E-02  0.726492E-02  0.669075E-02  0.610697E-02  0.553790E-02
  0.500277E-02  0.451505E-02  0.408262E-02  0.370871E-02  0.339326E-02  0.313425E-02
  0.292857E-02  0.277225E-02  0.266047E-02  0.258763E-02  0.254778E-02  0.253507E-02
  0.254391E-02  0.256877E-02  0.260395E-02  0.264355E-02  0.268183E-02  0.271376E-02
  0.273535E-02  0.298417E-02  0.299811E-02  0.299679E-02  0.297925E-02  0.294601E-02
  0.289909E-02  0.284180E-02  0.277827E-02  0.271331E-02  0.265244E-02  0.260174E-02
  0.256742E-02  0.255539E-02  0.257116E-02  0.262033E-02  0.270894E-02  0.284349E-02
  0.303044E-02  0.327590E-02  0.358564E-02  0.396523E-02  0.441947E-02  0.495078E-02
  0.555723E-02  0.623076E-02  0.695643E-02  0.771232E-02  0.847015E-02  0.919641E-02
  0.985434E-02  0.104066E-01  0.108190E-01  0.110642E-01  0.111257E-01  0.109997E-01
  0.106955E-01  0.102341E-01  0.964536E-02  0.896515E-02  0.823135E-02  0.748047E-02
  0.674468E-02  0.604992E-02  0.541498E-02  0.485140E-02  0.436418E-02  0.395315E-02
  0.361491E-02  0.334438E-02  0.313571E-02  0.298257E-02  0.287809E-02  0.281504E-02
  0.278619E-02  0.278467E-02  0.280395E-02  0.283748E-02  0.287851E-02  0.292038E-02
  0.295715E-02  0.298417E-02  0.324545E-02  0.326599E-02  0.327087E-02  0.325841E-02
  0.322854E-02  0.318313E-02  0.312564E-02  0.306047E-02  0.299269E-02  0.292815E-02
  0.287359E-02  0.283614E-02  0.282273E-02  0.283999E-02  0.289474E-02  0.299436E-02
  0.314689E-02  0.336054E-02  0.364355E-02  0.400430E-02  0.445124E-02  0.499207E-02
  0.563169E-02  0.636981E-02  0.719879E-02  0.810239E-02  0.905514E-02  0.100226E-01
  0.109627E-01  0.118281E-01  0.125699E-01  0.131424E-01  0.135072E-01  0.136389E-01
  0.135279E-01  0.131824E-01  0.126269E-01  0.118992E-01  0.110460E-01  0.101170E-01
  0.916012E-02  0.821761E-02  0.732382E-02  0.650416E-02  0.577492E-02  0.514380E-02
  0.461134E-02  0.417292E-02  0.382111E-02  0.354731E-02  0.334274E-02  0.319861E-02
  0.310608E-02  0.305640E-02  0.304118E-02  0.305254E-02  0.308289E-02  0.312458E-02
  0.316996E-02  0.321210E-02  0.324545E-02  0.352084E-02  0.354953E-02  0.356235E-02
  0.355683E-02  0.353217E-02  0.348982E-02  0.343325E-02  0.336715E-02  0.329688E-02
  0.322870E-02  0.316995E-02  0.312868E-02  0.311295E-02  0.313070E-02  0.319010E-02
  0.330007E-02  0.347025E-02  0.371086E-02  0.403277E-02  0.444759E-02  0.496745E-02
  0.560351E-02  0.636368E-02  0.724995E-02  0.825602E-02  0.936538E-02  0.105497E-01
  0.117680E-01  0.129682E-01  0.140899E-01  0.150697E-01  0.158470E-01  0.163703E-01
  0.166028E-01  0.165273E-01  0.161487E-01  0.154942E-01  0.146098E-01  0.135545E-01
  0.123924E-01  0.111863E-01  0.999191E-02  0.885460E-02  0.780821E-02  0.687472E-02
  0.606519E-02  0.538134E-02  0.481793E-02  0.436521E-02  0.401132E-02  0.374399E-02
  0.355147E-02  0.342266E-02  0.334701E-02  0.331441E-02  0.331540E-02  0.334107E-02
  0.338270E-02  0.343165E-02  0.347991E-02  0.352084E-02  0.381315E-02  0.385203E-02
  0.387499E-02  0.387866E-02  0.386139E-02  0.382395E-02  0.376963E-02  0.370329E-02
  0.363067E-02  0.355851E-02  0.349478E-02  0.344841E-02  0.342872E-02  0.344508E-02
  0.350727E-02  0.362581E-02  0.381209E-02  0.407853E-02  0.443898E-02  0.490892E-02
  0.550475E-02  0.624180E-02  0.713165E-02  0.817950E-02  0.938157E-02  0.107223E-01
  0.121713E-01  0.136813E-01  0.151884E-01  0.166168E-01  0.178852E-01  0.189153E-01
  0.196397E-01  0.200084E-01  0.199950E-01  0.195996E-01  0.188503E-01  0.177998E-01
  0.165193E-01  0.150892E-01  0.135902E-01  0.120957E-01  0.106662E-01  0.934704E-02
  0.816742E-02  0.714219E-02  0.627442E-02  0.555839E-02  0.498242E-02  0.453125E-02
  0.418844E-02  0.393813E-02  0.376598E-02  0.365902E-02  0.360527E-02  0.359352E-02
  0.361326E-02  0.365447E-02  0.370742E-02  0.376292E-02  0.381315E-02  0.412625E-02
  0.417794E-02  0.421376E-02  0.422931E-02  0.422193E-02  0.419158E-02  0.414104E-02
  0.407522E-02  0.400029E-02  0.392351E-02  0.385352E-02  0.380017E-02  0.377404E-02
  0.378612E-02  0.384795E-02  0.397184E-02  0.417107E-02  0.446040E-02  0.485693E-02
  0.538035E-02  0.605184E-02  0.689146E-02  0.791534E-02  0.913305E-02  0.105448E-01
  0.121373E-01  0.138789E-01  0.157159E-01  0.175719E-01  0.193533E-01  0.209582E-01
  0.222874E-01  0.232551E-01  0.237973E-01  0.238776E-01  0.234905E-01  0.226626E-01
  0.214504E-01  0.199349E-01  0.182122E-01  0.163831E-01  0.145427E-01  0.127718E-01
  0.111317E-01  0.966193E-02  0.838225E-02  0.729697E-02  0.639965E-02  0.567661E-02
  0.510939E-02  0.467711E-02  0.435897E-02  0.413627E-02  0.399284E-02  0.391441E-02
  0.388789E-02  0.390097E-02  0.394203E-02  0.400000E-02  0.406447E-02  0.412625E-02
  0.446455E-02  0.453237E-02  0.458446E-02  0.461517E-02  0.462069E-02  0.459993E-02
  0.455497E-02  0.449057E-02  0.441325E-02  0.433090E-02  0.425289E-02  0.419001E-02
  0.415412E-02  0.415792E-02  0.421485E-02  0.433918E-02  0.454624E-02  0.485327E-02
  0.528076E-02  0.585275E-02  0.659540E-02  0.753399E-02  0.868998E-02  0.100786E-01
  0.117055E-01  0.135612E-01  0.156137E-01  0.178027E-01  0.200388E-01  0.222091E-01
  0.241888E-01  0.258553E-01  0.271028E-01  0.278529E-01  0.280601E-01  0.277137E-01
  0.268369E-01  0.254855E-01  0.237452E-01  0.217242E-01  0.195431E-01  0.173218E-01
  0.151664E-01  0.131598E-01  0.113566E-01  0.978400E-02  0.844827E-02  0.734170E-02
  0.644814E-02  0.574583E-02  0.520950E-02  0.481311E-02  0.453274E-02  0.434808E-02
  0.424199E-02  0.419924E-02  0.420557E-02  0.424751E-02  0.431235E-02  0.438823E-02
  0.446455E-02  0.483235E-02  0.492060E-02  0.499339E-02  0.504348E-02  0.506567E-02
  0.505761E-02  0.502043E-02  0.495849E-02  0.487858E-02  0.478930E-02  0.470087E-02
  0.462510E-02  0.457517E-02  0.456551E-02  0.461157E-02  0.472971E-02  0.493739E-02
  0.525443E-02  0.570467E-02  0.631647E-02  0.712101E-02  0.814896E-02  0.942774E-02
  0.109793E-01  0.128161E-01  0.149340E-01  0.173016E-01  0.198526E-01  0.224840E-01
  0.250627E-01  0.274395E-01  0.294668E-01  0.310178E-01  0.320007E-01  0.323642E-01
  0.320944E-01  0.312106E-01  0.297626E-01  0.278326E-01  0.255338E-01  0.230031E-01
  0.203858E-01  0.178177E-01  0.154091E-01  0.132350E-01  0.113347E-01  0.971833E-02
  0.837717E-02  0.729186E-02  0.643689E-02  0.578266E-02  0.529793E-02  0.495322E-02
  0.472326E-02  0.458731E-02  0.452762E-02  0.452785E-02  0.457248E-02  0.464689E-02
  0.473758E-02  0.483235E-02  0.523343E-02  0.534777E-02  0.544710E-02  0.552221E-02
  0.556609E-02  0.557481E-02  0.554823E-02  0.549009E-02  0.540730E-02  0.530923E-02
  0.520714E-02  0.511403E-02  0.504452E-02  0.501485E-02  0.504255E-02  0.514611E-02
  0.534519E-02  0.566205E-02  0.612369E-02  0.676255E-02  0.761460E-02  0.871595E-02
  0.101002E-01  0.117965E-01  0.138256E-01  0.161896E-01  0.188592E-01  0.217631E-01
  0.247853E-01  0.277720E-01  0.305481E-01  0.329400E-01  0.347998E-01  0.360252E-01
  0.365635E-01  0.364032E-01  0.355610E-01  0.340762E-01  0.320176E-01  0.294921E-01
  0.266449E-01  0.236447E-01  0.206591E-01  0.178307E-01  0.152611E-01  0.130067E-01
  0.110857E-01  0.948944E-02  0.819536E-02  0.717353E-02  0.638987E-02  0.580823E-02
  0.539359E-02  0.511530E-02  0.494832E-02  0.487189E-02  0.486742E-02  0.491735E-02
  0.500501E-02  0.511502E-02  0.523343E-02  0.567074E-02  0.581847E-02  0.595195E-02
  0.605949E-02  0.613174E-02  0.616271E-02  0.615061E-02  0.609823E-02  0.601242E-02
  0.590331E-02  0.578343E-02  0.566726E-02  0.557113E-02  0.551321E-02  0.551326E-02
  0.559201E-02  0.577124E-02  0.607541E-02  0.653423E-02  0.718368E-02  0.806408E-02
  0.921664E-02  0.106810E-01  0.124937E-01  0.146839E-01  0.172615E-01  0.202010E-01
  0.234281E-01  0.268150E-01  0.301879E-01  0.333454E-01  0.360861E-01  0.382419E-01
  0.397023E-01  0.404194E-01  0.403912E-01  0.396364E-01  0.381823E-01  0.360750E-01
  0.334016E-01  0.303034E-01  0.269656E-01  0.235869E-01  0.203457E-01  0.173753E-01
  0.147550E-01  0.125154E-01  0.106514E-01  0.913782E-02  0.794015E-02  0.701960E-02
  0.633532E-02  0.584714E-02  0.551899E-02  0.532109E-02  0.522921E-02  0.522244E-02
  0.528121E-02  0.538687E-02  0.552202E-02  0.567074E-02  0.614600E-02  0.633615E-02
  0.651318E-02  0.666244E-02  0.677162E-02  0.683202E-02  0.683973E-02  0.679613E-02
  0.670773E-02  0.658537E-02  0.644302E-02  0.629700E-02  0.616565E-02  0.606941E-02
  0.603051E-02  0.607209E-02  0.621809E-02  0.649486E-02  0.693417E-02  0.757467E-02
  0.846026E-02  0.963654E-02  0.111486E-01  0.130398E-01  0.153474E-01  0.180899E-01
  0.212479E-01  0.247471E-01  0.284513E-01  0.321688E-01  0.356724E-01  0.387329E-01
  0.411605E-01  0.428379E-01  0.437262E-01  0.438394E-01  0.432055E-01  0.418426E-01
  0.397697E-01  0.370423E-01  0.337831E-01  0.301824E-01  0.264653E-01  0.228463E-01
  0.194940E-01  0.165154E-01  0.139584E-01  0.118251E-01  0.100900E-01  0.871451E-02
  0.765510E-02  0.686656E-02  0.630407E-02  0.592655E-02  0.569940E-02  0.559474E-02
  0.558924E-02  0.566154E-02  0.579117E-02  0.595869E-02  0.614600E-02  0.665880E-02
  0.690193E-02  0.713354E-02  0.733554E-02  0.749200E-02  0.759085E-02  0.762535E-02
  0.759500E-02  0.750556E-02  0.736835E-02  0.719892E-02  0.701568E-02  0.683941E-02
  0.669321E-02  0.660212E-02  0.659203E-02  0.668921E-02  0.692172E-02  0.732267E-02
  0.793235E-02  0.879705E-02  0.996571E-02  0.114876E-01  0.134118E-01  0.157829E-01
  0.186278E-01  0.219354E-01  0.256356E-01  0.295892E-01  0.335918E-01  0.373939E-01
  0.407391E-01  0.434145E-01  0.452931E-01  0.463439E-01  0.465995E-01  0.461035E-01
  0.448721E-01  0.429003E-01  0.402070E-01  0.368843E-01  0.331143E-01  0.291385E-01
  0.252036E-01  0.215141E-01  0.182075E-01  0.153527E-01  0.129630E-01  0.110153E-01
  0.946853E-02  0.827501E-02  0.738559E-02  0.675158E-02  0.632760E-02  0.607467E-02
  0.596139E-02  0.596207E-02  0.605385E-02  0.621469E-02  0.642318E-02  0.665880E-02
  0.720535E-02  0.751319E-02  0.781166E-02  0.807880E-02  0.829449E-02  0.844253E-02
  0.851262E-02  0.850165E-02  0.841417E-02  0.826168E-02  0.806120E-02  0.783353E-02
  0.760226E-02  0.739356E-02  0.723568E-02  0.715773E-02  0.718860E-02  0.735808E-02
  0.770008E-02  0.825543E-02  0.907149E-02  0.101990E-01  0.116900E-01  0.135972E-01
  0.159706E-01  0.188456E-01  0.222204E-01  0.260339E-01  0.301509E-01  0.343625E-01
  0.384047E-01  0.419980E-01  0.449048E-01  0.469820E-01  0.481980E-01  0.485995E-01
  0.482469E-01  0.471631E-01  0.453293E-01  0.427329E-01  0.394318E-01  0.355882E-01
  0.314475E-01  0.272799E-01  0.233216E-01  0.197400E-01  0.166272E-01  0.140103E-01
  0.118717E-01  0.101698E-01  0.885438E-02  0.787306E-02  0.717432E-02  0.670952E-02
  0.643617E-02  0.631983E-02  0.633286E-02  0.645117E-02  0.665151E-02  0.691058E-02
  0.720535E-02  0.777715E-02  0.816204E-02  0.854042E-02  0.888613E-02  0.917430E-02
  0.938385E-02  0.950005E-02  0.951642E-02  0.943559E-02  0.926885E-02  0.903457E-02
  0.875606E-02  0.846009E-02  0.817635E-02  0.793674E-02  0.777398E-02  0.772003E-02
  0.780655E-02  0.806796E-02  0.854475E-02  0.928394E-02  0.103366E-01  0.117555E-01
  0.135947E-01  0.159075E-01  0.187355E-01  0.220876E-01  0.259152E-01  0.300947E-01
  0.344236E-01  0.386346E-01  0.424336E-01  0.455600E-01  0.478467E-01  0.492478E-01
  0.498104E-01  0.496064E-01  0.486700E-01  0.469821E-01  0.445127E-01  0.412920E-01
  0.374579E-01  0.332481E-01  0.289436E-01  0.248031E-01  0.210198E-01  0.177077E-01
  0.149091E-01  0.126142E-01  0.107836E-01  0.936608E-02  0.830762E-02  0.755507E-02
  0.705790E-02  0.677132E-02  0.665872E-02  0.669110E-02  0.684363E-02  0.709221E-02
  0.741192E-02  0.777715E-02  0.836013E-02  0.883427E-02  0.930578E-02  0.974394E-02
  0.101187E-01  0.104034E-01  0.105779E-01  0.106314E-01  0.105638E-01  0.103857E-01
  0.101165E-01  0.978209E-02  0.941287E-02  0.904245E-02  0.870687E-02  0.844285E-02
  0.828580E-02  0.826954E-02  0.842889E-02  0.880333E-02  0.943844E-02  0.103840E-01
  0.116919E-01  0.134150E-01  0.156070E-01  0.183132E-01  0.215523E-01  0.252908E-01
  0.294230E-01  0.337632E-01  0.380545E-01  0.420013E-01  0.453259E-01  0.478332E-01
  0.494482E-01  0.501997E-01  0.501580E-01  0.493670E-01  0.478180E-01  0.454813E-01
  0.423741E-01  0.386142E-01  0.344241E-01  0.300824E-01  0.258579E-01  0.219613E-01
  0.185241E-01  0.156035E-01  0.131989E-01  0.112753E-01  0.978264E-02  0.866718E-02
  0.787569E-02  0.735726E-02  0.706623E-02  0.696501E-02  0.702401E-02  0.721832E-02
  0.752354E-02  0.791349E-02  0.836013E-02  0.893455E-02  0.950895E-02  0.100860E-01
  0.106301E-01  0.111058E-01  0.114801E-01  0.117264E-01  0.118286E-01  0.117829E-01
  0.115984E-01  0.112954E-01  0.109023E-01  0.104532E-01  0.998627E-02  0.954219E-02
  0.916215E-02  0.888533E-02  0.874801E-02  0.878548E-02  0.903582E-02  0.954221E-02
  0.103520E-01  0.115144E-01  0.130795E-01  0.150979E-01  0.176159E-01  0.206592E-01
  0.242096E-01  0.281835E-01  0.324203E-01  0.366860E-01  0.406977E-01  0.441726E-01
  0.468899E-01  0.487365E-01  0.497058E-01  0.498486E-01  0.492104E-01  0.477969E-01
  0.455935E-01  0.426206E-01  0.389862E-01  0.348956E-01  0.306146E-01  0.264091E-01
  0.224959E-01  0.190185E-01  0.160459E-01  0.135872E-01  0.116136E-01  0.100787E-01
  0.893076E-02  0.811842E-02  0.759199E-02  0.730648E-02  0.722458E-02  0.731712E-02
  0.755983E-02  0.792872E-02  0.839698E-02  0.893455E-02  0.947577E-02  0.101590E-01
  0.108518E-01  0.115138E-01  0.121037E-01  0.125817E-01  0.129141E-01  0.130781E-01
  0.130651E-01  0.128821E-01  0.125494E-01  0.120976E-01  0.115650E-01  0.109945E-01
  0.104321E-01  0.992405E-02  0.951365E-02  0.923992E-02  0.913882E-02  0.924684E-02
  0.960413E-02  0.102546E-01  0.112437E-01  0.126169E-01  0.144201E-01  0.166965E-01
  0.194755E-01  0.227522E-01  0.264658E-01  0.304851E-01  0.346077E-01  0.385766E-01
  0.421179E-01  0.449954E-01  0.470585E-01  0.482556E-01  0.486036E-01  0.481363E-01
  0.468708E-01  0.448137E-01  0.420010E-01  0.385408E-01  0.346240E-01  0.304969E-01
  0.264117E-01  0.225810E-01  0.191522E-01  0.162026E-01  0.137505E-01  0.117745E-01
  0.102337E-01  0.908073E-02  0.826768E-02  0.774777E-02  0.747819E-02  0.742323E-02
  0.755515E-02  0.785118E-02  0.828850E-02  0.884050E-02  0.947577E-02  0.995595E-02
  0.107525E-01  0.115677E-01  0.123563E-01  0.130710E-01  0.136651E-01  0.140973E-01
  0.143369E-01  0.143696E-01  0.141986E-01  0.138438E-01  0.133376E-01  0.127218E-01
  0.120448E-01  0.113583E-01  0.107140E-01  0.101601E-01  0.973870E-02  0.948669E-02
  0.943905E-02  0.963247E-02  0.101066E-01  0.109022E-01  0.120596E-01  0.136184E-01
  0.156160E-01  0.180815E-01  0.210193E-01  0.243889E-01  0.280894E-01  0.319538E-01
  0.357589E-01  0.392529E-01  0.421988E-01  0.444193E-01  0.458196E-01  0.463755E-01
  0.460989E-01  0.450088E-01  0.431301E-01  0.405182E-01  0.372868E-01  0.336158E-01
  0.297295E-01  0.258592E-01  0.222048E-01  0.189108E-01  0.160587E-01  0.136742E-01
  0.117442E-01  0.102348E-01  0.910507E-02  0.831197E-02  0.781318E-02  0.756947E-02
  0.754797E-02  0.772340E-02  0.807523E-02  0.858264E-02  0.922015E-02  0.995595E-02
  0.103463E-01  0.112554E-01  0.121944E-01  0.131132E-01  0.139589E-01  0.146781E-01
  0.152214E-01  0.155499E-01  0.156420E-01  0.154964E-01  0.151310E-01  0.145793E-01
  0.138861E-01  0.131049E-01  0.122937E-01  0.115102E-01  0.108079E-01  0.102326E-01
  0.982257E-02  0.961165E-02  0.963293E-02  0.992111E-02  0.105119E-01  0.114398E-01
  0.127377E-01  0.144361E-01  0.165602E-01  0.191186E-01  0.220869E-01  0.253912E-01
  0.288995E-01  0.324258E-01  0.357490E-01  0.386453E-01  0.409267E-01  0.424675E-01
  0.432061E-01  0.431272E-01  0.422423E-01  0.405854E-01  0.382262E-01  0.352835E-01
  0.319266E-01  0.283582E-01  0.247850E-01  0.213892E-01  0.183068E-01  0.156197E-01
  0.133594E-01  0.115209E-01  0.100786E-01  0.899890E-02  0.824532E-02  0.778110E-02
  0.757178E-02  0.758847E-02  0.780917E-02  0.821634E-02  0.879184E-02  0.951222E-02
  0.103463E-01  0.106201E-01  0.116347E-01  0.126922E-01  0.137385E-01  0.147154E-01
  0.155632E-01  0.162249E-01  0.166530E-01  0.168180E-01  0.167124E-01  0.163513E-01
  0.157678E-01  0.150090E-01  0.141328E-01  0.132029E-01  0.122837E-01  0.114344E-01
  0.107048E-01  0.101356E-01  0.975996E-02  0.960765E-02  0.970821E-02  0.100916E-01
  0.107866E-01  0.118194E-01  0.132137E-01  0.149885E-01  0.171526E-01  0.196915E-01
  0.225532E-01  0.256372E-01  0.287939E-01  0.318366E-01  0.345649E-01  0.367959E-01
  0.383894E-01  0.392579E-01  0.393617E-01  0.386987E-01  0.373020E-01  0.352449E-01
  0.326454E-01  0.296608E-01  0.264716E-01  0.232598E-01  0.201872E-01  0.173782E-01
  0.149117E-01  0.128231E-01  0.111151E-01  0.977094E-02  0.876497E-02  0.806798E-02
  0.764959E-02  0.748101E-02  0.753821E-02  0.780323E-02  0.826202E-02  0.889967E-02
  0.969548E-02  0.106201E-01  0.107549E-01  0.118615E-01  0.130250E-01  0.141887E-01
  0.152900E-01  0.162634E-01  0.170450E-01  0.175793E-01  0.178281E-01  0.177773E-01
  0.174373E-01  0.168399E-01  0.160331E-01  0.150778E-01  0.140431E-01  0.129993E-01
  0.120115E-01  0.111344E-01  0.104114E-01  0.987587E-02  0.955515E-02  0.947385E-02
  0.965584E-02  0.101240E-01  0.108986E-01  0.119968E-01  0.134317E-01  0.152089E-01
  0.173186E-01  0.197239E-01  0.223504E-01  0.250817E-01  0.277656E-01  0.302307E-01
  0.323104E-01  0.338649E-01  0.347954E-01  0.350455E-01  0.345991E-01  0.334804E-01
  0.317567E-01  0.295371E-01  0.269630E-01  0.241927E-01  0.213838E-01  0.186771E-01
  0.161835E-01  0.139771E-01  0.120955E-01  0.105481E-01  0.932648E-02  0.841315E-02
  0.778621E-02  0.742200E-02  0.729789E-02  0.739529E-02  0.770080E-02  0.820426E-02
  0.889424E-02  0.975336E-02  0.107549E-01  0.107357E-01  0.119144E-01  0.131645E-01
  0.144281E-01  0.156392E-01  0.167278E-01  0.176242E-01  0.182655E-01  0.186054E-01
  0.186220E-01  0.183204E-01  0.177295E-01  0.168968E-01  0.158850E-01  0.147666E-01
  0.136174E-01  0.125078E-01  0.114974E-01  0.106329E-01  0.994875E-02  0.947100E-02
  0.922017E-02  0.921437E-02  0.947031E-02  0.100028E-01  0.108235E-01  0.119403E-01
  0.133548E-01  0.150580E-01  0.170221E-01  0.191921E-01  0.214795E-01  0.237647E-01
  0.259067E-01  0.277616E-01  0.292011E-01  0.301265E-01  0.304741E-01  0.302171E-01
  0.293684E-01  0.279825E-01  0.261530E-01  0.240019E-01  0.216644E-01  0.192746E-01
  0.169525E-01  0.147952E-01  0.128704E-01  0.112169E-01  0.984938E-02  0.876689E-02
  0.795931E-02  0.741160E-02  0.710661E-02  0.702793E-02  0.716264E-02  0.750219E-02