 CRYSTAL
 PRIMVEC
    5.318644366    0.000009830   -0.000000000
   -1.174848152    5.003847445   -0.000000000
   -0.000000000   -0.000000000    5.498983466
 PRIMCOORD
           4           1
Si       -0.113349667    1.219091880    1.857716269
Si        2.663355223    2.115606673    0.764368980
Si        0.113361366    2.978601879    4.346146861
Si        2.655294470    0.725483084    3.211889994
BEGIN_BLOCK_DATAGRID_3D
3D_PWSCF
BEGIN_DATAGRID_3D_UNKNOWN
          51          49          55
  0.000000  0.000000  0.000000
    5.318644    0.000010   -0.000000
   -1.174848    5.003847   -0.000000
   -0.000000   -0.000000    5.498983
  0.203334E-02  0.205795E-02  0.207825E-02  0.209501E-02  0.210951E-02  0.212356E-02
  0.213911E-02  0.215770E-02  0.218033E-02  0.220756E-02  0.223989E-02  0.227781E-02
  0.232167E-02  0.237136E-02  0.242609E-02  0.248451E-02  0.254499E-02  0.260585E-02
  0.266519E-02  0.272058E-02  0.276876E-02  0.280596E-02  0.282866E-02  0.283427E-02
  0.282128E-02  0.278908E-02  0.273774E-02  0.266816E-02  0.258242E-02  0.248391E-02
  0.237712E-02  0.226701E-02  0.215831E-02  0.205511E-02  0.196074E-02  0.187803E-02
  0.180944E-02  0.175691E-02  0.172138E-02  0.170261E-02  0.169927E-02  0.170953E-02
  0.173137E-02  0.176271E-02  0.180118E-02  0.184399E-02  0.188812E-02  0.193073E-02
  0.196972E-02  0.200401E-02  0.203334E-02  0.220011E-02  0.221285E-02  0.221797E-02
  0.221671E-02  0.221111E-02  0.220381E-02  0.219779E-02  0.219579E-02  0.220012E-02
  0.221264E-02  0.223493E-02  0.226832E-02  0.231372E-02  0.237141E-02  0.244082E-02
  0.252051E-02  0.260830E-02  0.270154E-02  0.279711E-02  0.289125E-02  0.297929E-02
  0.305582E-02  0.311544E-02  0.315360E-02  0.316716E-02  0.315441E-02  0.311493E-02
  0.304959E-02  0.296074E-02  0.285239E-02  0.272999E-02  0.259990E-02  0.246856E-02
  0.234181E-02  0.222454E-02  0.212071E-02  0.203348E-02  0.196511E-02  0.191676E-02
  0.188833E-02  0.187857E-02  0.188546E-02  0.190653E-02  0.193896E-02  0.197954E-02
  0.202460E-02  0.207029E-02  0.211297E-02  0.214983E-02  0.217912E-02  0.220011E-02
  0.242307E-02  0.242701E-02  0.241972E-02  0.240293E-02  0.237940E-02  0.235265E-02
  0.232661E-02  0.230524E-02  0.229221E-02  0.229074E-02  0.230353E-02  0.233272E-02
  0.237985E-02  0.244567E-02  0.253002E-02  0.263170E-02  0.274837E-02  0.287663E-02
  0.301212E-02  0.314951E-02  0.328243E-02  0.340371E-02  0.350596E-02  0.358239E-02
  0.362763E-02  0.363818E-02  0.361258E-02  0.355150E-02  0.345764E-02  0.333581E-02
  0.319266E-02  0.303619E-02  0.287485E-02  0.271665E-02  0.256849E-02  0.243588E-02
  0.232298E-02  0.223259E-02  0.216612E-02  0.212362E-02  0.210390E-02  0.210484E-02
  0.212362E-02  0.215670E-02  0.219989E-02  0.224846E-02  0.229750E-02  0.234253E-02
  0.237993E-02  0.240725E-02  0.242307E-02  0.269947E-02  0.269718E-02  0.267984E-02
  0.264955E-02  0.260982E-02  0.256505E-02  0.252017E-02  0.248036E-02  0.245067E-02
  0.243570E-02  0.243937E-02  0.246482E-02  0.251438E-02  0.258946E-02  0.269047E-02
  0.281662E-02  0.296570E-02  0.313386E-02  0.331557E-02  0.350372E-02  0.368994E-02
  0.386493E-02  0.401900E-02  0.414274E-02  0.422787E-02  0.426818E-02  0.426033E-02
  0.420426E-02  0.410309E-02  0.396279E-02  0.379177E-02  0.360025E-02  0.339920E-02
  0.319925E-02  0.300967E-02  0.283791E-02  0.268953E-02  0.256825E-02  0.247606E-02
  0.241325E-02  0.237866E-02  0.236996E-02  0.238382E-02  0.241604E-02  0.246148E-02
  0.251427E-02  0.256825E-02  0.261777E-02  0.265820E-02  0.268616E-02  0.269947E-02
  0.302611E-02  0.301985E-02  0.299456E-02  0.295264E-02  0.289824E-02  0.283669E-02
  0.277403E-02  0.271667E-02  0.267102E-02  0.264308E-02  0.263813E-02  0.266056E-02
  0.271382E-02  0.280023E-02  0.292093E-02  0.307566E-02  0.326255E-02  0.347765E-02
  0.371459E-02  0.396457E-02  0.421680E-02  0.445927E-02  0.467930E-02  0.486413E-02
  0.500167E-02  0.508192E-02  0.509851E-02  0.504981E-02  0.493909E-02  0.477393E-02
  0.456532E-02  0.432664E-02  0.407230E-02  0.381629E-02  0.357087E-02  0.334595E-02
  0.314888E-02  0.298471E-02  0.285628E-02  0.276442E-02  0.270801E-02  0.268434E-02
  0.268935E-02  0.271793E-02  0.276400E-02  0.282061E-02  0.288039E-02  0.293621E-02
  0.298196E-02  0.301298E-02  0.302611E-02  0.339893E-02  0.339098E-02  0.335998E-02
  0.330845E-02  0.324101E-02  0.316390E-02  0.308442E-02  0.301037E-02  0.294952E-02
  0.290930E-02  0.289646E-02  0.291698E-02  0.297580E-02  0.307649E-02  0.322110E-02
  0.341010E-02  0.364222E-02  0.391391E-02  0.421847E-02  0.454564E-02  0.488195E-02
  0.521176E-02  0.551822E-02  0.578395E-02  0.599188E-02  0.612694E-02  0.617842E-02
  0.614206E-02  0.602072E-02  0.582373E-02  0.556543E-02  0.526348E-02  0.493699E-02
  0.460462E-02  0.428291E-02  0.398524E-02  0.372153E-02  0.349845E-02  0.331987E-02
  0.318713E-02  0.309920E-02  0.305287E-02  0.304317E-02  0.306378E-02  0.310744E-02
  0.316614E-02  0.323132E-02  0.329435E-02  0.334729E-02  0.338364E-02  0.339893E-02
  0.381306E-02  0.380598E-02  0.377186E-02  0.371317E-02  0.363474E-02  0.354356E-02
  0.344829E-02  0.335835E-02  0.328308E-02  0.323141E-02  0.321174E-02  0.323188E-02
  0.329862E-02  0.341715E-02  0.359086E-02  0.382137E-02  0.410855E-02  0.444973E-02
  0.483841E-02  0.526313E-02  0.570746E-02  0.615117E-02  0.657170E-02  0.694531E-02
  0.724817E-02  0.745856E-02  0.756004E-02  0.754453E-02  0.741375E-02  0.717857E-02
  0.685709E-02  0.647221E-02  0.604920E-02  0.561322E-02  0.518702E-02  0.478934E-02
  0.443406E-02  0.413028E-02  0.388295E-02  0.369367E-02  0.356116E-02  0.348155E-02
  0.344876E-02  0.345509E-02  0.349179E-02  0.354950E-02  0.361842E-02  0.368843E-02
  0.374960E-02  0.379322E-02  0.381306E-02  0.426363E-02  0.426015E-02  0.422582E-02
  0.416285E-02  0.407601E-02  0.397275E-02  0.386302E-02  0.375809E-02  0.366923E-02
  0.360712E-02  0.358202E-02  0.360373E-02  0.368110E-02  0.382140E-02  0.403002E-02
  0.431065E-02  0.466508E-02  0.509213E-02  0.558579E-02  0.613348E-02  0.671554E-02
  0.730639E-02  0.787625E-02  0.839291E-02  0.882347E-02  0.913723E-02  0.931004E-02
  0.932857E-02  0.919248E-02  0.891387E-02  0.851477E-02  0.802421E-02  0.747517E-02
  0.690146E-02  0.633458E-02  0.580106E-02  0.532076E-02  0.490658E-02  0.456519E-02
  0.429837E-02  0.410407E-02  0.397717E-02  0.391012E-02  0.389353E-02  0.391694E-02
  0.396933E-02  0.403932E-02  0.411509E-02  0.418466E-02  0.423697E-02  0.426363E-02
  0.474683E-02  0.474975E-02  0.471827E-02  0.465409E-02  0.456173E-02  0.444884E-02
  0.432643E-02  0.420765E-02  0.410607E-02  0.403463E-02  0.400569E-02  0.403115E-02
  0.412209E-02  0.428826E-02  0.453803E-02  0.487832E-02  0.531395E-02  0.584589E-02
  0.646889E-02  0.716928E-02  0.792414E-02  0.870200E-02  0.946463E-02  0.101692E-01
  0.107708E-01  0.112263E-01  0.115009E-01  0.115733E-01  0.114401E-01  0.111140E-01
  0.106214E-01  0.999869E-02  0.928845E-02  0.853591E-02  0.778432E-02  0.707073E-02
  0.642324E-02  0.586020E-02  0.539118E-02  0.501870E-02  0.473982E-02  0.454754E-02
  0.443195E-02  0.438137E-02  0.438323E-02  0.442454E-02  0.449194E-02  0.457160E-02
  0.464922E-02  0.471123E-02  0.474683E-02  0.526050E-02  0.527282E-02  0.524744E-02
  0.518527E-02  0.509044E-02  0.497067E-02  0.483771E-02  0.470646E-02  0.459301E-02
  0.451307E-02  0.448155E-02  0.451266E-02  0.461987E-02  0.481597E-02  0.511322E-02
  0.552306E-02  0.605448E-02  0.671144E-02  0.748997E-02  0.837582E-02  0.934315E-02
  0.103545E-01  0.113622E-01  0.123102E-01  0.131382E-01  0.137867E-01  0.142053E-01
  0.143614E-01  0.142455E-01  0.138704E-01  0.132675E-01  0.124821E-01  0.115691E-01
  0.105887E-01  0.959962E-02  0.865307E-02  0.778774E-02  0.702900E-02  0.639045E-02
  0.587628E-02  0.548324E-02  0.520225E-02  0.502022E-02  0.492201E-02  0.489206E-02
  0.491493E-02  0.497501E-02  0.505606E-02  0.514110E-02  0.521375E-02  0.526050E-02
  0.580398E-02  0.582919E-02  0.581377E-02  0.575728E-02  0.566335E-02  0.553971E-02
  0.539866E-02  0.525655E-02  0.513198E-02  0.504379E-02  0.500998E-02  0.504748E-02
  0.517259E-02  0.540178E-02  0.575219E-02  0.624083E-02  0.688189E-02  0.768329E-02
  0.864342E-02  0.974870E-02  0.109715E-01  0.122686E-01  0.135812E-01  0.148377E-01
  0.159582E-01  0.168623E-01  0.174795E-01  0.177607E-01  0.176863E-01  0.172673E-01
  0.165402E-01  0.155608E-01  0.143995E-01  0.131350E-01  0.118467E-01  0.106045E-01
  0.946150E-02  0.845211E-02  0.759472E-02  0.689568E-02  0.635206E-02  0.595318E-02
  0.568243E-02  0.552011E-02  0.544621E-02  0.544183E-02  0.548865E-02  0.556776E-02
  0.565926E-02  0.574356E-02  0.580398E-02  0.637799E-02  0.642025E-02  0.641953E-02
  0.637337E-02  0.628447E-02  0.616046E-02  0.601412E-02  0.586298E-02  0.572790E-02
  0.563103E-02  0.559390E-02  0.563674E-02  0.577936E-02  0.604277E-02  0.644994E-02
  0.702432E-02  0.778625E-02  0.874872E-02  0.991417E-02  0.112717E-01  0.127935E-01
  0.144308E-01  0.161122E-01  0.177465E-01  0.192303E-01  0.204581E-01  0.213355E-01
  0.217927E-01  0.217957E-01  0.213498E-01  0.204950E-01  0.192983E-01  0.178472E-01
  0.162423E-01  0.145880E-01  0.129791E-01  0.114891E-01  0.101655E-01  0.903306E-02
  0.810036E-02  0.736448E-02  0.681340E-02  0.642725E-02  0.618123E-02  0.604948E-02
  0.600796E-02  0.603465E-02  0.610771E-02  0.620419E-02  0.630104E-02  0.637799E-02
  0.698553E-02  0.704976E-02  0.706954E-02  0.703955E-02  0.696085E-02  0.684063E-02
  0.669201E-02  0.653356E-02  0.638823E-02  0.628141E-02  0.623847E-02  0.628357E-02
  0.644080E-02  0.673651E-02  0.720035E-02  0.786301E-02  0.875187E-02  0.988652E-02
  0.112756E-01  0.129132E-01  0.147731E-01  0.168012E-01  0.189111E-01  0.209882E-01
  0.229009E-01  0.245154E-01  0.257117E-01  0.263980E-01  0.265232E-01  0.260828E-01
  0.251164E-01  0.236992E-01  0.219346E-01  0.199457E-01  0.178650E-01  0.158178E-01
  0.139058E-01  0.121971E-01  0.107272E-01  0.950769E-02  0.853479E-02  0.779423E-02
  0.726290E-02  0.691091E-02  0.670574E-02  0.661658E-02  0.661608E-02  0.667873E-02
  0.677849E-02  0.688883E-02  0.698553E-02  0.763371E-02  0.772595E-02  0.777328E-02
  0.776659E-02  0.770429E-02  0.759248E-02  0.744441E-02  0.727968E-02  0.712324E-02
  0.700370E-02  0.695053E-02  0.699238E-02  0.715829E-02  0.748062E-02  0.799616E-02
  0.874340E-02  0.975764E-02  0.110668E-01  0.126880E-01  0.146231E-01  0.168487E-01
  0.193054E-01  0.218898E-01  0.244597E-01  0.268502E-01  0.288960E-01  0.304521E-01
  0.314086E-01  0.317008E-01  0.313131E-01  0.302783E-01  0.286715E-01  0.266042E-01
  0.242177E-01  0.216726E-01  0.191292E-01  0.167256E-01  0.145601E-01  0.126870E-01
  0.111250E-01  0.986922E-02  0.890160E-02  0.819457E-02  0.771308E-02  0.741787E-02
  0.727037E-02  0.723628E-02  0.728514E-02  0.738739E-02  0.751305E-02  0.763371E-02
  0.833459E-02  0.846288E-02  0.854662E-02  0.857182E-02  0.853319E-02  0.843481E-02
  0.828965E-02  0.811835E-02  0.794801E-02  0.781052E-02  0.773974E-02  0.776935E-02
  0.793397E-02  0.827239E-02  0.882872E-02  0.964931E-02  0.107779E-01  0.122522E-01
  0.141001E-01  0.163332E-01  0.189330E-01  0.218343E-01  0.249155E-01  0.280026E-01
  0.308915E-01  0.333811E-01  0.353037E-01  0.365414E-01  0.370286E-01  0.367461E-01
  0.357150E-01  0.339951E-01  0.316882E-01  0.289403E-01  0.259343E-01  0.228683E-01
  0.199244E-01  0.172418E-01  0.149045E-01  0.129457E-01  0.113628E-01  0.101327E-01
  0.922146E-02  0.858791E-02  0.818633E-02  0.797042E-02  0.789791E-02  0.793192E-02
  0.803841E-02  0.818357E-02  0.833459E-02  0.910315E-02  0.927855E-02  0.941016E-02
  0.947803E-02  0.947194E-02  0.939284E-02  0.925284E-02  0.907357E-02  0.888445E-02
  0.872085E-02  0.862128E-02  0.862497E-02  0.877277E-02  0.911032E-02  0.968908E-02
  0.105631E-01  0.117846E-01  0.134013E-01  0.154535E-01  0.179640E-01  0.209205E-01
  0.242538E-01  0.278228E-01  0.314186E-01  0.347910E-01  0.376969E-01  0.399472E-01
  0.414304E-01  0.421038E-01  0.419643E-01  0.410253E-01  0.393145E-01  0.368947E-01
  0.338885E-01  0.304854E-01  0.269192E-01  0.234237E-01  0.201904E-01  0.173446E-01
  0.149446E-01  0.129962E-01  0.114733E-01  0.103338E-01  0.952935E-02  0.900754E-02
  0.871509E-02  0.860180E-02  0.862323E-02  0.873946E-02  0.891200E-02  0.910315E-02
  0.995262E-02  0.101898E-01  0.103841E-01  0.105085E-01  0.105465E-01  0.104946E-01
  0.103630E-01  0.101743E-01  0.996016E-02  0.975984E-02  0.961666E-02  0.957582E-02
  0.968495E-02  0.999700E-02  0.105710E-01  0.114685E-01  0.127499E-01  0.144724E-01
  0.166882E-01  0.194326E-01  0.227008E-01  0.264214E-01  0.304359E-01  0.344984E-01
  0.383065E-01  0.415666E-01  0.440666E-01  0.457147E-01  0.465184E-01  0.465221E-01
  0.457493E-01  0.441887E-01  0.418324E-01  0.387387E-01  0.350724E-01  0.310907E-01
  0.270834E-01  0.233055E-01  0.199364E-01  0.170705E-01  0.147313E-01  0.128941E-01
  0.115102E-01  0.105225E-01  0.987175E-02  0.949849E-02  0.934542E-02  0.936024E-02
  0.949582E-02  0.970773E-02  0.995262E-02  0.108896E-01  0.112068E-01  0.114825E-01
  0.116812E-01  0.117786E-01  0.117650E-01  0.116477E-01  0.114491E-01  0.112038E-01
  0.109547E-01  0.107505E-01  0.106426E-01  0.106857E-01  0.109404E-01  0.114735E-01
  0.123541E-01  0.136502E-01  0.154275E-01  0.177490E-01  0.206615E-01  0.241696E-01
  0.282030E-01  0.325900E-01  0.370504E-01  0.412274E-01  0.447690E-01  0.474330E-01
  0.491504E-01  0.499987E-01  0.501010E-01  0.495207E-01  0.482192E-01  0.461021E-01
  0.431243E-01  0.393824E-01  0.351297E-01  0.307057E-01  0.264371E-01  0.225685E-01
  0.192416E-01  0.165069E-01  0.143489E-01  0.127156E-01  0.115418E-01  0.107610E-01
  0.103085E-01  0.101210E-01  0.101387E-01  0.103068E-01  0.105738E-01  0.108896E-01
  0.119112E-01  0.123301E-01  0.127092E-01  0.130040E-01  0.131805E-01  0.132207E-01
  0.131269E-01  0.129205E-01  0.126385E-01  0.123284E-01  0.120444E-01  0.118445E-01
  0.117907E-01  0.119512E-01  0.124004E-01  0.132149E-01  0.144695E-01  0.162375E-01
  0.185904E-01  0.215857E-01  0.252383E-01  0.294837E-01  0.341448E-01  0.389169E-01
  0.433946E-01  0.471650E-01  0.499442E-01  0.516733E-01  0.524976E-01  0.526337E-01
  0.522139E-01  0.512022E-01  0.494308E-01  0.467356E-01  0.431083E-01  0.387597E-01
  0.340576E-01  0.293970E-01  0.250943E-01  0.213465E-01  0.182393E-01  0.157741E-01
  0.139013E-01  0.125503E-01  0.116482E-01  0.111251E-01  0.109134E-01  0.109471E-01
  0.111637E-01  0.115041E-01  0.119112E-01  0.130035E-01  0.135484E-01  0.140567E-01
  0.144730E-01  0.147521E-01  0.148658E-01  0.148086E-01  0.145996E-01  0.142772E-01
  0.138940E-01  0.135107E-01  0.131928E-01  0.130098E-01  0.130371E-01  0.133561E-01
  0.140502E-01  0.152002E-01  0.168851E-01  0.191828E-01  0.221598E-01  0.258424E-01
  0.301770E-01  0.349925E-01  0.399762E-01  0.446922E-01  0.486750E-01  0.515873E-01
  0.533522E-01  0.541527E-01  0.542856E-01  0.539642E-01  0.531894E-01  0.517589E-01
  0.494116E-01  0.460245E-01  0.417347E-01  0.369057E-01  0.319821E-01  0.273466E-01
  0.232532E-01  0.198269E-01  0.170918E-01  0.150072E-01  0.135013E-01  0.124967E-01
  0.119196E-01  0.116990E-01  0.117648E-01  0.120480E-01  0.124824E-01  0.130035E-01
  0.141396E-01  0.148372E-01  0.155024E-01  0.160683E-01  0.164769E-01  0.166871E-01
  0.166838E-01  0.164808E-01  0.161173E-01  0.156506E-01  0.151492E-01  0.146872E-01
  0.143426E-01  0.141978E-01  0.143406E-01  0.148597E-01  0.158405E-01  0.173653E-01
  0.195157E-01  0.223650E-01  0.259508E-01  0.302357E-01  0.350662E-01  0.401438E-01
  0.450303E-01  0.492295E-01  0.523487E-01  0.542586E-01  0.551276E-01  0.552891E-01
  0.550232E-01  0.543894E-01  0.531996E-01  0.511467E-01  0.480213E-01  0.438797E-01
  0.390521E-01  0.340020E-01  0.291587E-01  0.248242E-01  0.211606E-01  0.182173E-01
  0.159668E-01  0.143415E-01  0.132627E-01  0.126547E-01  0.124450E-01  0.125611E-01
  0.129302E-01  0.134801E-01  0.141396E-01  0.152767E-01  0.161536E-01  0.170043E-01
  0.177488E-01  0.183150E-01  0.186475E-01  0.187190E-01  0.185355E-01  0.181350E-01
  0.175789E-01  0.169437E-01  0.163137E-01  0.157766E-01  0.154231E-01  0.153465E-01
  0.156398E-01  0.163911E-01  0.176834E-01  0.195984E-01  0.222124E-01  0.255732E-01
  0.296624E-01  0.343545E-01  0.393852E-01  0.443462E-01  0.487448E-01  0.521471E-01
  0.543476E-01  0.554432E-01  0.557395E-01  0.555429E-01  0.549708E-01  0.538876E-01
  0.520011E-01  0.490699E-01  0.450927E-01  0.403531E-01  0.353019E-01  0.303851E-01
  0.259334E-01  0.221368E-01  0.190672E-01  0.167131E-01  0.150152E-01  0.138981E-01
  0.132869E-01  0.131101E-01  0.132955E-01  0.137691E-01  0.144553E-01  0.152767E-01
  0.163559E-01  0.174345E-01  0.184958E-01  0.194457E-01  0.201967E-01  0.206783E-01
  0.208487E-01  0.207041E-01  0.202780E-01  0.196343E-01  0.188568E-01  0.180410E-01
  0.172860E-01  0.166920E-01  0.163585E-01  0.163823E-01  0.168525E-01  0.178508E-01
  0.194551E-01  0.217401E-01  0.247601E-01  0.285152E-01  0.329129E-01  0.377367E-01
  0.426340E-01  0.471522E-01  0.508472E-01  0.534391E-01  0.549143E-01  0.554869E-01
  0.554324E-01  0.549011E-01  0.538264E-01  0.519807E-01  0.491500E-01  0.453154E-01
  0.407190E-01  0.357763E-01  0.309193E-01  0.264827E-01  0.226701E-01  0.195697E-01
  0.171853E-01  0.154696E-01  0.143547E-01  0.137703E-01  0.136487E-01  0.139208E-01
  0.145145E-01  0.153533E-01  0.163559E-01  0.173058E-01  0.185994E-01  0.198880E-01
  0.210631E-01  0.220214E-01  0.226764E-01  0.229714E-01  0.228901E-01  0.224587E-01
  0.217401E-01  0.208239E-01  0.198158E-01  0.188279E-01  0.179714E-01  0.173533E-01
  0.170740E-01  0.172239E-01  0.178817E-01  0.191193E-01  0.210048E-01  0.235932E-01
  0.268992E-01  0.308623E-01  0.353174E-01  0.399801E-01  0.444643E-01  0.483537E-01
  0.513223E-01  0.532427E-01  0.541988E-01  0.543814E-01  0.539332E-01  0.528477E-01
  0.509864E-01  0.482057E-01  0.445078E-01  0.401082E-01  0.353761E-01  0.307063E-01
  0.264156E-01  0.227061E-01  0.196744E-01  0.173374E-01  0.156617E-01  0.145907E-01
  0.140627E-01  0.140164E-01  0.143887E-01  0.151119E-01  0.161119E-01  0.173058E-01
  0.180515E-01  0.195596E-01  0.210789E-01  0.224869E-01  0.236652E-01  0.245119E-01
  0.249550E-01  0.249641E-01  0.245551E-01  0.237864E-01  0.227497E-01  0.215592E-01
  0.203392E-01  0.192132E-01  0.182971E-01  0.176959E-01  0.175013E-01  0.177898E-01
  0.186265E-01  0.200700E-01  0.221699E-01  0.249482E-01  0.283703E-01  0.323178E-01
  0.365732E-01  0.408271E-01  0.447188E-01  0.479178E-01  0.502149E-01  0.515656E-01
  0.520469E-01  0.517548E-01  0.507157E-01  0.488753E-01  0.461752E-01  0.426601E-01
  0.385322E-01  0.341136E-01  0.297499E-01  0.257257E-01  0.222303E-01  0.193614E-01
  0.171461E-01  0.155654E-01  0.145770E-01  0.141312E-01  0.141759E-01  0.146558E-01
  0.155098E-01  0.166688E-01  0.180515E-01  0.185234E-01  0.202295E-01  0.219666E-01
  0.236005E-01  0.249987E-01  0.260449E-01  0.266528E-01  0.267777E-01  0.264228E-01
  0.256379E-01  0.245131E-01  0.231674E-01  0.217354E-01  0.203524E-01  0.191438E-01
  0.182202E-01  0.176755E-01  0.175854E-01  0.180095E-01  0.189966E-01  0.205868E-01
  0.228014E-01  0.256222E-01  0.289675E-01  0.326775E-01  0.365141E-01  0.401842E-01
  0.433869E-01  0.458787E-01  0.475230E-01  0.482906E-01  0.482104E-01  0.473098E-01
  0.455919E-01  0.430707E-01  0.398328E-01  0.360726E-01  0.320682E-01  0.281143E-01
  0.244582E-01  0.212703E-01  0.186443E-01  0.166146E-01  0.151761E-01  0.143023E-01
  0.139580E-01  0.141023E-01  0.146890E-01  0.156653E-01  0.169691E-01  0.185234E-01
  0.186658E-01  0.205377E-01  0.224635E-01  0.243007E-01  0.259045E-01  0.271459E-01
  0.279256E-01  0.281852E-01  0.279143E-01  0.271515E-01  0.259809E-01  0.245222E-01
  0.229167E-01  0.213096E-01  0.198351E-01  0.186100E-01  0.177309E-01  0.172740E-01
  0.172960E-01  0.178379E-01  0.189291E-01  0.205847E-01  0.227928E-01  0.254967E-01
  0.285808E-01  0.318674E-01  0.351277E-01  0.381085E-01  0.405727E-01  0.423402E-01
  0.433089E-01  0.434456E-01  0.427573E-01  0.412718E-01  0.390456E-01  0.361909E-01
  0.328913E-01  0.293848E-01  0.259190E-01  0.227049E-01  0.198923E-01  0.175687E-01
  0.157728E-01  0.145118E-01  0.137752E-01  0.135427E-01  0.137862E-01  0.144696E-01
  0.155491E-01  0.169712E-01  0.186658E-01  0.184450E-01  0.204366E-01  0.225071E-01
  0.245103E-01  0.262921E-01  0.277121E-01  0.286596E-01  0.290638E-01  0.289009E-01
  0.281970E-01  0.270270E-01  0.255073E-01  0.237814E-01  0.220006E-01  0.203069E-01
  0.188223E-01  0.176466E-01  0.168569E-01  0.165087E-01  0.166383E-01  0.172668E-01
  0.184008E-01  0.200274E-01  0.221037E-01  0.245453E-01  0.272214E-01  0.299586E-01
  0.325552E-01  0.348037E-01  0.365202E-01  0.375696E-01  0.378776E-01  0.374254E-01
  0.362403E-01  0.343917E-01  0.319961E-01  0.292188E-01  0.262601E-01  0.233256E-01
  0.205932E-01  0.181933E-01  0.162061E-01  0.146727E-01  0.136103E-01  0.130223E-01
  0.129027E-01  0.132359E-01  0.139965E-01  0.151504E-01  0.166535E-01  0.184450E-01
  0.178562E-01  0.199104E-01  0.220691E-01  0.241874E-01  0.261066E-01  0.276772E-01
  0.287777E-01  0.293266E-01  0.292877E-01  0.286744E-01  0.275507E-01  0.260259E-01
  0.242414E-01  0.223506E-01  0.204998E-01  0.188157E-01  0.174006E-01  0.163323E-01
  0.156654E-01  0.154340E-01  0.156540E-01  0.163257E-01  0.174324E-01  0.189367E-01
  0.207735E-01  0.228462E-01  0.250262E-01  0.271587E-01  0.290750E-01  0.306106E-01
  0.316280E-01  0.320348E-01  0.317933E-01  0.309182E-01  0.294719E-01  0.275586E-01
  0.253184E-01  0.229152E-01  0.205165E-01  0.182705E-01  0.162892E-01  0.146459E-01
  0.133830E-01  0.125248E-01  0.120855E-01  0.120708E-01  0.124767E-01  0.132881E-01
  0.144806E-01  0.160202E-01  0.178562E-01  0.169272E-01  0.189811E-01  0.211621E-01
  0.233331E-01  0.253366E-01  0.270175E-01  0.282458E-01  0.289297E-01  0.290224E-01
  0.285250E-01  0.274894E-01  0.260152E-01  0.242373E-01  0.223067E-01  0.203706E-01
  0.185583E-01  0.169742E-01  0.156963E-01  0.147778E-01  0.142508E-01  0.141290E-01
  0.144097E-01  0.150741E-01  0.160867E-01  0.173935E-01  0.189201E-01  0.205713E-01
  0.222319E-01  0.237714E-01  0.250548E-01  0.259591E-01  0.263926E-01  0.263080E-01
  0.257067E-01  0.246350E-01  0.231764E-01  0.214425E-01  0.195625E-01  0.176692E-01
  0.158832E-01  0.142995E-01  0.129847E-01  0.119816E-01  0.113188E-01  0.110177E-01
  0.110927E-01  0.115488E-01  0.123808E-01  0.135737E-01  0.151026E-01  0.169272E-01
  0.157149E-01  0.177063E-01  0.198409E-01  0.219947E-01  0.240185E-01  0.257581E-01
  0.270779E-01  0.278779E-01  0.281011E-01  0.277372E-01  0.268257E-01  0.254539E-01
  0.237464E-01  0.218471E-01  0.199003E-01  0.180354E-01  0.163579E-01  0.149458E-01
  0.138507E-01  0.131023E-01  0.127129E-01  0.126795E-01  0.129840E-01  0.135937E-01
  0.144614E-01  0.155270E-01  0.167178E-01  0.179486E-01  0.191218E-01  0.201330E-01
  0.208813E-01  0.212859E-01  0.212989E-01  0.209121E-01  0.201552E-01  0.190892E-01
  0.177977E-01  0.163785E-01  0.149335E-01  0.135580E-01  0.123316E-01  0.113134E-01
  0.105455E-01  0.100586E-01  0.987734E-02  0.100213E-01  0.105029E-01  0.113250E-01
  0.124812E-01  0.139549E-01  0.157149E-01  0.142962E-01  0.161704E-01  0.181948E-01
  0.202623E-01  0.222380E-01  0.239762E-01  0.253416E-01  0.262287E-01  0.265717E-01
  0.263497E-01  0.255894E-01  0.243637E-01  0.227837E-01  0.209823E-01  0.190963E-01
  0.172521E-01  0.155548E-01  0.140823E-01  0.128852E-01  0.119910E-01  0.114104E-01
  0.111406E-01  0.111665E-01  0.114596E-01  0.119793E-01  0.126756E-01  0.134908E-01
  0.143604E-01  0.152124E-01  0.159684E-01  0.165507E-01  0.168936E-01  0.169543E-01
  0.167198E-01  0.162064E-01  0.154550E-01  0.145250E-01  0.134872E-01  0.124178E-01
  0.113904E-01  0.104696E-01  0.970720E-02  0.914228E-02  0.880509E-02  0.872088E-02
  0.891151E-02  0.939414E-02  0.101787E-01  0.112661E-01  0.126465E-01  0.142962E-01
  0.127567E-01  0.144713E-01  0.163345E-01  0.182561E-01  0.201202E-01  0.217957E-01
  0.231549E-01  0.240914E-01  0.245333E-01  0.244497E-01  0.238548E-01  0.228065E-01
  0.213996E-01  0.197522E-01  0.179900E-01  0.162325E-01  0.145820E-01  0.131159E-01
  0.118844E-01  0.109140E-01  0.102143E-01  0.978291E-02  0.960683E-02  0.966268E-02
  0.991701E-02  0.103285E-01  0.108509E-01  0.114341E-01  0.120238E-01  0.125624E-01
  0.129917E-01  0.132610E-01  0.133351E-01  0.131998E-01  0.128621E-01  0.123477E-01
  0.116963E-01  0.109578E-01  0.101878E-01  0.944199E-02  0.877190E-02  0.822090E-02
  0.782360E-02  0.760768E-02  0.759688E-02  0.781314E-02  0.827619E-02  0.900095E-02
  0.999427E-02  0.112522E-01  0.127567E-01  0.111806E-01  0.127077E-01  0.143749E-01
  0.161081E-01  0.178105E-01  0.193700E-01  0.206722E-01  0.216159E-01  0.221263E-01
  0.221652E-01  0.217349E-01  0.208786E-01  0.196739E-01  0.182218E-01  0.166332E-01
  0.150173E-01  0.134701E-01  0.120668E-01  0.108578E-01  0.987030E-02  0.911414E-02
  0.858718E-02  0.827819E-02  0.816773E-02  0.822878E-02  0.842833E-02  0.872960E-02
  0.909356E-02  0.947919E-02  0.984357E-02  0.101438E-01  0.103417E-01  0.104096E-01
  0.103340E-01  0.101165E-01  0.977200E-02  0.932597E-02  0.881258E-02  0.827169E-02
  0.774513E-02  0.727271E-02  0.688941E-02  0.662429E-02  0.650144E-02  0.654203E-02
  0.676655E-02  0.719514E-02  0.784531E-02  0.872808E-02  0.984412E-02  0.111806E-01
  0.964203E-02  0.109680E-01  0.124217E-01  0.139426E-01  0.154517E-01  0.168566E-01
  0.180597E-01  0.189697E-01  0.195140E-01  0.196494E-01  0.193688E-01  0.187020E-01
  0.177101E-01  0.164760E-01  0.150939E-01  0.136593E-01  0.122592E-01  0.109639E-01
  0.982310E-02  0.886546E-02  0.810265E-02  0.753390E-02  0.714953E-02  0.693295E-02
  0.686212E-02  0.691093E-02  0.705083E-02  0.725187E-02  0.748315E-02  0.771290E-02
  0.790962E-02  0.804491E-02  0.809720E-02  0.805471E-02  0.791603E-02  0.768908E-02
  0.738967E-02  0.704056E-02  0.666985E-02  0.630828E-02  0.598596E-02  0.573003E-02
  0.556396E-02  0.550808E-02  0.558089E-02  0.580066E-02  0.618610E-02  0.675479E-02
  0.751965E-02  0.848479E-02  0.964203E-02  0.820027E-02  0.932400E-02  0.105610E-01
  0.118626E-01  0.131653E-01  0.143945E-01  0.154698E-01  0.163131E-01  0.168577E-01
  0.170595E-01  0.169045E-01  0.164111E-01  0.156253E-01  0.146131E-01  0.134514E-01
  0.122206E-01  0.109958E-01  0.984067E-02  0.880227E-02  0.791013E-02  0.717816E-02
  0.660797E-02  0.619206E-02  0.591655E-02  0.576330E-02  0.571157E-02  0.573929E-02
  0.582377E-02  0.594196E-02  0.607067E-02  0.618708E-02  0.627027E-02  0.630365E-02
  0.627713E-02  0.618795E-02  0.603989E-02  0.584238E-02  0.561011E-02  0.536235E-02
  0.512112E-02  0.490858E-02  0.474522E-02  0.464949E-02  0.463836E-02  0.472787E-02
  0.493392E-02  0.527262E-02  0.575958E-02  0.640746E-02  0.722237E-02  0.820027E-02
  0.689688E-02  0.782734E-02  0.885595E-02  0.994440E-02  0.110423E-01  0.120902E-01
  0.130237E-01  0.137783E-01  0.142962E-01  0.145356E-01  0.144786E-01  0.141342E-01
  0.135357E-01  0.127335E-01  0.117887E-01  0.107663E-01  0.972897E-02  0.873190E-02
  0.781797E-02  0.701609E-02  0.634166E-02  0.579865E-02  0.538231E-02  0.508189E-02
  0.488299E-02  0.476933E-02  0.472384E-02  0.472921E-02  0.476828E-02  0.482418E-02
  0.488059E-02  0.492239E-02  0.493697E-02  0.491597E-02  0.485614E-02  0.475896E-02
  0.462990E-02  0.447813E-02  0.431639E-02  0.415999E-02  0.402486E-02  0.392616E-02
  0.387811E-02  0.389460E-02  0.398944E-02  0.417618E-02  0.446805E-02  0.487765E-02
  0.541583E-02  0.608919E-02  0.689688E-02  0.575632E-02  0.651023E-02  0.734687E-02
  0.823720E-02  0.914203E-02  0.100148E-01  0.108048E-01  0.114601E-01  0.119330E-01
  0.121863E-01  0.122005E-01  0.119780E-01  0.115407E-01  0.109262E-01  0.101814E-01
  0.935743E-02  0.850509E-02  0.767038E-02  0.689087E-02  0.619338E-02  0.559348E-02
  0.509679E-02  0.470114E-02  0.439914E-02  0.418024E-02  0.403226E-02  0.394223E-02
  0.389699E-02  0.388355E-02  0.388952E-02  0.390320E-02  0.391375E-02  0.391177E-02
  0.389049E-02  0.384670E-02  0.378071E-02  0.369564E-02  0.359713E-02  0.349336E-02
  0.339468E-02  0.331234E-02  0.325740E-02  0.324057E-02  0.327285E-02  0.336565E-02
  0.353030E-02  0.377744E-02  0.411673E-02  0.455653E-02  0.510274E-02  0.575632E-02
  0.478772E-02  0.538697E-02  0.605366E-02  0.676677E-02  0.749688E-02  0.820832E-02
  0.886162E-02  0.941614E-02  0.983353E-02  0.100826E-01  0.101447E-01  0.100170E-01
  0.971276E-02  0.925834E-02  0.868883E-02  0.804372E-02  0.736306E-02  0.668413E-02
  0.603848E-02  0.544973E-02  0.493257E-02  0.449335E-02  0.413201E-02  0.384414E-02
  0.362280E-02  0.345952E-02  0.334494E-02  0.326920E-02  0.322250E-02  0.319557E-02
  0.317994E-02  0.316781E-02  0.315227E-02  0.312799E-02  0.309207E-02  0.304421E-02
  0.298621E-02  0.292156E-02  0.285547E-02  0.279481E-02  0.274744E-02  0.272132E-02
  0.272432E-02  0.276468E-02  0.285131E-02  0.299336E-02  0.319933E-02  0.347659E-02
  0.383126E-02  0.426782E-02  0.478772E-02  0.398760E-02  0.445653E-02  0.497842E-02
  0.553876E-02  0.611633E-02  0.668458E-02  0.721350E-02  0.767183E-02  0.802967E-02
  0.826194E-02  0.835198E-02  0.829426E-02  0.809525E-02  0.777221E-02  0.735047E-02
  0.685987E-02  0.633141E-02  0.579443E-02  0.527440E-02  0.479107E-02  0.435750E-02
  0.398028E-02  0.366084E-02  0.339723E-02  0.318543E-02  0.302006E-02  0.289466E-02
  0.280216E-02  0.273529E-02  0.268719E-02  0.265166E-02  0.262316E-02  0.259672E-02
  0.256835E-02  0.253558E-02  0.249777E-02  0.245589E-02  0.241211E-02  0.236981E-02
  0.233353E-02  0.230864E-02  0.230079E-02  0.231561E-02  0.235901E-02  0.243752E-02
  0.255809E-02  0.272747E-02  0.295142E-02  0.323438E-02  0.357942E-02  0.398760E-02
  0.334356E-02  0.370621E-02  0.410904E-02  0.454234E-02  0.499135E-02  0.543693E-02
  0.585685E-02  0.622761E-02  0.652650E-02  0.673402E-02  0.683626E-02  0.682672E-02
  0.670736E-02  0.648850E-02  0.618745E-02  0.582607E-02  0.542777E-02  0.501503E-02
  0.460761E-02  0.422128E-02  0.386711E-02  0.355146E-02  0.327687E-02  0.304323E-02
  0.284868E-02  0.269009E-02  0.256330E-02  0.246340E-02  0.238524E-02  0.232384E-02