
     Program PWSCF v.6.5 starts on 10Aug2023 at 17:19:32 

     This program is part of the open-source Quantum ESPRESSO suite
     for quantum simulation of materials; please cite
         "P. Giannozzi et al., J. Phys.:Condens. Matter 21 395502 (2009);
         "P. Giannozzi et al., J. Phys.:Condens. Matter 29 465901 (2017);
          URL http://www.quantum-espresso.org", 
     in publications or presentations arising from this work. More details at
     http://www.quantum-espresso.org/quote

     Parallel version (MPI), running on    20 processors

     MPI processes distributed on     1 nodes
     R & G space division:  proc/nbgrp/npool/nimage =      20
     Waiting for input...
     Reading input from standard input
Warning: card &IONS ignored
Warning: card / ignored
Warning: card &CELL ignored
Warning: card / ignored
Warning: card &FCP ignored
Warning: card / ignored
Warning: card &RISM ignored
Warning: card / ignored

     Current dimensions of program PWSCF are:
     Max number of different atomic species (ntypx) = 10
     Max number of k-points (npk) =  40000
     Max angular momentum in pseudopotentials (lmaxx) =  3

     Subspace diagonalization in iterative solution of the eigenvalue problem:
     a serial algorithm will be used

 
     Parallelization info
     --------------------
     sticks:   dense  smooth     PW     G-vecs:    dense   smooth      PW
     Min          40      40     12                  910      910     154
     Max          41      41     13                  913      913     157
     Sum         801     801    245                18227    18227    3099
 


     bravais-lattice index     =            0
     lattice parameter (alat)  =       6.6818  a.u.
     unit-cell volume          =     290.1790 (a.u.)^3
     number of atoms/cell      =            4
     number of atomic types    =            1
     number of electrons       =        16.00
     number of Kohn-Sham states=           12
     kinetic-energy cutoff     =      60.0000  Ry
     charge density cutoff     =     240.0000  Ry
     convergence threshold     =      1.0E-06
     mixing beta               =       0.7000
     number of iterations used =            8  plain     mixing
     Exchange-correlation= LDA
                           (   1   1   0   0   0   0   0)

     celldm(1)=   6.681804  celldm(2)=   0.000000  celldm(3)=   0.000000
     celldm(4)=   0.000000  celldm(5)=   0.000000  celldm(6)=   0.000000

     crystal axes: (cart. coord. in units of alat)
               a(1) = (   1.000000   0.000002  -0.000000 )  
               a(2) = (  -0.220892   0.940813  -0.000000 )  
               a(3) = (  -0.000000  -0.000000   1.033907 )  

     reciprocal axes: (cart. coord. in units 2 pi/alat)
               b(1) = (  1.000000  0.234789  0.000000 )  
               b(2) = ( -0.000002  1.062911  0.000000 )  
               b(3) = (  0.000000  0.000000  0.967205 )  


     PseudoPot. # 1 for Si read from file:
     /home/vr371/Projects/PP/ofpp/EAC/upf/blps/si.lda.upf
     MD5 check sum: 946fc5a8d23174f015515f8139e499ed
     Pseudo is Norm-conserving, Zval =  4.0
     DFTpy
     Using radial grid of 1601 points,  1 beta functions with: 
                l(1) =   0

     atomic species   valence    mass     pseudopotential
        Si             4.00    28.08000     Si( 1.00)

     No symmetry found



   Cartesian axes

     site n.     atom                  positions (alat units)
         1           Si  tau(   1) = (  -0.0213118   0.2292110   0.3492838  )
         2           Si  tau(   2) = (   0.5007583   0.3977718   0.1437150  )
         3           Si  tau(   3) = (   0.0213140   0.5600303   0.8171531  )
         4           Si  tau(   4) = (   0.4992427   0.1364038   0.6038926  )

     number of k points=  4000  Gaussian smearing, width (Ry)=  0.0050

     Number of k-points >= 100: set verbosity='high' to print them.

     Dense  grid:    18227 G-vectors     FFT dimensions: (  36,  32,  36)

     Estimated max dynamical RAM per process >      83.61 MB

     Estimated total dynamical RAM >       1.63 GB

     Initial potential from superposition of free atoms

     starting charge   15.99744, renormalised to   16.00000
     Starting wfcs are random

     total cpu time spent up to now is        6.3 secs

     Self-consistent Calculation

     iteration #  1     ecut=    60.00 Ry     beta= 0.70
     Davidson diagonalization with overlap
     ethr =  1.00E-02,  avg # of iterations =  7.4

     total cpu time spent up to now is       55.1 secs

     total energy              =     -31.42301433 Ry
     Harris-Foulkes estimate   =     -31.53325927 Ry
     estimated scf accuracy    <       0.18586571 Ry

     iteration #  2     ecut=    60.00 Ry     beta= 0.70
     Davidson diagonalization with overlap
     ethr =  1.16E-03,  avg # of iterations =  2.0

     total cpu time spent up to now is       74.3 secs

     total energy              =     -31.46343047 Ry
     Harris-Foulkes estimate   =     -31.48607365 Ry
     estimated scf accuracy    <       0.03867194 Ry

     iteration #  3     ecut=    60.00 Ry     beta= 0.70
     Davidson diagonalization with overlap
     ethr =  2.42E-04,  avg # of iterations =  2.0

     total cpu time spent up to now is       92.9 secs

     total energy              =     -31.47252531 Ry
     Harris-Foulkes estimate   =     -31.47316061 Ry
     estimated scf accuracy    <       0.00159726 Ry

     iteration #  4     ecut=    60.00 Ry     beta= 0.70
     Davidson diagonalization with overlap
     ethr =  9.98E-06,  avg # of iterations =  3.4

     total cpu time spent up to now is      115.2 secs

     total energy              =     -31.47279266 Ry
     Harris-Foulkes estimate   =     -31.47285397 Ry
     estimated scf accuracy    <       0.00012631 Ry

     iteration #  5     ecut=    60.00 Ry     beta= 0.70
     Davidson diagonalization with overlap
     ethr =  7.89E-07,  avg # of iterations =  2.2

     total cpu time spent up to now is      134.2 secs

     total energy              =     -31.47281908 Ry
     Harris-Foulkes estimate   =     -31.47282031 Ry
     estimated scf accuracy    <       0.00000286 Ry

     iteration #  6     ecut=    60.00 Ry     beta= 0.70
     Davidson diagonalization with overlap
     ethr =  1.79E-08,  avg # of iterations =  2.0

     total cpu time spent up to now is      152.4 secs

     End of self-consistent calculation

     Number of k-points >= 100: set verbosity='high' to print the bands.

     the Fermi energy is    14.7700 ev

!    total energy              =     -31.47281972 Ry
     Harris-Foulkes estimate   =     -31.47281972 Ry
     estimated scf accuracy    <       0.00000003 Ry

     The total energy is the sum of the following terms:

     one-electron contribution =      19.63272238 Ry
     hartree contribution      =       1.32922117 Ry
     xc contribution           =     -10.97474572 Ry
     ewald contribution        =     -41.45982081 Ry
     smearing contrib. (-TS)   =      -0.00019673 Ry

     convergence has been achieved in   6 iterations
 
 Energies determined by pw2casino tool
 -------------------------------------
 Kinetic energy      7.75720647105408       au  =     15.5144129421082       Ry
 Local energy        2.05915471842399       au  =     4.11830943684799       Ry
 Non-Local energy   0.000000000000000E+000  au  =    0.000000000000000E+000  Ry
 Ewald energy       -20.7299104032288       au  =    -41.4598208064577       Ry
 xc contribution    -5.48737286159000       au  =    -10.9747457231800       Ry
 hartree energy     0.664610582804296       au  =     1.32922116560859       Ry
 Smearing (-TS)    -9.836676579070446E-005  au  =   -1.967335315814089E-004  Ry
 Total energy       -15.7364098593023       au  =    -31.4728197186045       Ry
 
Writing file si_0.5_1_4_Btin_hd.bwfn.data.b1 for program CASINO.

Blip grid: 18x18x18

 Transformed complex orbital k=1, spin=1, band=1 on node 0
 Transformed complex orbital k=1, spin=1, band=2 on node 1
 Transformed complex orbital k=1, spin=1, band=3 on node 2
 Transformed complex orbital k=1, spin=1, band=4 on node 3
 Transformed complex orbital k=1, spin=1, band=5 on node 4
 Transformed complex orbital k=1, spin=1, band=6 on node 5
 Transformed complex orbital k=1, spin=1, band=7 on node 6
 Transformed complex orbital k=1, spin=1, band=8 on node 7
 Transformed complex orbital k=1, spin=1, band=9 on node 8
 Transformed complex orbital k=1, spin=1, band=10 on node 9
 Transformed complex orbital k=1, spin=1, band=11 on node 10
 Transformed complex orbital k=1, spin=1, band=12 on node 11
 Transformed complex orbital k=2, spin=1, band=1 on node 12
 Transformed complex orbital k=2, spin=1, band=2 on node 13
 Transformed complex orbital k=2, spin=1, band=3 on node 14
 Transformed complex orbital k=2, spin=1, band=4 on node 15
 Transformed complex orbital k=2, spin=1, band=5 on node 16
 Transformed complex orbital k=2, spin=1, band=6 on node 17
 Transformed complex orbital k=2, spin=1, band=7 on node 18
 Transformed complex orbital k=2, spin=1, band=8 on node 19
 Transformed complex orbital k=2, spin=1, band=9 on node 0
 Transformed complex orbital k=2, spin=1, band=10 on node 1
 Transformed complex orbital k=2, spin=1, band=11 on node 2
 Transformed complex orbital k=2, spin=1, band=12 on node 3
 Transformed complex orbital k=3, spin=1, band=1 on node 4
 Transformed complex orbital k=3, spin=1, band=2 on node 5
 Transformed complex orbital k=3, spin=1, band=3 on node 6
 Transformed complex orbital k=3, spin=1, band=4 on node 7
 Transformed complex orbital k=3, spin=1, band=5 on node 8
 Transformed complex orbital k=3, spin=1, band=6 on node 9
 Transformed complex orbital k=3, spin=1, band=7 on node 10
 Transformed complex orbital k=3, spin=1, band=8 on node 11
 Transformed complex orbital k=3, spin=1, band=9 on node 12
 Transformed complex orbital k=3, spin=1, band=10 on node 13
 Transformed complex orbital k=3, spin=1, band=11 on node 14
 Transformed complex orbital k=3, spin=1, band=12 on node 15
 Transformed complex orbital k=4, spin=1, band=1 on node 16
 Transformed complex orbital k=4, spin=1, band=2 on node 17
 Transformed complex orbital k=4, spin=1, band=3 on node 18
 Transformed complex orbital k=4, spin=1, band=4 on node 19
 Transformed complex orbital k=4, spin=1, band=5 on node 0
 Transformed complex orbital k=4, spin=1, band=6 on node 1
 Transformed complex orbital k=4, spin=1, band=7 on node 2
 Transformed complex orbital k=4, spin=1, band=8 on node 3
 Transformed complex orbital k=4, spin=1, band=9 on node 4
 Transformed complex orbital k=4, spin=1, band=10 on node 5
 Transformed complex orbital k=4, spin=1, band=11 on node 6
 Transformed complex orbital k=4, spin=1, band=12 on node 7
 Transformed complex orbital k=5, spin=1, band=1 on node 8
 Transformed complex orbital k=5, spin=1, band=2 on node 9
 Transformed complex orbital k=5, spin=1, band=3 on node 10
 Transformed complex orbital k=5, spin=1, band=4 on node 11
 Transformed complex orbital k=5, spin=1, band=5 on node 12
 Transformed complex orbital k=5, spin=1, band=6 on node 13
 Transformed complex orbital k=5, spin=1, band=7 on node 14
 Transformed complex orbital k=5, spin=1, band=8 on node 15
 Transformed complex orbital k=5, spin=1, band=9 on node 16
 Transformed complex orbital k=5, spin=1, band=10 on node 17
 Transformed complex orbital k=5, spin=1, band=11 on node 18
 Transformed complex orbital k=5, spin=1, band=12 on node 19
 Transformed complex orbital k=6, spin=1, band=1 on node 0
 Transformed complex orbital k=6, spin=1, band=2 on node 1
 Transformed complex orbital k=6, spin=1, band=3 on node 2
 Transformed complex orbital k=6, spin=1, band=4 on node 3
 Transformed complex orbital k=6, spin=1, band=5 on node 4
 Transformed complex orbital k=6, spin=1, band=6 on node 5
 Transformed complex orbital k=6, spin=1, band=7 on node 6
 Transformed complex orbital k=6, spin=1, band=8 on node 7
 Transformed complex orbital k=6, spin=1, band=9 on node 8
 Transformed complex orbital k=6, spin=1, band=10 on node 9
 Transformed complex orbital k=6, spin=1, band=11 on node 10
 Transformed complex orbital k=6, spin=1, band=12 on node 11
 Transformed complex orbital k=7, spin=1, band=1 on node 12
 Transformed complex orbital k=7, spin=1, band=2 on node 13
 Transformed complex orbital k=7, spin=1, band=3 on node 14
 Transformed complex orbital k=7, spin=1, band=4 on node 15
 Transformed complex orbital k=7, spin=1, band=5 on node 16
 Transformed complex orbital k=7, spin=1, band=6 on node 17
 Transformed complex orbital k=7, spin=1, band=7 on node 18
 Transformed complex orbital k=7, spin=1, band=8 on node 19
 Transformed complex orbital k=7, spin=1, band=9 on node 0
 Transformed complex orbital k=7, spin=1, band=10 on node 1
 Transformed complex orbital k=7, spin=1, band=11 on node 2
 Transformed complex orbital k=7, spin=1, band=12 on node 3
 Transformed complex orbital k=8, spin=1, band=1 on node 4
 Transformed complex orbital k=8, spin=1, band=2 on node 5
 Transformed complex orbital k=8, spin=1, band=3 on node 6
 Transformed complex orbital k=8, spin=1, band=4 on node 7
 Transformed complex orbital k=8, spin=1, band=5 on node 8
 Transformed complex orbital k=8, spin=1, band=6 on node 9
 Transformed complex orbital k=8, spin=1, band=7 on node 10
 Transformed complex orbital k=8, spin=1, band=8 on node 11
 Transformed complex orbital k=8, spin=1, band=9 on node 12
 Transformed complex orbital k=8, spin=1, band=10 on node 13
 Transformed complex orbital k=8, spin=1, band=11 on node 14
 Transformed complex orbital k=8, spin=1, band=12 on node 15
 Transformed complex orbital k=9, spin=1, band=1 on node 16
 Transformed complex orbital k=9, spin=1, band=2 on node 17
 Transformed complex orbital k=9, spin=1, band=3 on node 18
 Transformed complex orbital k=9, spin=1, band=4 on node 19
 Transformed complex orbital k=9, spin=1, band=5 on node 0
 Transformed complex orbital k=9, spin=1, band=6 on node 1
 Transformed complex orbital k=9, spin=1, band=7 on node 2
 Transformed complex orbital k=9, spin=1, band=8 on node 3
 Transformed complex orbital k=9, spin=1, band=9 on node 4
 Transformed complex orbital k=9, spin=1, band=10 on node 5
 Transformed complex orbital k=9, spin=1, band=11 on node 6
 Transformed complex orbital k=9, spin=1, band=12 on node 7
 Transformed complex orbital k=10, spin=1, band=1 on node 8
 Transformed complex orbital k=10, spin=1, band=2 on node 9
 Transformed complex orbital k=10, spin=1, band=3 on node 10
 Transformed complex orbital k=10, spin=1, band=4 on node 11
 Transformed complex orbital k=10, spin=1, band=5 on node 12
 Transformed complex orbital k=10, spin=1, band=6 on node 13
 Transformed complex orbital k=10, spin=1, band=7 on node 14
 Transformed complex orbital k=10, spin=1, band=8 on node 15
 Transformed complex orbital k=10, spin=1, band=9 on node 16
 Transformed complex orbital k=10, spin=1, band=10 on node 17
 Transformed complex orbital k=10, spin=1, band=11 on node 18
 Transformed complex orbital k=10, spin=1, band=12 on node 19
 Transformed complex orbital k=11, spin=1, band=1 on node 0
 Transformed complex orbital k=11, spin=1, band=2 on node 1
 Transformed complex orbital k=11, spin=1, band=3 on node 2
 Transformed complex orbital k=11, spin=1, band=4 on node 3
 Transformed complex orbital k=11, spin=1, band=5 on node 4
 Transformed complex orbital k=11, spin=1, band=6 on node 5
 Transformed complex orbital k=11, spin=1, band=7 on node 6
 Transformed complex orbital k=11, spin=1, band=8 on node 7
 Transformed complex orbital k=11, spin=1, band=9 on node 8
 Transformed complex orbital k=11, spin=1, band=10 on node 9
 Transformed complex orbital k=11, spin=1, band=11 on node 10
 Transformed complex orbital k=11, spin=1, band=12 on node 11
 Transformed complex orbital k=12, spin=1, band=1 on node 12
 Transformed complex orbital k=12, spin=1, band=2 on node 13
 Transformed complex orbital k=12, spin=1, band=3 on node 14
 Transformed complex orbital k=12, spin=1, band=4 on node 15
 Transformed complex orbital k=12, spin=1, band=5 on node 16
 Transformed complex orbital k=12, spin=1, band=6 on node 17
 Transformed complex orbital k=12, spin=1, band=7 on node 18
 Transformed complex orbital k=12, spin=1, band=8 on node 19
 Transformed complex orbital k=12, spin=1, band=9 on node 0
 Transformed complex orbital k=12, spin=1, band=10 on node 1
 Transformed complex orbital k=12, spin=1, band=11 on node 2
 Transformed complex orbital k=12, spin=1, band=12 on node 3
 Transformed complex orbital k=13, spin=1, band=1 on node 4
 Transformed complex orbital k=13, spin=1, band=2 on node 5
 Transformed complex orbital k=13, spin=1, band=3 on node 6
 Transformed complex orbital k=13, spin=1, band=4 on node 7
 Transformed complex orbital k=13, spin=1, band=5 on node 8
 Transformed complex orbital k=13, spin=1, band=6 on node 9
 Transformed complex orbital k=13, spin=1, band=7 on node 10
 Transformed complex orbital k=13, spin=1, band=8 on node 11
 Transformed complex orbital k=13, spin=1, band=9 on node 12
 Transformed complex orbital k=13, spin=1, band=10 on node 13
 Transformed complex orbital k=13, spin=1, band=11 on node 14
 Transformed complex orbital k=13, spin=1, band=12 on node 15
 Transformed complex orbital k=14, spin=1, band=1 on node 16
 Transformed complex orbital k=14, spin=1, band=2 on node 17
 Transformed complex orbital k=14, spin=1, band=3 on node 18
 Transformed complex orbital k=14, spin=1, band=4 on node 19
 Transformed complex orbital k=14, spin=1, band=5 on node 0
 Transformed complex orbital k=14, spin=1, band=6 on node 1
 Transformed complex orbital k=14, spin=1, band=7 on node 2
 Transformed complex orbital k=14, spin=1, band=8 on node 3
 Transformed complex orbital k=14, spin=1, band=9 on node 4
 Transformed complex orbital k=14, spin=1, band=10 on node 5
 Transformed complex orbital k=14, spin=1, band=11 on node 6
 Transformed complex orbital k=14, spin=1, band=12 on node 7
 Transformed complex orbital k=15, spin=1, band=1 on node 8
 Transformed complex orbital k=15, spin=1, band=2 on node 9
 Transformed complex orbital k=15, spin=1, band=3 on node 10
 Transformed complex orbital k=15, spin=1, band=4 on node 11
 Transformed complex orbital k=15, spin=1, band=5 on node 12
 Transformed complex orbital k=15, spin=1, band=6 on node 13
 Transformed complex orbital k=15, spin=1, band=7 on node 14
 Transformed complex orbital k=15, spin=1, band=8 on node 15
 Transformed complex orbital k=15, spin=1, band=9 on node 16
 Transformed complex orbital k=15, spin=1, band=10 on node 17
 Transformed complex orbital k=15, spin=1, band=11 on node 18
 Transformed complex orbital k=15, spin=1, band=12 on node 19
 Transformed complex orbital k=16, spin=1, band=1 on node 0
 Transformed complex orbital k=16, spin=1, band=2 on node 1
 Transformed complex orbital k=16, spin=1, band=3 on node 2
 Transformed complex orbital k=16, spin=1, band=4 on node 3
 Transformed complex orbital k=16, spin=1, band=5 on node 4
 Transformed complex orbital k=16, spin=1, band=6 on node 5
 Transformed complex orbital k=16, spin=1, band=7 on node 6
 Transformed complex orbital k=16, spin=1, band=8 on node 7
 Transformed complex orbital k=16, spin=1, band=9 on node 8
 Transformed complex orbital k=16, spin=1, band=10 on node 9
 Transformed complex orbital k=16, spin=1, band=11 on node 10
 Transformed complex orbital k=16, spin=1, band=12 on node 11
 Transformed complex orbital k=17, spin=1, band=1 on node 12
 Transformed complex orbital k=17, spin=1, band=2 on node 13
 Transformed complex orbital k=17, spin=1, band=3 on node 14
 Transformed complex orbital k=17, spin=1, band=4 on node 15
 Transformed complex orbital k=17, spin=1, band=5 on node 16
 Transformed complex orbital k=17, spin=1, band=6 on node 17
 Transformed complex orbital k=17, spin=1, band=7 on node 18
 Transformed complex orbital k=17, spin=1, band=8 on node 19
 Transformed complex orbital k=17, spin=1, band=9 on node 0
 Transformed complex orbital k=17, spin=1, band=10 on node 1
 Transformed complex orbital k=17, spin=1, band=11 on node 2
 Transformed complex orbital k=17, spin=1, band=12 on node 3
 Transformed complex orbital k=18, spin=1, band=1 on node 4
 Transformed complex orbital k=18, spin=1, band=2 on node 5
 Transformed complex orbital k=18, spin=1, band=3 on node 6
 Transformed complex orbital k=18, spin=1, band=4 on node 7
 Transformed complex orbital k=18, spin=1, band=5 on node 8
 Transformed complex orbital k=18, spin=1, band=6 on node 9
 Transformed complex orbital k=18, spin=1, band=7 on node 10
 Transformed complex orbital k=18, spin=1, band=8 on node 11
 Transformed complex orbital k=18, spin=1, band=9 on node 12
 Transformed complex orbital k=18, spin=1, band=10 on node 13
 Transformed complex orbital k=18, spin=1, band=11 on node 14
 Transformed complex orbital k=18, spin=1, band=12 on node 15
 Transformed complex orbital k=19, spin=1, band=1 on node 16
 Transformed complex orbital k=19, spin=1, band=2 on node 17
 Transformed complex orbital k=19, spin=1, band=3 on node 18
 Transformed complex orbital k=19, spin=1, band=4 on node 19
 Transformed complex orbital k=19, spin=1, band=5 on node 0
 Transformed complex orbital k=19, spin=1, band=6 on node 1
 Transformed complex orbital k=19, spin=1, band=7 on node 2
 Transformed complex orbital k=19, spin=1, band=8 on node 3
 Transformed complex orbital k=19, spin=1, band=9 on node 4
 Transformed complex orbital k=19, spin=1, band=10 on node 5
 Transformed complex orbital k=19, spin=1, band=11 on node 6
 Transformed complex orbital k=19, spin=1, band=12 on node 7
 Transformed complex orbital k=20, spin=1, band=1 on node 8
 Transformed complex orbital k=20, spin=1, band=2 on node 9
 Transformed complex orbital k=20, spin=1, band=3 on node 10
 Transformed complex orbital k=20, spin=1, band=4 on node 11
 Transformed complex orbital k=20, spin=1, band=5 on node 12
 Transformed complex orbital k=20, spin=1, band=6 on node 13
 Transformed complex orbital k=20, spin=1, band=7 on node 14
 Transformed complex orbital k=20, spin=1, band=8 on node 15
 Transformed complex orbital k=20, spin=1, band=9 on node 16
 Transformed complex orbital k=20, spin=1, band=10 on node 17
 Transformed complex orbital k=20, spin=1, band=11 on node 18
 Transformed complex orbital k=20, spin=1, band=12 on node 19
 Transformed complex orbital k=21, spin=1, band=1 on node 0
 Transformed complex orbital k=21, spin=1, band=2 on node 1
 Transformed complex orbital k=21, spin=1, band=3 on node 2
 Transformed complex orbital k=21, spin=1, band=4 on node 3
 Transformed complex orbital k=21, spin=1, band=5 on node 4
 Transformed complex orbital k=21, spin=1, band=6 on node 5
 Transformed complex orbital k=21, spin=1, band=7 on node 6
 Transformed complex orbital k=21, spin=1, band=8 on node 7
 Transformed complex orbital k=21, spin=1, band=9 on node 8
 Transformed complex orbital k=21, spin=1, band=10 on node 9
 Transformed complex orbital k=21, spin=1, band=11 on node 10
 Transformed complex orbital k=21, spin=1, band=12 on node 11
 Transformed complex orbital k=22, spin=1, band=1 on node 12
 Transformed complex orbital k=22, spin=1, band=2 on node 13
 Transformed complex orbital k=22, spin=1, band=3 on node 14
 Transformed complex orbital k=22, spin=1, band=4 on node 15
 Transformed complex orbital k=22, spin=1, band=5 on node 16
 Transformed complex orbital k=22, spin=1, band=6 on node 17
 Transformed complex orbital k=22, spin=1, band=7 on node 18
 Transformed complex orbital k=22, spin=1, band=8 on node 19
 Transformed complex orbital k=22, spin=1, band=9 on node 0
 Transformed complex orbital k=22, spin=1, band=10 on node 1
 Transformed complex orbital k=22, spin=1, band=11 on node 2
 Transformed complex orbital k=22, spin=1, band=12 on node 3
 Transformed complex orbital k=23, spin=1, band=1 on node 4
 Transformed complex orbital k=23, spin=1, band=2 on node 5
 Transformed complex orbital k=23, spin=1, band=3 on node 6
 Transformed complex orbital k=23, spin=1, band=4 on node 7
 Transformed complex orbital k=23, spin=1, band=5 on node 8
 Transformed complex orbital k=23, spin=1, band=6 on node 9
 Transformed complex orbital k=23, spin=1, band=7 on node 10
 Transformed complex orbital k=23, spin=1, band=8 on node 11
 Transformed complex orbital k=23, spin=1, band=9 on node 12
 Transformed complex orbital k=23, spin=1, band=10 on node 13
 Transformed complex orbital k=23, spin=1, band=11 on node 14
 Transformed complex orbital k=23, spin=1, band=12 on node 15
 Transformed complex orbital k=24, spin=1, band=1 on node 16
 Transformed complex orbital k=24, spin=1, band=2 on node 17
 Transformed complex orbital k=24, spin=1, band=3 on node 18
 Transformed complex orbital k=24, spin=1, band=4 on node 19
 Transformed complex orbital k=24, spin=1, band=5 on node 0
 Transformed complex orbital k=24, spin=1, band=6 on node 1
 Transformed complex orbital k=24, spin=1, band=7 on node 2
 Transformed complex orbital k=24, spin=1, band=8 on node 3
 Transformed complex orbital k=24, spin=1, band=9 on node 4
 Transformed complex orbital k=24, spin=1, band=10 on node 5
 Transformed complex orbital k=24, spin=1, band=11 on node 6
 Transformed complex orbital k=24, spin=1, band=12 on node 7
 Transformed complex orbital k=25, spin=1, band=1 on node 8
 Transformed complex orbital k=25, spin=1, band=2 on node 9
 Transformed complex orbital k=25, spin=1, band=3 on node 10
 Transformed complex orbital k=25, spin=1, band=4 on node 11
 Transformed complex orbital k=25, spin=1, band=5 on node 12
 Transformed complex orbital k=25, spin=1, band=6 on node 13
 Transformed complex orbital k=25, spin=1, band=7 on node 14
 Transformed complex orbital k=25, spin=1, band=8 on node 15
 Transformed complex orbital k=25, spin=1, band=9 on node 16
 Transformed complex orbital k=25, spin=1, band=10 on node 17
 Transformed complex orbital k=25, spin=1, band=11 on node 18
 Transformed complex orbital k=25, spin=1, band=12 on node 19
 Transformed complex orbital k=26, spin=1, band=1 on node 0
 Transformed complex orbital k=26, spin=1, band=2 on node 1
 Transformed complex orbital k=26, spin=1, band=3 on node 2
 Transformed complex orbital k=26, spin=1, band=4 on node 3
 Transformed complex orbital k=26, spin=1, band=5 on node 4
 Transformed complex orbital k=26, spin=1, band=6 on node 5
 Transformed complex orbital k=26, spin=1, band=7 on node 6
 Transformed complex orbital k=26, spin=1, band=8 on node 7
 Transformed complex orbital k=26, spin=1, band=9 on node 8
 Transformed complex orbital k=26, spin=1, band=10 on node 9
 Transformed complex orbital k=26, spin=1, band=11 on node 10
 Transformed complex orbital k=26, spin=1, band=12 on node 11
 Transformed complex orbital k=27, spin=1, band=1 on node 12
 Transformed complex orbital k=27, spin=1, band=2 on node 13
 Transformed complex orbital k=27, spin=1, band=3 on node 14
 Transformed complex orbital k=27, spin=1, band=4 on node 15
 Transformed complex orbital k=27, spin=1, band=5 on node 16
 Transformed complex orbital k=27, spin=1, band=6 on node 17
 Transformed complex orbital k=27, spin=1, band=7 on node 18
 Transformed complex orbital k=27, spin=1, band=8 on node 19
 Transformed complex orbital k=27, spin=1, band=9 on node 0
 Transformed complex orbital k=27, spin=1, band=10 on node 1
 Transformed complex orbital k=27, spin=1, band=11 on node 2
 Transformed complex orbital k=27, spin=1, band=12 on node 3
 Transformed complex orbital k=28, spin=1, band=1 on node 4
 Transformed complex orbital k=28, spin=1, band=2 on node 5
 Transformed complex orbital k=28, spin=1, band=3 on node 6
 Transformed complex orbital k=28, spin=1, band=4 on node 7
 Transformed complex orbital k=28, spin=1, band=5 on node 8
 Transformed complex orbital k=28, spin=1, band=6 on node 9
 Transformed complex orbital k=28, spin=1, band=7 on node 10
 Transformed complex orbital k=28, spin=1, band=8 on node 11
 Transformed complex orbital k=28, spin=1, band=9 on node 12
 Transformed complex orbital k=28, spin=1, band=10 on node 13
 Transformed complex orbital k=28, spin=1, band=11 on node 14
 Transformed complex orbital k=28, spin=1, band=12 on node 15
 Transformed complex orbital k=29, spin=1, band=1 on node 16
 Transformed complex orbital k=29, spin=1, band=2 on node 17
 Transformed complex orbital k=29, spin=1, band=3 on node 18
 Transformed complex orbital k=29, spin=1, band=4 on node 19
 Transformed complex orbital k=29, spin=1, band=5 on node 0
 Transformed complex orbital k=29, spin=1, band=6 on node 1
 Transformed complex orbital k=29, spin=1, band=7 on node 2
 Transformed complex orbital k=29, spin=1, band=8 on node 3
 Transformed complex orbital k=29, spin=1, band=9 on node 4
 Transformed complex orbital k=29, spin=1, band=10 on node 5
 Transformed complex orbital k=29, spin=1, band=11 on node 6
 Transformed complex orbital k=29, spin=1, band=12 on node 7
 Transformed complex orbital k=30, spin=1, band=1 on node 8
 Transformed complex orbital k=30, spin=1, band=2 on node 9
 Transformed complex orbital k=30, spin=1, band=3 on node 10
 Transformed complex orbital k=30, spin=1, band=4 on node 11
 Transformed complex orbital k=30, spin=1, band=5 on node 12
 Transformed complex orbital k=30, spin=1, band=6 on node 13
 Transformed complex orbital k=30, spin=1, band=7 on node 14
 Transformed complex orbital k=30, spin=1, band=8 on node 15
 Transformed complex orbital k=30, spin=1, band=9 on node 16
 Transformed complex orbital k=30, spin=1, band=10 on node 17
 Transformed complex orbital k=30, spin=1, band=11 on node 18
 Transformed complex orbital k=30, spin=1, band=12 on node 19
 Transformed complex orbital k=31, spin=1, band=1 on node 0
 Transformed complex orbital k=31, spin=1, band=2 on node 1
 Transformed complex orbital k=31, spin=1, band=3 on node 2
 Transformed complex orbital k=31, spin=1, band=4 on node 3
 Transformed complex orbital k=31, spin=1, band=5 on node 4
 Transformed complex orbital k=31, spin=1, band=6 on node 5
 Transformed complex orbital k=31, spin=1, band=7 on node 6
 Transformed complex orbital k=31, spin=1, band=8 on node 7
 Transformed complex orbital k=31, spin=1, band=9 on node 8
 Transformed complex orbital k=31, spin=1, band=10 on node 9
 Transformed complex orbital k=31, spin=1, band=11 on node 10
 Transformed complex orbital k=31, spin=1, band=12 on node 11
 Transformed complex orbital k=32, spin=1, band=1 on node 12
 Transformed complex orbital k=32, spin=1, band=2 on node 13
 Transformed complex orbital k=32, spin=1, band=3 on node 14
 Transformed complex orbital k=32, spin=1, band=4 on node 15
 Transformed complex orbital k=32, spin=1, band=5 on node 16
 Transformed complex orbital k=32, spin=1, band=6 on node 17
 Transformed complex orbital k=32, spin=1, band=7 on node 18
 Transformed complex orbital k=32, spin=1, band=8 on node 19
 Transformed complex orbital k=32, spin=1, band=9 on node 0
 Transformed complex orbital k=32, spin=1, band=10 on node 1
 Transformed complex orbital k=32, spin=1, band=11 on node 2
 Transformed complex orbital k=32, spin=1, band=12 on node 3
 Transformed complex orbital k=33, spin=1, band=1 on node 4
 Transformed complex orbital k=33, spin=1, band=2 on node 5
 Transformed complex orbital k=33, spin=1, band=3 on node 6
 Transformed complex orbital k=33, spin=1, band=4 on node 7
 Transformed complex orbital k=33, spin=1, band=5 on node 8
 Transformed complex orbital k=33, spin=1, band=6 on node 9
 Transformed complex orbital k=33, spin=1, band=7 on node 10
 Transformed complex orbital k=33, spin=1, band=8 on node 11
 Transformed complex orbital k=33, spin=1, band=9 on node 12
 Transformed complex orbital k=33, spin=1, band=10 on node 13
 Transformed complex orbital k=33, spin=1, band=11 on node 14
 Transformed complex orbital k=33, spin=1, band=12 on node 15
 Transformed complex orbital k=34, spin=1, band=1 on node 16
 Transformed complex orbital k=34, spin=1, band=2 on node 17
 Transformed complex orbital k=34, spin=1, band=3 on node 18
 Transformed complex orbital k=34, spin=1, band=4 on node 19
 Transformed complex orbital k=34, spin=1, band=5 on node 0
 Transformed complex orbital k=34, spin=1, band=6 on node 1
 Transformed complex orbital k=34, spin=1, band=7 on node 2
 Transformed complex orbital k=34, spin=1, band=8 on node 3
 Transformed complex orbital k=34, spin=1, band=9 on node 4
 Transformed complex orbital k=34, spin=1, band=10 on node 5
 Transformed complex orbital k=34, spin=1, band=11 on node 6
 Transformed complex orbital k=34, spin=1, band=12 on node 7
 Transformed complex orbital k=35, spin=1, band=1 on node 8
 Transformed complex orbital k=35, spin=1, band=2 on node 9
 Transformed complex orbital k=35, spin=1, band=3 on node 10
 Transformed complex orbital k=35, spin=1, band=4 on node 11
 Transformed complex orbital k=35, spin=1, band=5 on node 12
 Transformed complex orbital k=35, spin=1, band=6 on node 13
 Transformed complex orbital k=35, spin=1, band=7 on node 14
 Transformed complex orbital k=35, spin=1, band=8 on node 15
 Transformed complex orbital k=35, spin=1, band=9 on node 16
 Transformed complex orbital k=35, spin=1, band=10 on node 17
 Transformed complex orbital k=35, spin=1, band=11 on node 18
 Transformed complex orbital k=35, spin=1, band=12 on node 19
 Transformed complex orbital k=36, spin=1, band=1 on node 0
 Transformed complex orbital k=36, spin=1, band=2 on node 1
 Transformed complex orbital k=36, spin=1, band=3 on node 2
 Transformed complex orbital k=36, spin=1, band=4 on node 3
 Transformed complex orbital k=36, spin=1, band=5 on node 4
 Transformed complex orbital k=36, spin=1, band=6 on node 5
 Transformed complex orbital k=36, spin=1, band=7 on node 6
 Transformed complex orbital k=36, spin=1, band=8 on node 7
 Transformed complex orbital k=36, spin=1, band=9 on node 8
 Transformed complex orbital k=36, spin=1, band=10 on node 9
 Transformed complex orbital k=36, spin=1, band=11 on node 10
 Transformed complex orbital k=36, spin=1, band=12 on node 11
 Transformed complex orbital k=37, spin=1, band=1 on node 12
 Transformed complex orbital k=37, spin=1, band=2 on node 13
 Transformed complex orbital k=37, spin=1, band=3 on node 14
 Transformed complex orbital k=37, spin=1, band=4 on node 15
 Transformed complex orbital k=37, spin=1, band=5 on node 16
 Transformed complex orbital k=37, spin=1, band=6 on node 17
 Transformed complex orbital k=37, spin=1, band=7 on node 18
 Transformed complex orbital k=37, spin=1, band=8 on node 19
 Transformed complex orbital k=37, spin=1, band=9 on node 0
 Transformed complex orbital k=37, spin=1, band=10 on node 1
 Transformed complex orbital k=37, spin=1, band=11 on node 2
 Transformed complex orbital k=37, spin=1, band=12 on node 3
 Transformed complex orbital k=38, spin=1, band=1 on node 4
 Transformed complex orbital k=38, spin=1, band=2 on node 5
 Transformed complex orbital k=38, spin=1, band=3 on node 6
 Transformed complex orbital k=38, spin=1, band=4 on node 7
 Transformed complex orbital k=38, spin=1, band=5 on node 8
 Transformed complex orbital k=38, spin=1, band=6 on node 9
 Transformed complex orbital k=38, spin=1, band=7 on node 10
 Transformed complex orbital k=38, spin=1, band=8 on node 11
 Transformed complex orbital k=38, spin=1, band=9 on node 12
 Transformed complex orbital k=38, spin=1, band=10 on node 13
 Transformed complex orbital k=38, spin=1, band=11 on node 14
 Transformed complex orbital k=38, spin=1, band=12 on node 15
 Transformed complex orbital k=39, spin=1, band=1 on node 16
 Transformed complex orbital k=39, spin=1, band=2 on node 17
 Transformed complex orbital k=39, spin=1, band=3 on node 18
 Transformed complex orbital k=39, spin=1, band=4 on node 19
 Transformed complex orbital k=39, spin=1, band=5 on node 0
 Transformed complex orbital k=39, spin=1, band=6 on node 1
 Transformed complex orbital k=39, spin=1, band=7 on node 2
 Transformed complex orbital k=39, spin=1, band=8 on node 3
 Transformed complex orbital k=39, spin=1, band=9 on node 4
 Transformed complex orbital k=39, spin=1, band=10 on node 5
 Transformed complex orbital k=39, spin=1, band=11 on node 6
 Transformed complex orbital k=39, spin=1, band=12 on node 7
 Transformed complex orbital k=40, spin=1, band=1 on node 8
 Transformed complex orbital k=40, spin=1, band=2 on node 9
 Transformed complex orbital k=40, spin=1, band=3 on node 10
 Transformed complex orbital k=40, spin=1, band=4 on node 11
 Transformed complex orbital k=40, spin=1, band=5 on node 12
 Transformed complex orbital k=40, spin=1, band=6 on node 13
 Transformed complex orbital k=40, spin=1, band=7 on node 14
 Transformed complex orbital k=40, spin=1, band=8 on node 15
 Transformed complex orbital k=40, spin=1, band=9 on node 16
 Transformed complex orbital k=40, spin=1, band=10 on node 17
 Transformed complex orbital k=40, spin=1, band=11 on node 18
 Transformed complex orbital k=40, spin=1, band=12 on node 19
 Transformed complex orbital k=41, spin=1, band=1 on node 0
 Transformed complex orbital k=41, spin=1, band=2 on node 1
 Transformed complex orbital k=41, spin=1, band=3 on node 2
 Transformed complex orbital k=41, spin=1, band=4 on node 3
 Transformed complex orbital k=41, spin=1, band=5 on node 4
 Transformed complex orbital k=41, spin=1, band=6 on node 5
 Transformed complex orbital k=41, spin=1, band=7 on node 6
 Transformed complex orbital k=41, spin=1, band=8 on node 7
 Transformed complex orbital k=41, spin=1, band=9 on node 8
 Transformed complex orbital k=41, spin=1, band=10 on node 9
 Transformed complex orbital k=41, spin=1, band=11 on node 10
 Transformed complex orbital k=41, spin=1, band=12 on node 11
 Transformed complex orbital k=42, spin=1, band=1 on node 12
 Transformed complex orbital k=42, spin=1, band=2 on node 13
 Transformed complex orbital k=42, spin=1, band=3 on node 14
 Transformed complex orbital k=42, spin=1, band=4 on node 15
 Transformed complex orbital k=42, spin=1, band=5 on node 16
 Transformed complex orbital k=42, spin=1, band=6 on node 17
 Transformed complex orbital k=42, spin=1, band=7 on node 18
 Transformed complex orbital k=42, spin=1, band=8 on node 19
 Transformed complex orbital k=42, spin=1, band=9 on node 0
 Transformed complex orbital k=42, spin=1, band=10 on node 1
 Transformed complex orbital k=42, spin=1, band=11 on node 2
 Transformed complex orbital k=42, spin=1, band=12 on node 3
 Transformed complex orbital k=43, spin=1, band=1 on node 4
 Transformed complex orbital k=43, spin=1, band=2 on node 5
 Transformed complex orbital k=43, spin=1, band=3 on node 6
 Transformed complex orbital k=43, spin=1, band=4 on node 7
 Transformed complex orbital k=43, spin=1, band=5 on node 8
 Transformed complex orbital k=43, spin=1, band=6 on node 9
 Transformed complex orbital k=43, spin=1, band=7 on node 10
 Transformed complex orbital k=43, spin=1, band=8 on node 11
 Transformed complex orbital k=43, spin=1, band=9 on node 12
 Transformed complex orbital k=43, spin=1, band=10 on node 13
 Transformed complex orbital k=43, spin=1, band=11 on node 14
 Transformed complex orbital k=43, spin=1, band=12 on node 15
 Transformed complex orbital k=44, spin=1, band=1 on node 16
 Transformed complex orbital k=44, spin=1, band=2 on node 17
 Transformed complex orbital k=44, spin=1, band=3 on node 18
 Transformed complex orbital k=44, spin=1, band=4 on node 19
 Transformed complex orbital k=44, spin=1, band=5 on node 0
 Transformed complex orbital k=44, spin=1, band=6 on node 1
 Transformed complex orbital k=44, spin=1, band=7 on node 2
 Transformed complex orbital k=44, spin=1, band=8 on node 3
 Transformed complex orbital k=44, spin=1, band=9 on node 4
 Transformed complex orbital k=44, spin=1, band=10 on node 5
 Transformed complex orbital k=44, spin=1, band=11 on node 6
 Transformed complex orbital k=44, spin=1, band=12 on node 7
 Transformed complex orbital k=45, spin=1, band=1 on node 8
 Transformed complex orbital k=45, spin=1, band=2 on node 9
 Transformed complex orbital k=45, spin=1, band=3 on node 10
 Transformed complex orbital k=45, spin=1, band=4 on node 11
 Transformed complex orbital k=45, spin=1, band=5 on node 12
 Transformed complex orbital k=45, spin=1, band=6 on node 13
 Transformed complex orbital k=45, spin=1, band=7 on node 14
 Transformed complex orbital k=45, spin=1, band=8 on node 15
 Transformed complex orbital k=45, spin=1, band=9 on node 16
 Transformed complex orbital k=45, spin=1, band=10 on node 17
 Transformed complex orbital k=45, spin=1, band=11 on node 18
 Transformed complex orbital k=45, spin=1, band=12 on node 19
 Transformed complex orbital k=46, spin=1, band=1 on node 0
 Transformed complex orbital k=46, spin=1, band=2 on node 1
 Transformed complex orbital k=46, spin=1, band=3 on node 2
 Transformed complex orbital k=46, spin=1, band=4 on node 3
 Transformed complex orbital k=46, spin=1, band=5 on node 4
 Transformed complex orbital k=46, spin=1, band=6 on node 5
 Transformed complex orbital k=46, spin=1, band=7 on node 6
 Transformed complex orbital k=46, spin=1, band=8 on node 7
 Transformed complex orbital k=46, spin=1, band=9 on node 8
 Transformed complex orbital k=46, spin=1, band=10 on node 9
 Transformed complex orbital k=46, spin=1, band=11 on node 10
 Transformed complex orbital k=46, spin=1, band=12 on node 11
 Transformed complex orbital k=47, spin=1, band=1 on node 12
 Transformed complex orbital k=47, spin=1, band=2 on node 13
 Transformed complex orbital k=47, spin=1, band=3 on node 14
 Transformed complex orbital k=47, spin=1, band=4 on node 15
 Transformed complex orbital k=47, spin=1, band=5 on node 16
 Transformed complex orbital k=47, spin=1, band=6 on node 17
 Transformed complex orbital k=47, spin=1, band=7 on node 18
 Transformed complex orbital k=47, spin=1, band=8 on node 19
 Transformed complex orbital k=47, spin=1, band=9 on node 0
 Transformed complex orbital k=47, spin=1, band=10 on node 1
 Transformed complex orbital k=47, spin=1, band=11 on node 2
 Transformed complex orbital k=47, spin=1, band=12 on node 3
 Transformed complex orbital k=48, spin=1, band=1 on node 4
 Transformed complex orbital k=48, spin=1, band=2 on node 5
 Transformed complex orbital k=48, spin=1, band=3 on node 6
 Transformed complex orbital k=48, spin=1, band=4 on node 7
 Transformed complex orbital k=48, spin=1, band=5 on node 8
 Transformed complex orbital k=48, spin=1, band=6 on node 9
 Transformed complex orbital k=48, spin=1, band=7 on node 10
 Transformed complex orbital k=48, spin=1, band=8 on node 11
 Transformed complex orbital k=48, spin=1, band=9 on node 12
 Transformed complex orbital k=48, spin=1, band=10 on node 13
 Transformed complex orbital k=48, spin=1, band=11 on node 14
 Transformed complex orbital k=48, spin=1, band=12 on node 15
 Transformed complex orbital k=49, spin=1, band=1 on node 16
 Transformed complex orbital k=49, spin=1, band=2 on node 17
 Transformed complex orbital k=49, spin=1, band=3 on node 18
 Transformed complex orbital k=49, spin=1, band=4 on node 19
 Transformed complex orbital k=49, spin=1, band=5 on node 0
 Transformed complex orbital k=49, spin=1, band=6 on node 1
 Transformed complex orbital k=49, spin=1, band=7 on node 2
 Transformed complex orbital k=49, spin=1, band=8 on node 3
 Transformed complex orbital k=49, spin=1, band=9 on node 4
 Transformed complex orbital k=49, spin=1, band=10 on node 5
 Transformed complex orbital k=49, spin=1, band=11 on node 6
 Transformed complex orbital k=49, spin=1, band=12 on node 7
 Transformed complex orbital k=50, spin=1, band=1 on node 8
 Transformed complex orbital k=50, spin=1, band=2 on node 9
 Transformed complex orbital k=50, spin=1, band=3 on node 10
 Transformed complex orbital k=50, spin=1, band=4 on node 11
 Transformed complex orbital k=50, spin=1, band=5 on node 12
 Transformed complex orbital k=50, spin=1, band=6 on node 13
 Transformed complex orbital k=50, spin=1, band=7 on node 14
 Transformed complex orbital k=50, spin=1, band=8 on node 15
 Transformed complex orbital k=50, spin=1, band=9 on node 16
 Transformed complex orbital k=50, spin=1, band=10 on node 17
 Transformed complex orbital k=50, spin=1, band=11 on node 18
 Transformed complex orbital k=50, spin=1, band=12 on node 19
 Transformed complex orbital k=51, spin=1, band=1 on node 0
 Transformed complex orbital k=51, spin=1, band=2 on node 1
 Transformed complex orbital k=51, spin=1, band=3 on node 2
 Transformed complex orbital k=51, spin=1, band=4 on node 3
 Transformed complex orbital k=51, spin=1, band=5 on node 4
 Transformed complex orbital k=51, spin=1, band=6 on node 5
 Transformed complex orbital k=51, spin=1, band=7 on node 6
 Transformed complex orbital k=51, spin=1, band=8 on node 7
 Transformed complex orbital k=51, spin=1, band=9 on node 8
 Transformed complex orbital k=51, spin=1, band=10 on node 9
 Transformed complex orbital k=51, spin=1, band=11 on node 10
 Transformed complex orbital k=51, spin=1, band=12 on node 11
 Transformed complex orbital k=52, spin=1, band=1 on node 12
 Transformed complex orbital k=52, spin=1, band=2 on node 13
 Transformed complex orbital k=52, spin=1, band=3 on node 14
 Transformed complex orbital k=52, spin=1, band=4 on node 15
 Transformed complex orbital k=52, spin=1, band=5 on node 16
 Transformed complex orbital k=52, spin=1, band=6 on node 17
 Transformed complex orbital k=52, spin=1, band=7 on node 18
 Transformed complex orbital k=52, spin=1, band=8 on node 19
 Transformed complex orbital k=52, spin=1, band=9 on node 0
 Transformed complex orbital k=52, spin=1, band=10 on node 1
 Transformed complex orbital k=52, spin=1, band=11 on node 2
 Transformed complex orbital k=52, spin=1, band=12 on node 3
 Transformed complex orbital k=53, spin=1, band=1 on node 4
 Transformed complex orbital k=53, spin=1, band=2 on node 5
 Transformed complex orbital k=53, spin=1, band=3 on node 6
 Transformed complex orbital k=53, spin=1, band=4 on node 7
 Transformed complex orbital k=53, spin=1, band=5 on node 8
 Transformed complex orbital k=53, spin=1, band=6 on node 9
 Transformed complex orbital k=53, spin=1, band=7 on node 10
 Transformed complex orbital k=53, spin=1, band=8 on node 11
 Transformed complex orbital k=53, spin=1, band=9 on node 12
 Transformed complex orbital k=53, spin=1, band=10 on node 13
 Transformed complex orbital k=53, spin=1, band=11 on node 14
 Transformed complex orbital k=53, spin=1, band=12 on node 15
 Transformed complex orbital k=54, spin=1, band=1 on node 16
 Transformed complex orbital k=54, spin=1, band=2 on node 17
 Transformed complex orbital k=54, spin=1, band=3 on node 18
 Transformed complex orbital k=54, spin=1, band=4 on node 19
 Transformed complex orbital k=54, spin=1, band=5 on node 0
 Transformed complex orbital k=54, spin=1, band=6 on node 1
 Transformed complex orbital k=54, spin=1, band=7 on node 2
 Transformed complex orbital k=54, spin=1, band=8 on node 3
 Transformed complex orbital k=54, spin=1, band=9 on node 4
 Transformed complex orbital k=54, spin=1, band=10 on node 5
 Transformed complex orbital k=54, spin=1, band=11 on node 6
 Transformed complex orbital k=54, spin=1, band=12 on node 7
 Transformed complex orbital k=55, spin=1, band=1 on node 8
 Transformed complex orbital k=55, spin=1, band=2 on node 9
 Transformed complex orbital k=55, spin=1, band=3 on node 10
 Transformed complex orbital k=55, spin=1, band=4 on node 11
 Transformed complex orbital k=55, spin=1, band=5 on node 12
 Transformed complex orbital k=55, spin=1, band=6 on node 13
 Transformed complex orbital k=55, spin=1, band=7 on node 14
 Transformed complex orbital k=55, spin=1, band=8 on node 15
 Transformed complex orbital k=55, spin=1, band=9 on node 16
 Transformed complex orbital k=55, spin=1, band=10 on node 17
 Transformed complex orbital k=55, spin=1, band=11 on node 18
 Transformed complex orbital k=55, spin=1, band=12 on node 19
 Transformed complex orbital k=56, spin=1, band=1 on node 0
 Transformed complex orbital k=56, spin=1, band=2 on node 1
 Transformed complex orbital k=56, spin=1, band=3 on node 2
 Transformed complex orbital k=56, spin=1, band=4 on node 3
 Transformed complex orbital k=56, spin=1, band=5 on node 4
 Transformed complex orbital k=56, spin=1, band=6 on node 5
 Transformed complex orbital k=56, spin=1, band=7 on node 6
 Transformed complex orbital k=56, spin=1, band=8 on node 7
 Transformed complex orbital k=56, spin=1, band=9 on node 8
 Transformed complex orbital k=56, spin=1, band=10 on node 9
 Transformed complex orbital k=56, spin=1, band=11 on node 10
 Transformed complex orbital k=56, spin=1, band=12 on node 11
 Transformed complex orbital k=57, spin=1, band=1 on node 12
 Transformed complex orbital k=57, spin=1, band=2 on node 13
 Transformed complex orbital k=57, spin=1, band=3 on node 14
 Transformed complex orbital k=57, spin=1, band=4 on node 15
 Transformed complex orbital k=57, spin=1, band=5 on node 16
 Transformed complex orbital k=57, spin=1, band=6 on node 17
 Transformed complex orbital k=57, spin=1, band=7 on node 18
 Transformed complex orbital k=57, spin=1, band=8 on node 19
 Transformed complex orbital k=57, spin=1, band=9 on node 0
 Transformed complex orbital k=57, spin=1, band=10 on node 1
 Transformed complex orbital k=57, spin=1, band=11 on node 2
 Transformed complex orbital k=57, spin=1, band=12 on node 3
 Transformed complex orbital k=58, spin=1, band=1 on node 4
 Transformed complex orbital k=58, spin=1, band=2 on node 5
 Transformed complex orbital k=58, spin=1, band=3 on node 6
 Transformed complex orbital k=58, spin=1, band=4 on node 7
 Transformed complex orbital k=58, spin=1, band=5 on node 8
 Transformed complex orbital k=58, spin=1, band=6 on node 9
 Transformed complex orbital k=58, spin=1, band=7 on node 10
 Transformed complex orbital k=58, spin=1, band=8 on node 11
 Transformed complex orbital k=58, spin=1, band=9 on node 12
 Transformed complex orbital k=58, spin=1, band=10 on node 13
 Transformed complex orbital k=58, spin=1, band=11 on node 14
 Transformed complex orbital k=58, spin=1, band=12 on node 15
 Transformed complex orbital k=59, spin=1, band=1 on node 16
 Transformed complex orbital k=59, spin=1, band=2 on node 17
 Transformed complex orbital k=59, spin=1, band=3 on node 18
 Transformed complex orbital k=59, spin=1, band=4 on node 19
 Transformed complex orbital k=59, spin=1, band=5 on node 0
 Transformed complex orbital k=59, spin=1, band=6 on node 1
 Transformed complex orbital k=59, spin=1, band=7 on node 2
 Transformed complex orbital k=59, spin=1, band=8 on node 3
 Transformed complex orbital k=59, spin=1, band=9 on node 4
 Transformed complex orbital k=59, spin=1, band=10 on node 5
 Transformed complex orbital k=59, spin=1, band=11 on node 6
 Transformed complex orbital k=59, spin=1, band=12 on node 7
 Transformed complex orbital k=60, spin=1, band=1 on node 8
 Transformed complex orbital k=60, spin=1, band=2 on node 9
 Transformed complex orbital k=60, spin=1, band=3 on node 10
 Transformed complex orbital k=60, spin=1, band=4 on node 11
 Transformed complex orbital k=60, spin=1, band=5 on node 12
 Transformed complex orbital k=60, spin=1, band=6 on node 13
 Transformed complex orbital k=60, spin=1, band=7 on node 14
 Transformed complex orbital k=60, spin=1, band=8 on node 15
 Transformed complex orbital k=60, spin=1, band=9 on node 16
 Transformed complex orbital k=60, spin=1, band=10 on node 17
 Transformed complex orbital k=60, spin=1, band=11 on node 18
 Transformed complex orbital k=60, spin=1, band=12 on node 19
 Transformed complex orbital k=61, spin=1, band=1 on node 0
 Transformed complex orbital k=61, spin=1, band=2 on node 1
 Transformed complex orbital k=61, spin=1, band=3 on node 2
 Transformed complex orbital k=61, spin=1, band=4 on node 3
 Transformed complex orbital k=61, spin=1, band=5 on node 4
 Transformed complex orbital k=61, spin=1, band=6 on node 5
 Transformed complex orbital k=61, spin=1, band=7 on node 6
 Transformed complex orbital k=61, spin=1, band=8 on node 7
 Transformed complex orbital k=61, spin=1, band=9 on node 8
 Transformed complex orbital k=61, spin=1, band=10 on node 9
 Transformed complex orbital k=61, spin=1, band=11 on node 10
 Transformed complex orbital k=61, spin=1, band=12 on node 11
 Transformed complex orbital k=62, spin=1, band=1 on node 12
 Transformed complex orbital k=62, spin=1, band=2 on node 13
 Transformed complex orbital k=62, spin=1, band=3 on node 14
 Transformed complex orbital k=62, spin=1, band=4 on node 15
 Transformed complex orbital k=62, spin=1, band=5 on node 16
 Transformed complex orbital k=62, spin=1, band=6 on node 17
 Transformed complex orbital k=62, spin=1, band=7 on node 18
 Transformed complex orbital k=62, spin=1, band=8 on node 19
 Transformed complex orbital k=62, spin=1, band=9 on node 0
 Transformed complex orbital k=62, spin=1, band=10 on node 1
 Transformed complex orbital k=62, spin=1, band=11 on node 2
 Transformed complex orbital k=62, spin=1, band=12 on node 3
 Transformed complex orbital k=63, spin=1, band=1 on node 4
 Transformed complex orbital k=63, spin=1, band=2 on node 5
 Transformed complex orbital k=63, spin=1, band=3 on node 6
 Transformed complex orbital k=63, spin=1, band=4 on node 7
 Transformed complex orbital k=63, spin=1, band=5 on node 8
 Transformed complex orbital k=63, spin=1, band=6 on node 9
 Transformed complex orbital k=63, spin=1, band=7 on node 10
 Transformed complex orbital k=63, spin=1, band=8 on node 11
 Transformed complex orbital k=63, spin=1, band=9 on node 12
 Transformed complex orbital k=63, spin=1, band=10 on node 13
 Transformed complex orbital k=63, spin=1, band=11 on node 14
 Transformed complex orbital k=63, spin=1, band=12 on node 15
 Transformed complex orbital k=64, spin=1, band=1 on node 16
 Transformed complex orbital k=64, spin=1, band=2 on node 17
 Transformed complex orbital k=64, spin=1, band=3 on node 18
 Transformed complex orbital k=64, spin=1, band=4 on node 19
 Transformed complex orbital k=64, spin=1, band=5 on node 0
 Transformed complex orbital k=64, spin=1, band=6 on node 1
 Transformed complex orbital k=64, spin=1, band=7 on node 2
 Transformed complex orbital k=64, spin=1, band=8 on node 3
 Transformed complex orbital k=64, spin=1, band=9 on node 4
 Transformed complex orbital k=64, spin=1, band=10 on node 5
 Transformed complex orbital k=64, spin=1, band=11 on node 6
 Transformed complex orbital k=64, spin=1, band=12 on node 7
 Transformed complex orbital k=65, spin=1, band=1 on node 8
 Transformed complex orbital k=65, spin=1, band=2 on node 9
 Transformed complex orbital k=65, spin=1, band=3 on node 10
 Transformed complex orbital k=65, spin=1, band=4 on node 11
 Transformed complex orbital k=65, spin=1, band=5 on node 12
 Transformed complex orbital k=65, spin=1, band=6 on node 13
 Transformed complex orbital k=65, spin=1, band=7 on node 14
 Transformed complex orbital k=65, spin=1, band=8 on node 15
 Transformed complex orbital k=65, spin=1, band=9 on node 16
 Transformed complex orbital k=65, spin=1, band=10 on node 17
 Transformed complex orbital k=65, spin=1, band=11 on node 18
 Transformed complex orbital k=65, spin=1, band=12 on node 19
 Transformed complex orbital k=66, spin=1, band=1 on node 0
 Transformed complex orbital k=66, spin=1, band=2 on node 1
 Transformed complex orbital k=66, spin=1, band=3 on node 2
 Transformed complex orbital k=66, spin=1, band=4 on node 3
 Transformed complex orbital k=66, spin=1, band=5 on node 4
 Transformed complex orbital k=66, spin=1, band=6 on node 5
 Transformed complex orbital k=66, spin=1, band=7 on node 6
 Transformed complex orbital k=66, spin=1, band=8 on node 7
 Transformed complex orbital k=66, spin=1, band=9 on node 8
 Transformed complex orbital k=66, spin=1, band=10 on node 9
 Transformed complex orbital k=66, spin=1, band=11 on node 10
 Transformed complex orbital k=66, spin=1, band=12 on node 11
 Transformed complex orbital k=67, spin=1, band=1 on node 12
 Transformed complex orbital k=67, spin=1, band=2 on node 13
 Transformed complex orbital k=67, spin=1, band=3 on node 14
 Transformed complex orbital k=67, spin=1, band=4 on node 15
 Transformed complex orbital k=67, spin=1, band=5 on node 16
 Transformed complex orbital k=67, spin=1, band=6 on node 17
 Transformed complex orbital k=67, spin=1, band=7 on node 18
 Transformed complex orbital k=67, spin=1, band=8 on node 19
 Transformed complex orbital k=67, spin=1, band=9 on node 0
 Transformed complex orbital k=67, spin=1, band=10 on node 1
 Transformed complex orbital k=67, spin=1, band=11 on node 2
 Transformed complex orbital k=67, spin=1, band=12 on node 3
 Transformed complex orbital k=68, spin=1, band=1 on node 4
 Transformed complex orbital k=68, spin=1, band=2 on node 5
 Transformed complex orbital k=68, spin=1, band=3 on node 6
 Transformed complex orbital k=68, spin=1, band=4 on node 7
 Transformed complex orbital k=68, spin=1, band=5 on node 8
 Transformed complex orbital k=68, spin=1, band=6 on node 9
 Transformed complex orbital k=68, spin=1, band=7 on node 10
 Transformed complex orbital k=68, spin=1, band=8 on node 11
 Transformed complex orbital k=68, spin=1, band=9 on node 12
 Transformed complex orbital k=68, spin=1, band=10 on node 13
 Transformed complex orbital k=68, spin=1, band=11 on node 14
 Transformed complex orbital k=68, spin=1, band=12 on node 15
 Transformed complex orbital k=69, spin=1, band=1 on node 16
 Transformed complex orbital k=69, spin=1, band=2 on node 17
 Transformed complex orbital k=69, spin=1, band=3 on node 18
 Transformed complex orbital k=69, spin=1, band=4 on node 19
 Transformed complex orbital k=69, spin=1, band=5 on node 0
 Transformed complex orbital k=69, spin=1, band=6 on node 1
 Transformed complex orbital k=69, spin=1, band=7 on node 2
 Transformed complex orbital k=69, spin=1, band=8 on node 3
 Transformed complex orbital k=69, spin=1, band=9 on node 4
 Transformed complex orbital k=69, spin=1, band=10 on node 5
 Transformed complex orbital k=69, spin=1, band=11 on node 6
 Transformed complex orbital k=69, spin=1, band=12 on node 7
 Transformed complex orbital k=70, spin=1, band=1 on node 8
 Transformed complex orbital k=70, spin=1, band=2 on node 9
 Transformed complex orbital k=70, spin=1, band=3 on node 10
 Transformed complex orbital k=70, spin=1, band=4 on node 11
 Transformed complex orbital k=70, spin=1, band=5 on node 12
 Transformed complex orbital k=70, spin=1, band=6 on node 13
 Transformed complex orbital k=70, spin=1, band=7 on node 14
 Transformed complex orbital k=70, spin=1, band=8 on node 15
 Transformed complex orbital k=70, spin=1, band=9 on node 16
 Transformed complex orbital k=70, spin=1, band=10 on node 17
 Transformed complex orbital k=70, spin=1, band=11 on node 18
 Transformed complex orbital k=70, spin=1, band=12 on node 19
 Transformed complex orbital k=71, spin=1, band=1 on node 0
 Transformed complex orbital k=71, spin=1, band=2 on node 1
 Transformed complex orbital k=71, spin=1, band=3 on node 2
 Transformed complex orbital k=71, spin=1, band=4 on node 3
 Transformed complex orbital k=71, spin=1, band=5 on node 4
 Transformed complex orbital k=71, spin=1, band=6 on node 5
 Transformed complex orbital k=71, spin=1, band=7 on node 6
 Transformed complex orbital k=71, spin=1, band=8 on node 7
 Transformed complex orbital k=71, spin=1, band=9 on node 8
 Transformed complex orbital k=71, spin=1, band=10 on node 9
 Transformed complex orbital k=71, spin=1, band=11 on node 10
 Transformed complex orbital k=71, spin=1, band=12 on node 11
 Transformed complex orbital k=72, spin=1, band=1 on node 12
 Transformed complex orbital k=72, spin=1, band=2 on node 13
 Transformed complex orbital k=72, spin=1, band=3 on node 14
 Transformed complex orbital k=72, spin=1, band=4 on node 15
 Transformed complex orbital k=72, spin=1, band=5 on node 16
 Transformed complex orbital k=72, spin=1, band=6 on node 17
 Transformed complex orbital k=72, spin=1, band=7 on node 18
 Transformed complex orbital k=72, spin=1, band=8 on node 19
 Transformed complex orbital k=72, spin=1, band=9 on node 0
 Transformed complex orbital k=72, spin=1, band=10 on node 1
 Transformed complex orbital k=72, spin=1, band=11 on node 2
 Transformed complex orbital k=72, spin=1, band=12 on node 3
 Transformed complex orbital k=73, spin=1, band=1 on node 4
 Transformed complex orbital k=73, spin=1, band=2 on node 5
 Transformed complex orbital k=73, spin=1, band=3 on node 6
 Transformed complex orbital k=73, spin=1, band=4 on node 7
 Transformed complex orbital k=73, spin=1, band=5 on node 8
 Transformed complex orbital k=73, spin=1, band=6 on node 9
 Transformed complex orbital k=73, spin=1, band=7 on node 10
 Transformed complex orbital k=73, spin=1, band=8 on node 11
 Transformed complex orbital k=73, spin=1, band=9 on node 12
 Transformed complex orbital k=73, spin=1, band=10 on node 13
 Transformed complex orbital k=73, spin=1, band=11 on node 14
 Transformed complex orbital k=73, spin=1, band=12 on node 15
 Transformed complex orbital k=74, spin=1, band=1 on node 16
 Transformed complex orbital k=74, spin=1, band=2 on node 17
 Transformed complex orbital k=74, spin=1, band=3 on node 18
 Transformed complex orbital k=74, spin=1, band=4 on node 19
 Transformed complex orbital k=74, spin=1, band=5 on node 0
 Transformed complex orbital k=74, spin=1, band=6 on node 1
 Transformed complex orbital k=74, spin=1, band=7 on node 2
 Transformed complex orbital k=74, spin=1, band=8 on node 3
 Transformed complex orbital k=74, spin=1, band=9 on node 4
 Transformed complex orbital k=74, spin=1, band=10 on node 5
 Transformed complex orbital k=74, spin=1, band=11 on node 6
 Transformed complex orbital k=74, spin=1, band=12 on node 7
 Transformed complex orbital k=75, spin=1, band=1 on node 8
 Transformed complex orbital k=75, spin=1, band=2 on node 9
 Transformed complex orbital k=75, spin=1, band=3 on node 10
 Transformed complex orbital k=75, spin=1, band=4 on node 11
 Transformed complex orbital k=75, spin=1, band=5 on node 12
 Transformed complex orbital k=75, spin=1, band=6 on node 13
 Transformed complex orbital k=75, spin=1, band=7 on node 14
 Transformed complex orbital k=75, spin=1, band=8 on node 15
 Transformed complex orbital k=75, spin=1, band=9 on node 16
 Transformed complex orbital k=75, spin=1, band=10 on node 17
 Transformed complex orbital k=75, spin=1, band=11 on node 18
 Transformed complex orbital k=75, spin=1, band=12 on node 19
 Transformed complex orbital k=76, spin=1, band=1 on node 0
 Transformed complex orbital k=76, spin=1, band=2 on node 1
 Transformed complex orbital k=76, spin=1, band=3 on node 2
 Transformed complex orbital k=76, spin=1, band=4 on node 3
 Transformed complex orbital k=76, spin=1, band=5 on node 4
 Transformed complex orbital k=76, spin=1, band=6 on node 5
 Transformed complex orbital k=76, spin=1, band=7 on node 6
 Transformed complex orbital k=76, spin=1, band=8 on node 7
 Transformed complex orbital k=76, spin=1, band=9 on node 8
 Transformed complex orbital k=76, spin=1, band=10 on node 9
 Transformed complex orbital k=76, spin=1, band=11 on node 10
 Transformed complex orbital k=76, spin=1, band=12 on node 11
 Transformed complex orbital k=77, spin=1, band=1 on node 12
 Transformed complex orbital k=77, spin=1, band=2 on node 13
 Transformed complex orbital k=77, spin=1, band=3 on node 14
 Transformed complex orbital k=77, spin=1, band=4 on node 15
 Transformed complex orbital k=77, spin=1, band=5 on node 16
 Transformed complex orbital k=77, spin=1, band=6 on node 17
 Transformed complex orbital k=77, spin=1, band=7 on node 18
 Transformed complex orbital k=77, spin=1, band=8 on node 19
 Transformed complex orbital k=77, spin=1, band=9 on node 0
 Transformed complex orbital k=77, spin=1, band=10 on node 1
 Transformed complex orbital k=77, spin=1, band=11 on node 2
 Transformed complex orbital k=77, spin=1, band=12 on node 3
 Transformed complex orbital k=78, spin=1, band=1 on node 4
 Transformed complex orbital k=78, spin=1, band=2 on node 5
 Transformed complex orbital k=78, spin=1, band=3 on node 6
 Transformed complex orbital k=78, spin=1, band=4 on node 7
 Transformed complex orbital k=78, spin=1, band=5 on node 8
 Transformed complex orbital k=78, spin=1, band=6 on node 9
 Transformed complex orbital k=78, spin=1, band=7 on node 10
 Transformed complex orbital k=78, spin=1, band=8 on node 11
 Transformed complex orbital k=78, spin=1, band=9 on node 12
 Transformed complex orbital k=78, spin=1, band=10 on node 13
 Transformed complex orbital k=78, spin=1, band=11 on node 14
 Transformed complex orbital k=78, spin=1, band=12 on node 15
 Transformed complex orbital k=79, spin=1, band=1 on node 16
 Transformed complex orbital k=79, spin=1, band=2 on node 17
 Transformed complex orbital k=79, spin=1, band=3 on node 18
 Transformed complex orbital k=79, spin=1, band=4 on node 19
 Transformed complex orbital k=79, spin=1, band=5 on node 0
 Transformed complex orbital k=79, spin=1, band=6 on node 1
 Transformed complex orbital k=79, spin=1, band=7 on node 2
 Transformed complex orbital k=79, spin=1, band=8 on node 3
 Transformed complex orbital k=79, spin=1, band=9 on node 4
 Transformed complex orbital k=79, spin=1, band=10 on node 5
 Transformed complex orbital k=79, spin=1, band=11 on node 6
 Transformed complex orbital k=79, spin=1, band=12 on node 7
 Transformed complex orbital k=80, spin=1, band=1 on node 8
 Transformed complex orbital k=80, spin=1, band=2 on node 9
 Transformed complex orbital k=80, spin=1, band=3 on node 10
 Transformed complex orbital k=80, spin=1, band=4 on node 11
 Transformed complex orbital k=80, spin=1, band=5 on node 12
 Transformed complex orbital k=80, spin=1, band=6 on node 13
 Transformed complex orbital k=80, spin=1, band=7 on node 14
 Transformed complex orbital k=80, spin=1, band=8 on node 15
 Transformed complex orbital k=80, spin=1, band=9 on node 16
 Transformed complex orbital k=80, spin=1, band=10 on node 17
 Transformed complex orbital k=80, spin=1, band=11 on node 18
 Transformed complex orbital k=80, spin=1, band=12 on node 19
 Transformed complex orbital k=81, spin=1, band=1 on node 0
 Transformed complex orbital k=81, spin=1, band=2 on node 1
 Transformed complex orbital k=81, spin=1, band=3 on node 2
 Transformed complex orbital k=81, spin=1, band=4 on node 3
 Transformed complex orbital k=81, spin=1, band=5 on node 4
 Transformed complex orbital k=81, spin=1, band=6 on node 5
 Transformed complex orbital k=81, spin=1, band=7 on node 6
 Transformed complex orbital k=81, spin=1, band=8 on node 7
 Transformed complex orbital k=81, spin=1, band=9 on node 8
 Transformed complex orbital k=81, spin=1, band=10 on node 9
 Transformed complex orbital k=81, spin=1, band=11 on node 10
 Transformed complex orbital k=81, spin=1, band=12 on node 11
 Transformed complex orbital k=82, spin=1, band=1 on node 12
 Transformed complex orbital k=82, spin=1, band=2 on node 13
 Transformed complex orbital k=82, spin=1, band=3 on node 14
 Transformed complex orbital k=82, spin=1, band=4 on node 15
 Transformed complex orbital k=82, spin=1, band=5 on node 16
 Transformed complex orbital k=82, spin=1, band=6 on node 17
 Transformed complex orbital k=82, spin=1, band=7 on node 18
 Transformed complex orbital k=82, spin=1, band=8 on node 19
 Transformed complex orbital k=82, spin=1, band=9 on node 0
 Transformed complex orbital k=82, spin=1, band=10 on node 1
 Transformed complex orbital k=82, spin=1, band=11 on node 2
 Transformed complex orbital k=82, spin=1, band=12 on node 3
 Transformed complex orbital k=83, spin=1, band=1 on node 4
 Transformed complex orbital k=83, spin=1, band=2 on node 5
 Transformed complex orbital k=83, spin=1, band=3 on node 6
 Transformed complex orbital k=83, spin=1, band=4 on node 7
 Transformed complex orbital k=83, spin=1, band=5 on node 8
 Transformed complex orbital k=83, spin=1, band=6 on node 9
 Transformed complex orbital k=83, spin=1, band=7 on node 10
 Transformed complex orbital k=83, spin=1, band=8 on node 11
 Transformed complex orbital k=83, spin=1, band=9 on node 12
 Transformed complex orbital k=83, spin=1, band=10 on node 13
 Transformed complex orbital k=83, spin=1, band=11 on node 14
 Transformed complex orbital k=83, spin=1, band=12 on node 15
 Transformed complex orbital k=84, spin=1, band=1 on node 16
 Transformed complex orbital k=84, spin=1, band=2 on node 17
 Transformed complex orbital k=84, spin=1, band=3 on node 18
 Transformed complex orbital k=84, spin=1, band=4 on node 19
 Transformed complex orbital k=84, spin=1, band=5 on node 0
 Transformed complex orbital k=84, spin=1, band=6 on node 1
 Transformed complex orbital k=84, spin=1, band=7 on node 2
 Transformed complex orbital k=84, spin=1, band=8 on node 3
 Transformed complex orbital k=84, spin=1, band=9 on node 4
 Transformed complex orbital k=84, spin=1, band=10 on node 5
 Transformed complex orbital k=84, spin=1, band=11 on node 6
 Transformed complex orbital k=84, spin=1, band=12 on node 7
 Transformed complex orbital k=85, spin=1, band=1 on node 8
 Transformed complex orbital k=85, spin=1, band=2 on node 9
 Transformed complex orbital k=85, spin=1, band=3 on node 10
 Transformed complex orbital k=85, spin=1, band=4 on node 11
 Transformed complex orbital k=85, spin=1, band=5 on node 12
 Transformed complex orbital k=85, spin=1, band=6 on node 13
 Transformed complex orbital k=85, spin=1, band=7 on node 14
 Transformed complex orbital k=85, spin=1, band=8 on node 15
 Transformed complex orbital k=85, spin=1, band=9 on node 16
 Transformed complex orbital k=85, spin=1, band=10 on node 17
 Transformed complex orbital k=85, spin=1, band=11 on node 18
 Transformed complex orbital k=85, spin=1, band=12 on node 19
 Transformed complex orbital k=86, spin=1, band=1 on node 0
 Transformed complex orbital k=86, spin=1, band=2 on node 1
 Transformed complex orbital k=86, spin=1, band=3 on node 2
 Transformed complex orbital k=86, spin=1, band=4 on node 3
 Transformed complex orbital k=86, spin=1, band=5 on node 4
 Transformed complex orbital k=86, spin=1, band=6 on node 5
 Transformed complex orbital k=86, spin=1, band=7 on node 6
 Transformed complex orbital k=86, spin=1, band=8 on node 7
 Transformed complex orbital k=86, spin=1, band=9 on node 8
 Transformed complex orbital k=86, spin=1, band=10 on node 9
 Transformed complex orbital k=86, spin=1, band=11 on node 10
 Transformed complex orbital k=86, spin=1, band=12 on node 11
 Transformed complex orbital k=87, spin=1, band=1 on node 12
 Transformed complex orbital k=87, spin=1, band=2 on node 13
 Transformed complex orbital k=87, spin=1, band=3 on node 14
 Transformed complex orbital k=87, spin=1, band=4 on node 15
 Transformed complex orbital k=87, spin=1, band=5 on node 16
 Transformed complex orbital k=87, spin=1, band=6 on node 17
 Transformed complex orbital k=87, spin=1, band=7 on node 18
 Transformed complex orbital k=87, spin=1, band=8 on node 19
 Transformed complex orbital k=87, spin=1, band=9 on node 0
 Transformed complex orbital k=87, spin=1, band=10 on node 1
 Transformed complex orbital k=87, spin=1, band=11 on node 2
 Transformed complex orbital k=87, spin=1, band=12 on node 3
 Transformed complex orbital k=88, spin=1, band=1 on node 4
 Transformed complex orbital k=88, spin=1, band=2 on node 5
 Transformed complex orbital k=88, spin=1, band=3 on node 6
 Transformed complex orbital k=88, spin=1, band=4 on node 7
 Transformed complex orbital k=88, spin=1, band=5 on node 8
 Transformed complex orbital k=88, spin=1, band=6 on node 9
 Transformed complex orbital k=88, spin=1, band=7 on node 10
 Transformed complex orbital k=88, spin=1, band=8 on node 11
 Transformed complex orbital k=88, spin=1, band=9 on node 12
 Transformed complex orbital k=88, spin=1, band=10 on node 13
 Transformed complex orbital k=88, spin=1, band=11 on node 14
 Transformed complex orbital k=88, spin=1, band=12 on node 15
 Transformed complex orbital k=89, spin=1, band=1 on node 16
 Transformed complex orbital k=89, spin=1, band=2 on node 17
 Transformed complex orbital k=89, spin=1, band=3 on node 18
 Transformed complex orbital k=89, spin=1, band=4 on node 19
 Transformed complex orbital k=89, spin=1, band=5 on node 0
 Transformed complex orbital k=89, spin=1, band=6 on node 1
 Transformed complex orbital k=89, spin=1, band=7 on node 2
 Transformed complex orbital k=89, spin=1, band=8 on node 3
 Transformed complex orbital k=89, spin=1, band=9 on node 4
 Transformed complex orbital k=89, spin=1, band=10 on node 5
 Transformed complex orbital k=89, spin=1, band=11 on node 6
 Transformed complex orbital k=89, spin=1, band=12 on node 7
 Transformed complex orbital k=90, spin=1, band=1 on node 8
 Transformed complex orbital k=90, spin=1, band=2 on node 9
 Transformed complex orbital k=90, spin=1, band=3 on node 10
 Transformed complex orbital k=90, spin=1, band=4 on node 11
 Transformed complex orbital k=90, spin=1, band=5 on node 12
 Transformed complex orbital k=90, spin=1, band=6 on node 13
 Transformed complex orbital k=90, spin=1, band=7 on node 14
 Transformed complex orbital k=90, spin=1, band=8 on node 15
 Transformed complex orbital k=90, spin=1, band=9 on node 16
 Transformed complex orbital k=90, spin=1, band=10 on node 17
 Transformed complex orbital k=90, spin=1, band=11 on node 18
 Transformed complex orbital k=90, spin=1, band=12 on node 19
 Transformed complex orbital k=91, spin=1, band=1 on node 0
 Transformed complex orbital k=91, spin=1, band=2 on node 1
 Transformed complex orbital k=91, spin=1, band=3 on node 2
 Transformed complex orbital k=91, spin=1, band=4 on node 3
 Transformed complex orbital k=91, spin=1, band=5 on node 4
 Transformed complex orbital k=91, spin=1, band=6 on node 5
 Transformed complex orbital k=91, spin=1, band=7 on node 6
 Transformed complex orbital k=91, spin=1, band=8 on node 7
 Transformed complex orbital k=91, spin=1, band=9 on node 8
 Transformed complex orbital k=91, spin=1, band=10 on node 9
 Transformed complex orbital k=91, spin=1, band=11 on node 10
 Transformed complex orbital k=91, spin=1, band=12 on node 11
 Transformed complex orbital k=92, spin=1, band=1 on node 12
 Transformed complex orbital k=92, spin=1, band=2 on node 13
 Transformed complex orbital k=92, spin=1, band=3 on node 14
 Transformed complex orbital k=92, spin=1, band=4 on node 15
 Transformed complex orbital k=92, spin=1, band=5 on node 16
 Transformed complex orbital k=92, spin=1, band=6 on node 17
 Transformed complex orbital k=92, spin=1, band=7 on node 18
 Transformed complex orbital k=92, spin=1, band=8 on node 19
 Transformed complex orbital k=92, spin=1, band=9 on node 0
 Transformed complex orbital k=92, spin=1, band=10 on node 1
 Transformed complex orbital k=92, spin=1, band=11 on node 2
 Transformed complex orbital k=92, spin=1, band=12 on node 3
 Transformed complex orbital k=93, spin=1, band=1 on node 4
 Transformed complex orbital k=93, spin=1, band=2 on node 5
 Transformed complex orbital k=93, spin=1, band=3 on node 6
 Transformed complex orbital k=93, spin=1, band=4 on node 7
 Transformed complex orbital k=93, spin=1, band=5 on node 8
 Transformed complex orbital k=93, spin=1, band=6 on node 9
 Transformed complex orbital k=93, spin=1, band=7 on node 10
 Transformed complex orbital k=93, spin=1, band=8 on node 11
 Transformed complex orbital k=93, spin=1, band=9 on node 12
 Transformed complex orbital k=93, spin=1, band=10 on node 13
 Transformed complex orbital k=93, spin=1, band=11 on node 14
 Transformed complex orbital k=93, spin=1, band=12 on node 15
 Transformed complex orbital k=94, spin=1, band=1 on node 16
 Transformed complex orbital k=94, spin=1, band=2 on node 17
 Transformed complex orbital k=94, spin=1, band=3 on node 18
 Transformed complex orbital k=94, spin=1, band=4 on node 19
 Transformed complex orbital k=94, spin=1, band=5 on node 0
 Transformed complex orbital k=94, spin=1, band=6 on node 1
 Transformed complex orbital k=94, spin=1, band=7 on node 2
 Transformed complex orbital k=94, spin=1, band=8 on node 3
 Transformed complex orbital k=94, spin=1, band=9 on node 4
 Transformed complex orbital k=94, spin=1, band=10 on node 5
 Transformed complex orbital k=94, spin=1, band=11 on node 6
 Transformed complex orbital k=94, spin=1, band=12 on node 7
 Transformed complex orbital k=95, spin=1, band=1 on node 8
 Transformed complex orbital k=95, spin=1, band=2 on node 9
 Transformed complex orbital k=95, spin=1, band=3 on node 10
 Transformed complex orbital k=95, spin=1, band=4 on node 11
 Transformed complex orbital k=95, spin=1, band=5 on node 12
 Transformed complex orbital k=95, spin=1, band=6 on node 13
 Transformed complex orbital k=95, spin=1, band=7 on node 14
 Transformed complex orbital k=95, spin=1, band=8 on node 15
 Transformed complex orbital k=95, spin=1, band=9 on node 16
 Transformed complex orbital k=95, spin=1, band=10 on node 17
 Transformed complex orbital k=95, spin=1, band=11 on node 18
 Transformed complex orbital k=95, spin=1, band=12 on node 19
 Transformed complex orbital k=96, spin=1, band=1 on node 0
 Transformed complex orbital k=96, spin=1, band=2 on node 1
 Transformed complex orbital k=96, spin=1, band=3 on node 2
 Transformed complex orbital k=96, spin=1, band=4 on node 3
 Transformed complex orbital k=96, spin=1, band=5 on node 4
 Transformed complex orbital k=96, spin=1, band=6 on node 5
 Transformed complex orbital k=96, spin=1, band=7 on node 6
 Transformed complex orbital k=96, spin=1, band=8 on node 7
 Transformed complex orbital k=96, spin=1, band=9 on node 8
 Transformed complex orbital k=96, spin=1, band=10 on node 9
 Transformed complex orbital k=96, spin=1, band=11 on node 10
 Transformed complex orbital k=96, spin=1, band=12 on node 11
 Transformed complex orbital k=97, spin=1, band=1 on node 12
 Transformed complex orbital k=97, spin=1, band=2 on node 13
 Transformed complex orbital k=97, spin=1, band=3 on node 14
 Transformed complex orbital k=97, spin=1, band=4 on node 15
 Transformed complex orbital k=97, spin=1, band=5 on node 16
 Transformed complex orbital k=97, spin=1, band=6 on node 17
 Transformed complex orbital k=97, spin=1, band=7 on node 18
 Transformed complex orbital k=97, spin=1, band=8 on node 19
 Transformed complex orbital k=97, spin=1, band=9 on node 0
 Transformed complex orbital k=97, spin=1, band=10 on node 1
 Transformed complex orbital k=97, spin=1, band=11 on node 2
 Transformed complex orbital k=97, spin=1, band=12 on node 3
 Transformed complex orbital k=98, spin=1, band=1 on node 4
 Transformed complex orbital k=98, spin=1, band=2 on node 5
 Transformed complex orbital k=98, spin=1, band=3 on node 6
 Transformed complex orbital k=98, spin=1, band=4 on node 7
 Transformed complex orbital k=98, spin=1, band=5 on node 8
 Transformed complex orbital k=98, spin=1, band=6 on node 9
 Transformed complex orbital k=98, spin=1, band=7 on node 10
 Transformed complex orbital k=98, spin=1, band=8 on node 11
 Transformed complex orbital k=98, spin=1, band=9 on node 12
 Transformed complex orbital k=98, spin=1, band=10 on node 13
 Transformed complex orbital k=98, spin=1, band=11 on node 14
 Transformed complex orbital k=98, spin=1, band=12 on node 15
 Transformed complex orbital k=99, spin=1, band=1 on node 16
 Transformed complex orbital k=99, spin=1, band=2 on node 17
 Transformed complex orbital k=99, spin=1, band=3 on node 18
 Transformed complex orbital k=99, spin=1, band=4 on node 19
 Transformed complex orbital k=99, spin=1, band=5 on node 0
 Transformed complex orbital k=99, spin=1, band=6 on node 1
 Transformed complex orbital k=99, spin=1, band=7 on node 2
 Transformed complex orbital k=99, spin=1, band=8 on node 3
 Transformed complex orbital k=99, spin=1, band=9 on node 4
 Transformed complex orbital k=99, spin=1, band=10 on node 5
 Transformed complex orbital k=99, spin=1, band=11 on node 6
 Transformed complex orbital k=99, spin=1, band=12 on node 7
 Transformed complex orbital k=100, spin=1, band=1 on node 8
[...]
 Transformed complex orbital k=3977, spin=1, band=5 on node 16
 Transformed complex orbital k=3977, spin=1, band=6 on node 17
 Transformed complex orbital k=3977, spin=1, band=7 on node 18
 Transformed complex orbital k=3977, spin=1, band=8 on node 19
 Transformed complex orbital k=3977, spin=1, band=9 on node 0
 Transformed complex orbital k=3977, spin=1, band=10 on node 1
 Transformed complex orbital k=3977, spin=1, band=11 on node 2
 Transformed complex orbital k=3977, spin=1, band=12 on node 3
 Transformed complex orbital k=3978, spin=1, band=1 on node 4
 Transformed complex orbital k=3978, spin=1, band=2 on node 5
 Transformed complex orbital k=3978, spin=1, band=3 on node 6
 Transformed complex orbital k=3978, spin=1, band=4 on node 7
 Transformed complex orbital k=3978, spin=1, band=5 on node 8
 Transformed complex orbital k=3978, spin=1, band=6 on node 9
 Transformed complex orbital k=3978, spin=1, band=7 on node 10
 Transformed complex orbital k=3978, spin=1, band=8 on node 11
 Transformed complex orbital k=3978, spin=1, band=9 on node 12
 Transformed complex orbital k=3978, spin=1, band=10 on node 13
 Transformed complex orbital k=3978, spin=1, band=11 on node 14
 Transformed complex orbital k=3978, spin=1, band=12 on node 15
 Transformed complex orbital k=3979, spin=1, band=1 on node 16
 Transformed complex orbital k=3979, spin=1, band=2 on node 17
 Transformed complex orbital k=3979, spin=1, band=3 on node 18
 Transformed complex orbital k=3979, spin=1, band=4 on node 19
 Transformed complex orbital k=3979, spin=1, band=5 on node 0
 Transformed complex orbital k=3979, spin=1, band=6 on node 1
 Transformed complex orbital k=3979, spin=1, band=7 on node 2
 Transformed complex orbital k=3979, spin=1, band=8 on node 3
 Transformed complex orbital k=3979, spin=1, band=9 on node 4
 Transformed complex orbital k=3979, spin=1, band=10 on node 5
 Transformed complex orbital k=3979, spin=1, band=11 on node 6
 Transformed complex orbital k=3979, spin=1, band=12 on node 7
 Transformed complex orbital k=3980, spin=1, band=1 on node 8
 Transformed complex orbital k=3980, spin=1, band=2 on node 9
 Transformed complex orbital k=3980, spin=1, band=3 on node 10
 Transformed complex orbital k=3980, spin=1, band=4 on node 11
 Transformed complex orbital k=3980, spin=1, band=5 on node 12
 Transformed complex orbital k=3980, spin=1, band=6 on node 13
 Transformed complex orbital k=3980, spin=1, band=7 on node 14
 Transformed complex orbital k=3980, spin=1, band=8 on node 15
 Transformed complex orbital k=3980, spin=1, band=9 on node 16
 Transformed complex orbital k=3980, spin=1, band=10 on node 17
 Transformed complex orbital k=3980, spin=1, band=11 on node 18
 Transformed complex orbital k=3980, spin=1, band=12 on node 19
 Transformed complex orbital k=3981, spin=1, band=1 on node 0
 Transformed complex orbital k=3981, spin=1, band=2 on node 1
 Transformed complex orbital k=3981, spin=1, band=3 on node 2
 Transformed complex orbital k=3981, spin=1, band=4 on node 3
 Transformed complex orbital k=3981, spin=1, band=5 on node 4
 Transformed complex orbital k=3981, spin=1, band=6 on node 5
 Transformed complex orbital k=3981, spin=1, band=7 on node 6
 Transformed complex orbital k=3981, spin=1, band=8 on node 7
 Transformed complex orbital k=3981, spin=1, band=9 on node 8
 Transformed complex orbital k=3981, spin=1, band=10 on node 9
 Transformed complex orbital k=3981, spin=1, band=11 on node 10
 Transformed complex orbital k=3981, spin=1, band=12 on node 11
 Transformed complex orbital k=3982, spin=1, band=1 on node 12
 Transformed complex orbital k=3982, spin=1, band=2 on node 13
 Transformed complex orbital k=3982, spin=1, band=3 on node 14
 Transformed complex orbital k=3982, spin=1, band=4 on node 15
 Transformed complex orbital k=3982, spin=1, band=5 on node 16
 Transformed complex orbital k=3982, spin=1, band=6 on node 17
 Transformed complex orbital k=3982, spin=1, band=7 on node 18
 Transformed complex orbital k=3982, spin=1, band=8 on node 19
 Transformed complex orbital k=3982, spin=1, band=9 on node 0
 Transformed complex orbital k=3982, spin=1, band=10 on node 1
 Transformed complex orbital k=3982, spin=1, band=11 on node 2
 Transformed complex orbital k=3982, spin=1, band=12 on node 3
 Transformed complex orbital k=3983, spin=1, band=1 on node 4
 Transformed complex orbital k=3983, spin=1, band=2 on node 5
 Transformed complex orbital k=3983, spin=1, band=3 on node 6
 Transformed complex orbital k=3983, spin=1, band=4 on node 7
 Transformed complex orbital k=3983, spin=1, band=5 on node 8
 Transformed complex orbital k=3983, spin=1, band=6 on node 9
 Transformed complex orbital k=3983, spin=1, band=7 on node 10
 Transformed complex orbital k=3983, spin=1, band=8 on node 11
 Transformed complex orbital k=3983, spin=1, band=9 on node 12
 Transformed complex orbital k=3983, spin=1, band=10 on node 13
 Transformed complex orbital k=3983, spin=1, band=11 on node 14
 Transformed complex orbital k=3983, spin=1, band=12 on node 15
 Transformed complex orbital k=3984, spin=1, band=1 on node 16
 Transformed complex orbital k=3984, spin=1, band=2 on node 17
 Transformed complex orbital k=3984, spin=1, band=3 on node 18
 Transformed complex orbital k=3984, spin=1, band=4 on node 19
 Transformed complex orbital k=3984, spin=1, band=5 on node 0
 Transformed complex orbital k=3984, spin=1, band=6 on node 1
 Transformed complex orbital k=3984, spin=1, band=7 on node 2
 Transformed complex orbital k=3984, spin=1, band=8 on node 3
 Transformed complex orbital k=3984, spin=1, band=9 on node 4
 Transformed complex orbital k=3984, spin=1, band=10 on node 5
 Transformed complex orbital k=3984, spin=1, band=11 on node 6
 Transformed complex orbital k=3984, spin=1, band=12 on node 7
 Transformed complex orbital k=3985, spin=1, band=1 on node 8
 Transformed complex orbital k=3985, spin=1, band=2 on node 9
 Transformed complex orbital k=3985, spin=1, band=3 on node 10
 Transformed complex orbital k=3985, spin=1, band=4 on node 11
 Transformed complex orbital k=3985, spin=1, band=5 on node 12
 Transformed complex orbital k=3985, spin=1, band=6 on node 13
 Transformed complex orbital k=3985, spin=1, band=7 on node 14
 Transformed complex orbital k=3985, spin=1, band=8 on node 15
 Transformed complex orbital k=3985, spin=1, band=9 on node 16
 Transformed complex orbital k=3985, spin=1, band=10 on node 17
 Transformed complex orbital k=3985, spin=1, band=11 on node 18
 Transformed complex orbital k=3985, spin=1, band=12 on node 19
 Transformed complex orbital k=3986, spin=1, band=1 on node 0
 Transformed complex orbital k=3986, spin=1, band=2 on node 1
 Transformed complex orbital k=3986, spin=1, band=3 on node 2
 Transformed complex orbital k=3986, spin=1, band=4 on node 3
 Transformed complex orbital k=3986, spin=1, band=5 on node 4
 Transformed complex orbital k=3986, spin=1, band=6 on node 5
 Transformed complex orbital k=3986, spin=1, band=7 on node 6
 Transformed complex orbital k=3986, spin=1, band=8 on node 7
 Transformed complex orbital k=3986, spin=1, band=9 on node 8
 Transformed complex orbital k=3986, spin=1, band=10 on node 9
 Transformed complex orbital k=3986, spin=1, band=11 on node 10
 Transformed complex orbital k=3986, spin=1, band=12 on node 11
 Transformed complex orbital k=3987, spin=1, band=1 on node 12
 Transformed complex orbital k=3987, spin=1, band=2 on node 13
 Transformed complex orbital k=3987, spin=1, band=3 on node 14
 Transformed complex orbital k=3987, spin=1, band=4 on node 15
 Transformed complex orbital k=3987, spin=1, band=5 on node 16
 Transformed complex orbital k=3987, spin=1, band=6 on node 17
 Transformed complex orbital k=3987, spin=1, band=7 on node 18
 Transformed complex orbital k=3987, spin=1, band=8 on node 19
 Transformed complex orbital k=3987, spin=1, band=9 on node 0
 Transformed complex orbital k=3987, spin=1, band=10 on node 1
 Transformed complex orbital k=3987, spin=1, band=11 on node 2
 Transformed complex orbital k=3987, spin=1, band=12 on node 3
 Transformed complex orbital k=3988, spin=1, band=1 on node 4
 Transformed complex orbital k=3988, spin=1, band=2 on node 5
 Transformed complex orbital k=3988, spin=1, band=3 on node 6
 Transformed complex orbital k=3988, spin=1, band=4 on node 7
 Transformed complex orbital k=3988, spin=1, band=5 on node 8
 Transformed complex orbital k=3988, spin=1, band=6 on node 9
 Transformed complex orbital k=3988, spin=1, band=7 on node 10
 Transformed complex orbital k=3988, spin=1, band=8 on node 11
 Transformed complex orbital k=3988, spin=1, band=9 on node 12
 Transformed complex orbital k=3988, spin=1, band=10 on node 13
 Transformed complex orbital k=3988, spin=1, band=11 on node 14
 Transformed complex orbital k=3988, spin=1, band=12 on node 15
 Transformed complex orbital k=3989, spin=1, band=1 on node 16
 Transformed complex orbital k=3989, spin=1, band=2 on node 17
 Transformed complex orbital k=3989, spin=1, band=3 on node 18
 Transformed complex orbital k=3989, spin=1, band=4 on node 19
 Transformed complex orbital k=3989, spin=1, band=5 on node 0
 Transformed complex orbital k=3989, spin=1, band=6 on node 1
 Transformed complex orbital k=3989, spin=1, band=7 on node 2
 Transformed complex orbital k=3989, spin=1, band=8 on node 3
 Transformed complex orbital k=3989, spin=1, band=9 on node 4
 Transformed complex orbital k=3989, spin=1, band=10 on node 5
 Transformed complex orbital k=3989, spin=1, band=11 on node 6
 Transformed complex orbital k=3989, spin=1, band=12 on node 7
 Transformed complex orbital k=3990, spin=1, band=1 on node 8
 Transformed complex orbital k=3990, spin=1, band=2 on node 9
 Transformed complex orbital k=3990, spin=1, band=3 on node 10
 Transformed complex orbital k=3990, spin=1, band=4 on node 11
 Transformed complex orbital k=3990, spin=1, band=5 on node 12
 Transformed complex orbital k=3990, spin=1, band=6 on node 13
 Transformed complex orbital k=3990, spin=1, band=7 on node 14
 Transformed complex orbital k=3990, spin=1, band=8 on node 15
 Transformed complex orbital k=3990, spin=1, band=9 on node 16
 Transformed complex orbital k=3990, spin=1, band=10 on node 17
 Transformed complex orbital k=3990, spin=1, band=11 on node 18
 Transformed complex orbital k=3990, spin=1, band=12 on node 19
 Transformed complex orbital k=3991, spin=1, band=1 on node 0
 Transformed complex orbital k=3991, spin=1, band=2 on node 1
 Transformed complex orbital k=3991, spin=1, band=3 on node 2
 Transformed complex orbital k=3991, spin=1, band=4 on node 3
 Transformed complex orbital k=3991, spin=1, band=5 on node 4
 Transformed complex orbital k=3991, spin=1, band=6 on node 5
 Transformed complex orbital k=3991, spin=1, band=7 on node 6
 Transformed complex orbital k=3991, spin=1, band=8 on node 7
 Transformed complex orbital k=3991, spin=1, band=9 on node 8
 Transformed complex orbital k=3991, spin=1, band=10 on node 9
 Transformed complex orbital k=3991, spin=1, band=11 on node 10
 Transformed complex orbital k=3991, spin=1, band=12 on node 11
 Transformed complex orbital k=3992, spin=1, band=1 on node 12
 Transformed complex orbital k=3992, spin=1, band=2 on node 13
 Transformed complex orbital k=3992, spin=1, band=3 on node 14
 Transformed complex orbital k=3992, spin=1, band=4 on node 15
 Transformed complex orbital k=3992, spin=1, band=5 on node 16
 Transformed complex orbital k=3992, spin=1, band=6 on node 17
 Transformed complex orbital k=3992, spin=1, band=7 on node 18
 Transformed complex orbital k=3992, spin=1, band=8 on node 19
 Transformed complex orbital k=3992, spin=1, band=9 on node 0
 Transformed complex orbital k=3992, spin=1, band=10 on node 1
 Transformed complex orbital k=3992, spin=1, band=11 on node 2
 Transformed complex orbital k=3992, spin=1, band=12 on node 3
 Transformed complex orbital k=3993, spin=1, band=1 on node 4
 Transformed complex orbital k=3993, spin=1, band=2 on node 5
 Transformed complex orbital k=3993, spin=1, band=3 on node 6
 Transformed complex orbital k=3993, spin=1, band=4 on node 7
 Transformed complex orbital k=3993, spin=1, band=5 on node 8
 Transformed complex orbital k=3993, spin=1, band=6 on node 9
 Transformed complex orbital k=3993, spin=1, band=7 on node 10
 Transformed complex orbital k=3993, spin=1, band=8 on node 11
 Transformed complex orbital k=3993, spin=1, band=9 on node 12
 Transformed complex orbital k=3993, spin=1, band=10 on node 13
 Transformed complex orbital k=3993, spin=1, band=11 on node 14
 Transformed complex orbital k=3993, spin=1, band=12 on node 15
 Transformed complex orbital k=3994, spin=1, band=1 on node 16
 Transformed complex orbital k=3994, spin=1, band=2 on node 17
 Transformed complex orbital k=3994, spin=1, band=3 on node 18
 Transformed complex orbital k=3994, spin=1, band=4 on node 19
 Transformed complex orbital k=3994, spin=1, band=5 on node 0
 Transformed complex orbital k=3994, spin=1, band=6 on node 1
 Transformed complex orbital k=3994, spin=1, band=7 on node 2
 Transformed complex orbital k=3994, spin=1, band=8 on node 3
 Transformed complex orbital k=3994, spin=1, band=9 on node 4
 Transformed complex orbital k=3994, spin=1, band=10 on node 5
 Transformed complex orbital k=3994, spin=1, band=11 on node 6
 Transformed complex orbital k=3994, spin=1, band=12 on node 7
 Transformed complex orbital k=3995, spin=1, band=1 on node 8
 Transformed complex orbital k=3995, spin=1, band=2 on node 9
 Transformed complex orbital k=3995, spin=1, band=3 on node 10
 Transformed complex orbital k=3995, spin=1, band=4 on node 11
 Transformed complex orbital k=3995, spin=1, band=5 on node 12
 Transformed complex orbital k=3995, spin=1, band=6 on node 13
 Transformed complex orbital k=3995, spin=1, band=7 on node 14
 Transformed complex orbital k=3995, spin=1, band=8 on node 15
 Transformed complex orbital k=3995, spin=1, band=9 on node 16
 Transformed complex orbital k=3995, spin=1, band=10 on node 17
 Transformed complex orbital k=3995, spin=1, band=11 on node 18
 Transformed complex orbital k=3995, spin=1, band=12 on node 19
 Transformed complex orbital k=3996, spin=1, band=1 on node 0
 Transformed complex orbital k=3996, spin=1, band=2 on node 1
 Transformed complex orbital k=3996, spin=1, band=3 on node 2
 Transformed complex orbital k=3996, spin=1, band=4 on node 3
 Transformed complex orbital k=3996, spin=1, band=5 on node 4
 Transformed complex orbital k=3996, spin=1, band=6 on node 5
 Transformed complex orbital k=3996, spin=1, band=7 on node 6
 Transformed complex orbital k=3996, spin=1, band=8 on node 7
 Transformed complex orbital k=3996, spin=1, band=9 on node 8
 Transformed complex orbital k=3996, spin=1, band=10 on node 9
 Transformed complex orbital k=3996, spin=1, band=11 on node 10
 Transformed complex orbital k=3996, spin=1, band=12 on node 11
 Transformed complex orbital k=3997, spin=1, band=1 on node 12
 Transformed complex orbital k=3997, spin=1, band=2 on node 13
 Transformed complex orbital k=3997, spin=1, band=3 on node 14
 Transformed complex orbital k=3997, spin=1, band=4 on node 15
 Transformed complex orbital k=3997, spin=1, band=5 on node 16
 Transformed complex orbital k=3997, spin=1, band=6 on node 17
 Transformed complex orbital k=3997, spin=1, band=7 on node 18
 Transformed complex orbital k=3997, spin=1, band=8 on node 19
 Transformed complex orbital k=3997, spin=1, band=9 on node 0
 Transformed complex orbital k=3997, spin=1, band=10 on node 1
 Transformed complex orbital k=3997, spin=1, band=11 on node 2
 Transformed complex orbital k=3997, spin=1, band=12 on node 3
 Transformed complex orbital k=3998, spin=1, band=1 on node 4
 Transformed complex orbital k=3998, spin=1, band=2 on node 5
 Transformed complex orbital k=3998, spin=1, band=3 on node 6
 Transformed complex orbital k=3998, spin=1, band=4 on node 7
 Transformed complex orbital k=3998, spin=1, band=5 on node 8
 Transformed complex orbital k=3998, spin=1, band=6 on node 9
 Transformed complex orbital k=3998, spin=1, band=7 on node 10
 Transformed complex orbital k=3998, spin=1, band=8 on node 11
 Transformed complex orbital k=3998, spin=1, band=9 on node 12
 Transformed complex orbital k=3998, spin=1, band=10 on node 13
 Transformed complex orbital k=3998, spin=1, band=11 on node 14
 Transformed complex orbital k=3998, spin=1, band=12 on node 15
 Transformed complex orbital k=3999, spin=1, band=1 on node 16
 Transformed complex orbital k=3999, spin=1, band=2 on node 17
 Transformed complex orbital k=3999, spin=1, band=3 on node 18
 Transformed complex orbital k=3999, spin=1, band=4 on node 19
 Transformed complex orbital k=3999, spin=1, band=5 on node 0
 Transformed complex orbital k=3999, spin=1, band=6 on node 1
 Transformed complex orbital k=3999, spin=1, band=7 on node 2
 Transformed complex orbital k=3999, spin=1, band=8 on node 3
 Transformed complex orbital k=3999, spin=1, band=9 on node 4
 Transformed complex orbital k=3999, spin=1, band=10 on node 5
 Transformed complex orbital k=3999, spin=1, band=11 on node 6
 Transformed complex orbital k=3999, spin=1, band=12 on node 7
 Transformed complex orbital k=4000, spin=1, band=1 on node 8
 Transformed complex orbital k=4000, spin=1, band=2 on node 9
 Transformed complex orbital k=4000, spin=1, band=3 on node 10
 Transformed complex orbital k=4000, spin=1, band=4 on node 11
 Transformed complex orbital k=4000, spin=1, band=5 on node 12
 Transformed complex orbital k=4000, spin=1, band=6 on node 13
 Transformed complex orbital k=4000, spin=1, band=7 on node 14
 Transformed complex orbital k=4000, spin=1, band=8 on node 15
 Transformed complex orbital k=4000, spin=1, band=9 on node 16
 Transformed complex orbital k=4000, spin=1, band=10 on node 17
 Transformed complex orbital k=4000, spin=1, band=11 on node 18
 Transformed complex orbital k=4000, spin=1, band=12 on node 19

     Writing output data file ./si_0.5_1_4_Btin_hd.save/
 
     init_run     :      5.60s CPU      6.10s WALL (       1 calls)
     electrons    :    136.58s CPU    146.14s WALL (       1 calls)

     Called by init_run:
     wfcinit      :      5.54s CPU      6.01s WALL (       1 calls)
     potinit      :      0.01s CPU      0.04s WALL (       1 calls)
     hinit0       :      0.01s CPU      0.01s WALL (       1 calls)

     Called by electrons:
     c_bands      :    122.57s CPU    131.05s WALL (       6 calls)
     sum_band     :     13.99s CPU     15.07s WALL (       6 calls)
     v_of_rho     :      0.00s CPU      0.00s WALL (       8 calls)
     mix_rho      :      0.00s CPU      0.00s WALL (       6 calls)

     Called by c_bands:
     init_us_2    :      0.47s CPU      0.50s WALL (   56000 calls)
     cegterg      :    121.03s CPU    129.36s WALL (   24000 calls)

     Called by sum_band:

     Called by *egterg:
     h_psi        :     88.76s CPU     95.29s WALL (  104572 calls)
     g_psi        :      0.34s CPU      0.37s WALL (   76572 calls)
     cdiaghg      :     28.30s CPU     29.95s WALL (  100572 calls)

     Called by h_psi:
     h_psi:calbec :      2.25s CPU      2.42s WALL (  104572 calls)
     vloc_psi     :     85.23s CPU     91.49s WALL (  104572 calls)
     add_vuspsi   :      0.67s CPU      0.74s WALL (  104572 calls)

     General routines
     calbec       :      2.04s CPU      2.21s WALL (  108572 calls)
     fft          :      0.00s CPU      0.00s WALL (      22 calls)
     ffts         :      0.00s CPU      0.00s WALL (       6 calls)
     fftw         :     91.36s CPU     98.08s WALL ( 2208910 calls)
 
     Parallel routines
     fft_scatt_xy :      8.29s CPU      8.91s WALL ( 2208938 calls)
     fft_scatt_yz :     65.22s CPU     70.12s WALL ( 2208938 calls)
 
     PWSCF        :   2m37.56s CPU   4m 2.05s WALL

 
   This run was terminated on:  17:23:34  10Aug2023            

=------------------------------------------------------------------------------=
   JOB DONE.
=------------------------------------------------------------------------------=
