 CRYSTAL
 PRIMVEC
    4.872947910    0.000009007   -0.000000000
   -1.076397190    4.584530620   -0.000000000
   -0.000000000   -0.000000000    5.038174795
 PRIMCOORD
           4           1
Si       -0.103851092    1.116933343    1.702041721
Si        2.440169031    1.938321197    0.700315713
Si        0.103861810    2.728998370    3.981944610
Si        2.432783760    0.664688412    2.942737201
BEGIN_BLOCK_DATAGRID_3D
3D_PWSCF
BEGIN_DATAGRID_3D_UNKNOWN
          46          46          49
  0.000000  0.000000  0.000000
    4.872948    0.000009   -0.000000
   -1.076397    4.584531   -0.000000
   -0.000000   -0.000000    5.038175
  0.361708E-02  0.366789E-02  0.370736E-02  0.373838E-02  0.376469E-02  0.378988E-02
  0.381705E-02  0.384902E-02  0.388855E-02  0.393828E-02  0.400025E-02  0.407539E-02
  0.416327E-02  0.426222E-02  0.436949E-02  0.448134E-02  0.459282E-02  0.469778E-02
  0.478913E-02  0.485935E-02  0.490111E-02  0.490790E-02  0.487509E-02  0.480086E-02
  0.468678E-02  0.453754E-02  0.436028E-02  0.416395E-02  0.395881E-02  0.375578E-02
  0.356531E-02  0.339612E-02  0.325455E-02  0.314462E-02  0.306848E-02  0.302668E-02
  0.301806E-02  0.303954E-02  0.308616E-02  0.315165E-02  0.322942E-02  0.331344E-02
  0.339852E-02  0.348008E-02  0.355400E-02  0.361708E-02  0.388855E-02  0.391704E-02
  0.392751E-02  0.392372E-02  0.391134E-02  0.389675E-02  0.388612E-02  0.388504E-02
  0.389856E-02  0.393125E-02  0.398702E-02  0.406849E-02  0.417644E-02  0.430952E-02
  0.446430E-02  0.463550E-02  0.481593E-02  0.499641E-02  0.516603E-02  0.531290E-02
  0.542524E-02  0.549253E-02  0.550681E-02  0.546381E-02  0.536384E-02  0.521190E-02
  0.501695E-02  0.479079E-02  0.454698E-02  0.429977E-02  0.406280E-02  0.384784E-02
  0.366391E-02  0.351718E-02  0.341120E-02  0.334706E-02  0.332337E-02  0.333616E-02
  0.337927E-02  0.344503E-02  0.352527E-02  0.361200E-02  0.369782E-02  0.377603E-02
  0.384097E-02  0.388855E-02  0.425696E-02  0.426885E-02  0.425597E-02  0.422282E-02
  0.417662E-02  0.412621E-02  0.408073E-02  0.404866E-02  0.403752E-02  0.405404E-02
  0.410415E-02  0.419237E-02  0.432094E-02  0.448918E-02  0.469350E-02  0.492767E-02
  0.518281E-02  0.544713E-02  0.570587E-02  0.594200E-02  0.613794E-02  0.627762E-02
  0.634850E-02  0.634297E-02  0.625949E-02  0.610291E-02  0.588399E-02  0.561793E-02
  0.532260E-02  0.501665E-02  0.471791E-02  0.444190E-02  0.420096E-02  0.400393E-02
  0.385618E-02  0.375968E-02  0.371297E-02  0.371136E-02  0.374743E-02  0.381203E-02
  0.389526E-02  0.398708E-02  0.407760E-02  0.415754E-02  0.421912E-02  0.425696E-02
  0.471515E-02  0.471587E-02  0.468473E-02  0.462687E-02  0.455093E-02  0.446796E-02
  0.438990E-02  0.432827E-02  0.429346E-02  0.429480E-02  0.434051E-02  0.443719E-02
  0.458882E-02  0.479588E-02  0.505524E-02  0.536030E-02  0.570097E-02  0.606306E-02
  0.642776E-02  0.677210E-02  0.707114E-02  0.730134E-02  0.744374E-02  0.748616E-02
  0.742430E-02  0.726227E-02  0.701237E-02  0.669362E-02  0.632940E-02  0.594449E-02
  0.556256E-02  0.520436E-02  0.488657E-02  0.462133E-02  0.441613E-02  0.427386E-02
  0.419309E-02  0.416849E-02  0.419155E-02  0.425159E-02  0.433674E-02  0.443454E-02
  0.453239E-02  0.461818E-02  0.468152E-02  0.471515E-02  0.525539E-02  0.525049E-02
  0.520624E-02  0.512812E-02  0.502613E-02  0.491343E-02  0.480473E-02  0.471475E-02
  0.465722E-02  0.464454E-02  0.468763E-02  0.479543E-02  0.497410E-02  0.522605E-02
  0.554946E-02  0.593808E-02  0.638081E-02  0.686093E-02  0.735507E-02  0.783337E-02
  0.826203E-02  0.860784E-02  0.884325E-02  0.894961E-02  0.891856E-02  0.875253E-02
  0.846483E-02  0.807863E-02  0.762405E-02  0.713405E-02  0.664048E-02  0.617138E-02
  0.574951E-02  0.539152E-02  0.510760E-02  0.490164E-02  0.477197E-02  0.471246E-02
  0.471355E-02  0.476307E-02  0.484700E-02  0.495008E-02  0.505653E-02  0.515111E-02
  0.522061E-02  0.525539E-02  0.586981E-02  0.586485E-02  0.581283E-02  0.571904E-02
  0.559461E-02  0.545491E-02  0.531752E-02  0.520059E-02  0.512156E-02  0.509636E-02
  0.513903E-02  0.526141E-02  0.547251E-02  0.577761E-02  0.617726E-02  0.666630E-02
  0.723291E-02  0.785744E-02  0.851126E-02  0.915666E-02  0.974936E-02  0.102443E-01
  0.106025E-01  0.107961E-01  0.108105E-01  0.106450E-01  0.103133E-01  0.984310E-02
  0.927288E-02  0.864620E-02  0.800575E-02  0.738932E-02  0.682779E-02  0.634407E-02
  0.595236E-02  0.565823E-02  0.545975E-02  0.534950E-02  0.531635E-02  0.534646E-02
  0.542361E-02  0.552942E-02  0.564441E-02  0.574972E-02  0.582899E-02  0.586981E-02
  0.655102E-02  0.655126E-02  0.649694E-02  0.639230E-02  0.624929E-02  0.608550E-02
  0.592166E-02  0.577955E-02  0.568055E-02  0.564456E-02  0.568938E-02  0.583049E-02
  0.608071E-02  0.644914E-02  0.693964E-02  0.754895E-02  0.826499E-02  0.906532E-02
  0.991561E-02  0.107693E-01  0.115700E-01  0.122581E-01  0.127797E-01  0.130938E-01
  0.131760E-01  0.130200E-01  0.126391E-01  0.120663E-01  0.113507E-01  0.105497E-01
  0.972025E-02  0.891254E-02  0.816772E-02  0.751663E-02  0.697916E-02  0.656400E-02
  0.626981E-02  0.608774E-02  0.600427E-02  0.600305E-02  0.606514E-02  0.616892E-02
  0.629087E-02  0.640787E-02  0.649980E-02  0.655102E-02  0.729196E-02  0.730241E-02
  0.725131E-02  0.714116E-02  0.698405E-02  0.679971E-02  0.661218E-02  0.644707E-02
  0.632985E-02  0.628475E-02  0.633418E-02  0.649846E-02  0.679529E-02  0.723847E-02
  0.783582E-02  0.858675E-02  0.947998E-02  0.104911E-01  0.115805E-01  0.126920E-01
  0.137550E-01  0.146923E-01  0.154306E-01  0.159106E-01  0.160933E-01  0.159631E-01
  0.155313E-01  0.148367E-01  0.139418E-01  0.129220E-01  0.118529E-01  0.108012E-01
  0.982101E-02  0.895264E-02  0.822298E-02  0.764532E-02  0.722034E-02  0.693858E-02
  0.678380E-02  0.673581E-02  0.677182E-02  0.686631E-02  0.699155E-02  0.711983E-02
  0.722651E-02  0.729196E-02  0.808571E-02  0.811125E-02  0.806918E-02  0.795955E-02
  0.779392E-02  0.759364E-02  0.738602E-02  0.720059E-02  0.706698E-02  0.701418E-02
  0.707020E-02  0.726159E-02  0.761227E-02  0.814153E-02  0.886170E-02  0.977578E-02
  0.108748E-01  0.121341E-01  0.135095E-01  0.149348E-01  0.163231E-01  0.175756E-01
  0.185948E-01  0.192978E-01  0.196251E-01  0.195477E-01  0.190716E-01  0.182410E-01
  0.171333E-01  0.158458E-01  0.144784E-01  0.131198E-01  0.118417E-01  0.106971E-01
  0.972090E-02  0.893178E-02  0.833343E-02  0.791696E-02  0.766386E-02  0.754940E-02
  0.754526E-02  0.762069E-02  0.774322E-02  0.788043E-02  0.800274E-02  0.808571E-02
  0.892685E-02  0.897234E-02  0.894552E-02  0.884326E-02  0.867573E-02  0.846523E-02
  0.824193E-02  0.803924E-02  0.789110E-02  0.783162E-02  0.789539E-02  0.811661E-02
  0.852675E-02  0.915154E-02  0.100086E-01  0.111058E-01  0.124382E-01  0.139830E-01
  0.156927E-01  0.174900E-01  0.192691E-01  0.209063E-01  0.222752E-01  0.232644E-01
  0.237896E-01  0.238037E-01  0.233039E-01  0.223366E-01  0.209930E-01  0.193937E-01
  0.176670E-01  0.159310E-01  0.142822E-01  0.127919E-01  0.115066E-01  0.104508E-01
  0.963095E-02  0.903896E-02  0.865480E-02  0.844933E-02  0.838763E-02  0.843199E-02
  0.854396E-02  0.868606E-02  0.882364E-02  0.892685E-02  0.981456E-02  0.988533E-02
  0.988061E-02  0.979320E-02  0.963105E-02  0.941647E-02  0.918194E-02  0.896467E-02
  0.880314E-02  0.873706E-02  0.880835E-02  0.905998E-02  0.953217E-02  0.102582E-01
  0.112622E-01  0.125583E-01  0.141480E-01  0.160120E-01  0.180999E-01  0.203223E-01
  0.225521E-01  0.246366E-01  0.264175E-01  0.277519E-01  0.285289E-01  0.286813E-01
  0.281945E-01  0.271118E-01  0.255322E-01  0.235957E-01  0.214606E-01  0.192797E-01
  0.171835E-01  0.152708E-01  0.136062E-01  0.122227E-01  0.111295E-01  0.103179E-01
  0.976599E-02  0.944079E-02  0.930089E-02  0.930045E-02  0.939339E-02  0.953605E-02
  0.968833E-02  0.981456E-02  0.107554E-01  0.108582E-01  0.108837E-01  0.108194E-01
  0.106703E-01  0.104575E-01  0.102152E-01  0.998434E-02  0.980842E-02  0.973339E-02
  0.980914E-02  0.100881E-01  0.106201E-01  0.114471E-01  0.126013E-01  0.141053E-01
  0.159682E-01  0.181757E-01  0.206746E-01  0.233619E-01  0.260859E-01  0.286614E-01
  0.308950E-01  0.326126E-01  0.336806E-01  0.340162E-01  0.335928E-01  0.324440E-01
  0.306644E-01  0.284024E-01  0.258403E-01  0.231683E-01  0.205592E-01  0.181501E-01
  0.160335E-01  0.142581E-01  0.128373E-01  0.117609E-01  0.110033E-01  0.105276E-01
  0.102868E-01  0.102269E-01  0.102932E-01  0.104337E-01  0.106018E-01  0.107554E-01
  0.117630E-01  0.119071E-01  0.119730E-01  0.119419E-01  0.118140E-01  0.116088E-01
  0.113610E-01  0.111152E-01  0.109205E-01  0.108301E-01  0.109024E-01  0.111997E-01
  0.117822E-01  0.127016E-01  0.139998E-01  0.157095E-01  0.178493E-01  0.204097E-01
  0.233339E-01  0.265036E-01  0.297387E-01  0.328158E-01  0.355029E-01  0.375986E-01
  0.389584E-01  0.394996E-01  0.391935E-01  0.380587E-01  0.361668E-01  0.336499E-01
  0.306975E-01  0.275324E-01  0.243761E-01  0.214156E-01  0.187836E-01  0.165546E-01
  0.147526E-01  0.133670E-01  0.123674E-01  0.117115E-01  0.113471E-01  0.112138E-01
  0.112474E-01  0.113862E-01  0.115747E-01  0.117630E-01  0.128540E-01  0.130520E-01
  0.131714E-01  0.131858E-01  0.130894E-01  0.128983E-01  0.126470E-01  0.123832E-01
  0.121623E-01  0.120454E-01  0.121001E-01  0.123992E-01  0.130134E-01  0.140054E-01
  0.154288E-01  0.173279E-01  0.197313E-01  0.226340E-01  0.259743E-01  0.296156E-01
  0.333437E-01  0.368888E-01  0.399747E-01  0.423783E-01  0.439657E-01  0.446859E-01
  0.445326E-01  0.435137E-01  0.416551E-01  0.390343E-01  0.358110E-01  0.322221E-01
  0.285381E-01  0.250085E-01  0.218214E-01  0.190902E-01  0.168599E-01  0.151252E-01
  0.138514E-01  0.129898E-01  0.124829E-01  0.122646E-01  0.122620E-01  0.124027E-01
  0.126199E-01  0.128540E-01  0.140430E-01  0.143110E-01  0.145003E-01  0.145756E-01
  0.145236E-01  0.143553E-01  0.141036E-01  0.138187E-01  0.135619E-01  0.134032E-01
  0.134203E-01  0.136964E-01  0.143135E-01  0.153461E-01  0.168607E-01  0.189149E-01
  0.215479E-01  0.247589E-01  0.284797E-01  0.325519E-01  0.367198E-01  0.406561E-01
  0.440317E-01  0.466063E-01  0.482833E-01  0.490860E-01  0.490731E-01  0.482622E-01
  0.466199E-01  0.441234E-01  0.408454E-01  0.369942E-01  0.328767E-01  0.288146E-01
  0.250703E-01  0.218132E-01  0.191229E-01  0.170090E-01  0.154373E-01  0.143526E-01
  0.136911E-01  0.133810E-01  0.133422E-01  0.134912E-01  0.137487E-01  0.140430E-01
  0.153393E-01  0.156966E-01  0.159758E-01  0.161307E-01  0.161391E-01  0.160050E-01
  0.157578E-01  0.154490E-01  0.151458E-01  0.149271E-01  0.148813E-01  0.151028E-01
  0.156848E-01  0.167140E-01  0.182702E-01  0.204253E-01  0.232305E-01  0.266898E-01
  0.307286E-01  0.351644E-01  0.396942E-01  0.439221E-01  0.474544E-01  0.500334E-01
  0.516201E-01  0.523524E-01  0.524021E-01  0.518351E-01  0.505680E-01  0.484475E-01
  0.453972E-01  0.415314E-01  0.371558E-01  0.326624E-01  0.284062E-01  0.246342E-01
  0.214769E-01  0.189712E-01  0.170909E-01  0.157773E-01  0.149590E-01  0.145580E-01
  0.144877E-01  0.146548E-01  0.149669E-01  0.153393E-01  0.167438E-01  0.172140E-01
  0.176068E-01  0.178640E-01  0.179521E-01  0.178660E-01  0.176300E-01  0.172953E-01
  0.169340E-01  0.166344E-01  0.164963E-01  0.166257E-01  0.171272E-01  0.180991E-01
  0.196337E-01  0.218170E-01  0.247131E-01  0.283339E-01  0.326015E-01  0.373131E-01
  0.421185E-01  0.465483E-01  0.501341E-01  0.525908E-01  0.539382E-01  0.544470E-01
  0.544368E-01  0.540649E-01  0.532345E-01  0.516690E-01  0.491070E-01  0.455028E-01
  0.411000E-01  0.363351E-01  0.316623E-01  0.274263E-01  0.238268E-01  0.209409E-01
  0.187596E-01  0.172253E-01  0.162600E-01  0.157784E-01  0.156879E-01  0.158872E-01
  0.162720E-01  0.167438E-01  0.182465E-01  0.188575E-01  0.193921E-01  0.197781E-01
  0.199685E-01  0.199470E-01  0.197310E-01  0.193692E-01  0.189380E-01  0.185346E-01
  0.182710E-01  0.182658E-01  0.186355E-01  0.194888E-01  0.209287E-01  0.230529E-01
  0.259387E-01  0.296097E-01  0.339927E-01  0.388750E-01  0.438720E-01  0.484495E-01
  0.520606E-01  0.543744E-01  0.554430E-01  0.556525E-01  0.554733E-01  0.551826E-01
  0.547201E-01  0.537339E-01  0.517927E-01  0.486577E-01  0.444497E-01  0.396001E-01
  0.346456E-01  0.300356E-01  0.260531E-01  0.228267E-01  0.203736E-01  0.186427E-01
  0.175520E-01  0.170098E-01  0.169180E-01  0.171692E-01  0.176494E-01  0.182465E-01
  0.198202E-01  0.206040E-01  0.213125E-01  0.218573E-01  0.221759E-01  0.222390E-01
  0.220546E-01  0.216675E-01  0.211564E-01  0.206267E-01  0.202027E-01  0.200171E-01
  0.201991E-01  0.208678E-01  0.221342E-01  0.241041E-01  0.268665E-01  0.304594E-01
  0.348239E-01  0.397549E-01  0.448585E-01  0.495621E-01  0.532512E-01  0.555279E-01
  0.564270E-01  0.563933E-01  0.560128E-01  0.556850E-01  0.554269E-01  0.548798E-01
  0.535060E-01  0.508960E-01  0.470191E-01  0.422482E-01  0.371613E-01  0.322970E-01
  0.280225E-01  0.245241E-01  0.218505E-01  0.199632E-01  0.187801E-01  0.182052E-01
  0.181372E-01  0.184651E-01  0.190677E-01  0.198202E-01  0.214143E-01  0.224045E-01
  0.233208E-01  0.240566E-01  0.245321E-01  0.247031E-01  0.245665E-01  0.241613E-01
  0.235659E-01  0.228923E-01  0.222762E-01  0.218649E-01  0.218022E-01  0.222187E-01
  0.232317E-01  0.249518E-01  0.274755E-01  0.308557E-01  0.350554E-01  0.398954E-01
  0.450046E-01  0.498134E-01  0.536699E-01  0.560999E-01  0.570620E-01  0.569764E-01
  0.564751E-01  0.560511E-01  0.558178E-01  0.554717E-01  0.544544E-01  0.522574E-01
  0.487190E-01  0.441225E-01  0.390365E-01  0.340509E-01  0.295997E-01  0.259223E-01
  0.231004E-01  0.211116E-01  0.198785E-01  0.193049E-01  0.192897E-01  0.197217E-01
  0.204752E-01  0.214143E-01  0.229535E-01  0.241802E-01  0.253362E-01  0.262945E-01
  0.269562E-01  0.272609E-01  0.271929E-01  0.267835E-01  0.261087E-01  0.252838E-01
  0.244535E-01  0.237788E-01  0.234195E-01  0.235198E-01  0.242044E-01  0.255858E-01
  0.277635E-01  0.308020E-01  0.346894E-01  0.392853E-01  0.442701E-01  0.491222E-01
  0.531993E-01  0.559666E-01  0.572648E-01  0.574017E-01  0.569639E-01  0.564798E-01
  0.561503E-01  0.557675E-01  0.548328E-01  0.528302E-01  0.495284E-01  0.451246E-01
  0.401377E-01  0.351601E-01  0.306595E-01  0.269130E-01  0.240309E-01  0.220076E-01
  0.207745E-01  0.202401E-01  0.203077E-01  0.208700E-01  0.218001E-01  0.229535E-01
  0.243430E-01  0.258272E-01  0.272467E-01  0.284537E-01  0.293285E-01  0.297925E-01
  0.298167E-01  0.294234E-01  0.286842E-01  0.277142E-01  0.266631E-01  0.257026E-01
  0.250084E-01  0.247405E-01  0.250337E-01  0.260018E-01  0.277431E-01  0.303288E-01
  0.337686E-01  0.379659E-01  0.426684E-01  0.474375E-01  0.516911E-01  0.548755E-01
  0.567111E-01  0.573330E-01  0.571912E-01  0.567715E-01  0.563256E-01  0.557530E-01
  0.546717E-01  0.526423E-01  0.494380E-01  0.452004E-01  0.403792E-01  0.355258E-01
  0.311031E-01  0.274034E-01  0.245564E-01  0.225723E-01  0.213936E-01  0.209379E-01
  0.211170E-01  0.218312E-01  0.229565E-01  0.243430E-01  0.254792E-01  0.272279E-01
  0.289215E-01  0.303924E-01  0.314997E-01  0.321453E-01  0.322853E-01  0.319324E-01
  0.311525E-01  0.300575E-01  0.287977E-01  0.275507E-01  0.265051E-01  0.258376E-01
  0.256961E-01  0.261980E-01  0.274380E-01  0.294874E-01  0.323714E-01  0.360327E-01
  0.402880E-01  0.447959E-01  0.490709E-01  0.525932E-01  0.550018E-01  0.562511E-01
  0.565961E-01  0.564032E-01  0.559177E-01  0.551294E-01  0.537970E-01  0.516120E-01
  0.484137E-01  0.443256E-01  0.397276E-01  0.351023E-01  0.308757E-01  0.273336E-01
  0.246142E-01  0.227410E-01  0.216695E-01  0.213293E-01  0.216441E-01  0.225249E-01
  0.238537E-01  0.254792E-01  0.262616E-01  0.282648E-01  0.302258E-01  0.319605E-01
  0.333081E-01  0.341505E-01  0.344276E-01  0.341416E-01  0.333514E-01  0.321639E-01
  0.307257E-01  0.292150E-01  0.278282E-01  0.267568E-01  0.261638E-01  0.261739E-01
  0.268786E-01  0.283442E-01  0.306032E-01  0.336277E-01  0.372944E-01  0.413540E-01
  0.454282E-01  0.490708E-01  0.518990E-01  0.537304E-01  0.546231E-01  0.547794E-01
  0.543809E-01  0.534672E-01  0.519263E-01  0.495961E-01  0.464121E-01  0.425078E-01
  0.382036E-01  0.339036E-01  0.299782E-01  0.266905E-01  0.241790E-01  0.224780E-01
  0.215572E-01  0.213608E-01  0.218267E-01  0.228784E-01  0.244065E-01  0.262616E-01
  0.266041E-01  0.288343E-01  0.310382E-01  0.330196E-01  0.346012E-01  0.356463E-01
  0.360779E-01  0.358857E-01  0.351202E-01  0.338819E-01  0.323107E-01  0.305805E-01
  0.288892E-01  0.274387E-01  0.264072E-01  0.259297E-01  0.260979E-01  0.269714E-01
  0.285818E-01  0.309194E-01  0.339063E-01  0.373683E-01  0.410243E-01  0.445156E-01
  0.474870E-01  0.496874E-01  0.510278E-01  0.515520E-01  0.513466E-01  0.504551E-01
  0.488550E-01  0.465074E-01  0.434410E-01  0.398096E-01  0.358866E-01  0.320022E-01
  0.284662E-01  0.255110E-01  0.232698E-01  0.217859E-01  0.210443E-01  0.210060E-01
  0.216245E-01  0.228370E-01  0.245449E-01  0.266041E-01  0.264475E-01  0.288606E-01
  0.312665E-01  0.334617E-01  0.352573E-01  0.365010E-01  0.370987E-01  0.370257E-01
  0.363222E-01  0.350799E-01  0.334308E-01  0.315406E-01  0.296036E-01  0.278258E-01
  0.263972E-01  0.254655E-01  0.251269E-01  0.254361E-01  0.264191E-01  0.280735E-01
  0.303512E-01  0.331340E-01  0.362177E-01  0.393247E-01  0.421518E-01  0.444379E-01
  0.460158E-01  0.468178E-01  0.468403E-01  0.460999E-01  0.446153E-01  0.424248E-01
  0.396212E-01  0.363734E-01  0.329179E-01  0.295226E-01  0.264412E-01  0.238737E-01
  0.219443E-01  0.207041E-01  0.201538E-01  0.202720E-01  0.210286E-01  0.223755E-01
  0.242268E-01  0.264475E-01  0.257716E-01  0.283087E-01  0.308619E-01  0.332253E-01
  0.352030E-01  0.366305E-01  0.373981E-01  0.374650E-01  0.368582E-01  0.356589E-01
  0.339898E-01  0.320073E-01  0.298980E-01  0.278659E-01  0.261074E-01  0.247810E-01
  0.239916E-01  0.237934E-01  0.242066E-01  0.252282E-01  0.268260E-01  0.289197E-01
  0.313625E-01  0.339432E-01  0.364147E-01  0.385398E-01  0.401301E-01  0.410629E-01
  0.412748E-01  0.407483E-01  0.395063E-01  0.376167E-01  0.351991E-01  0.324232E-01
  0.294943E-01  0.266306E-01  0.240382E-01  0.218859E-01  0.202875E-01  0.192997E-01
  0.189380E-01  0.191977E-01  0.200643E-01  0.215046E-01  0.234476E-01  0.257716E-01
  0.246018E-01  0.271925E-01  0.298273E-01  0.323028E-01  0.344199E-01  0.360057E-01
  0.369365E-01  0.371549E-01  0.366725E-01  0.355582E-01  0.339243E-01  0.319179E-01
  0.297163E-01  0.275168E-01  0.255152E-01  0.238764E-01  0.227139E-01  0.220863E-01
  0.220115E-01  0.224832E-01  0.234748E-01  0.249286E-01  0.267388E-01  0.287461E-01
  0.307551E-01  0.325651E-01  0.340002E-01  0.349250E-01  0.352499E-01  0.349328E-01
  0.339833E-01  0.324659E-01  0.304967E-01  0.282310E-01  0.258444E-01  0.235155E-01
  0.214111E-01  0.196720E-01  0.184004E-01  0.176568E-01  0.174688E-01  0.178459E-01
  0.187863E-01  0.202704E-01  0.222435E-01  0.246018E-01  0.230053E-01  0.255731E-01
  0.282161E-01  0.307384E-01  0.329420E-01  0.346490E-01  0.357242E-01  0.360943E-01
  0.357543E-01  0.347590E-01  0.332098E-01  0.312441E-01  0.290299E-01  0.267552E-01
  0.246091E-01  0.227563E-01  0.213151E-01  0.203503E-01  0.198823E-01  0.199032E-01
  0.203878E-01  0.212900E-01  0.225306E-01  0.239903E-01  0.255179E-01  0.269519E-01
  0.281422E-01  0.289642E-01  0.293256E-01  0.291733E-01  0.285014E-01  0.273565E-01
  0.258341E-01  0.240641E-01  0.221926E-01  0.203648E-01  0.187152E-01  0.173601E-01
  0.163902E-01  0.158675E-01  0.158287E-01  0.162932E-01  0.172686E-01  0.187456E-01
  0.206855E-01  0.230053E-01  0.210804E-01  0.235497E-01  0.261238E-01  0.286207E-01
  0.308484E-01  0.326278E-01  0.338162E-01  0.343266E-01  0.341371E-01  0.332871E-01
  0.318656E-01  0.300000E-01  0.278483E-01  0.255881E-01  0.233981E-01  0.214360E-01
  0.198195E-01  0.186175E-01  0.178555E-01  0.175285E-01  0.176129E-01  0.180688E-01
  0.188337E-01  0.198168E-01  0.209029E-01  0.219664E-01  0.228865E-01  0.235584E-01
  0.238992E-01  0.238552E-01  0.234100E-01  0.225908E-01  0.214670E-01  0.201395E-01
  0.187243E-01  0.173378E-01  0.160874E-01  0.150684E-01  0.143605E-01  0.140247E-01
  0.141035E-01  0.146226E-01  0.155950E-01  0.170184E-01  0.188675E-01  0.210804E-01
  0.189431E-01  0.212464E-01  0.236776E-01  0.260745E-01  0.282571E-01  0.300509E-01
  0.313104E-01  0.319386E-01  0.318986E-01  0.312132E-01  0.299567E-01  0.282442E-01
  0.262228E-01  0.240583E-01  0.219170E-01  0.199457E-01  0.182558E-01  0.169168E-01
  0.159586E-01  0.153820E-01  0.151681E-01  0.152826E-01  0.156742E-01  0.162717E-01
  0.169874E-01  0.177252E-01  0.183915E-01  0.189022E-01  0.191883E-01  0.192016E-01
  0.189213E-01  0.183595E-01  0.175621E-01  0.166020E-01  0.155676E-01  0.145492E-01
  0.136321E-01  0.128933E-01  0.124014E-01  0.122144E-01  0.123764E-01  0.129170E-01
  0.138516E-01  0.151826E-01  0.168942E-01  0.189431E-01  0.167146E-01  0.187996E-01
  0.210250E-01  0.232527E-01  0.253211E-01  0.270668E-01  0.283475E-01  0.290616E-01
  0.291603E-01  0.286498E-01  0.275871E-01  0.260724E-01  0.242388E-01  0.222386E-01
  0.202240E-01  0.183291E-01  0.166562E-01  0.152715E-01  0.142078E-01  0.134717E-01
  0.130509E-01  0.129182E-01  0.130316E-01  0.133347E-01  0.137597E-01  0.142334E-01
  0.146839E-01  0.150454E-01  0.152629E-01  0.152959E-01  0.151236E-01  0.147490E-01
  0.142000E-01  0.135267E-01  0.127931E-01  0.120679E-01  0.114174E-01  0.109031E-01
  0.105826E-01  0.105076E-01  0.107207E-01  0.112525E-01  0.121204E-01  0.133295E-01
  0.148708E-01  0.167146E-01  0.145087E-01  0.163431E-01  0.183184E-01  0.203224E-01
  0.222169E-01  0.238556E-01  0.251057E-01  0.258668E-01  0.260822E-01  0.257439E-01
  0.248909E-01  0.236050E-01  0.220023E-01  0.202186E-01  0.183906E-01  0.166381E-01
  0.150535E-01  0.136986E-01  0.126072E-01  0.117905E-01  0.112426E-01  0.109435E-01
  0.108602E-01  0.109485E-01  0.111561E-01  0.114270E-01  0.117058E-01  0.119415E-01
  0.120905E-01  0.121202E-01  0.120121E-01  0.117647E-01  0.113939E-01  0.109328E-01
  0.104263E-01  0.992512E-02  0.948013E-02  0.913980E-02  0.895034E-02  0.895519E-02
  0.919250E-02  0.969182E-02  0.104719E-01  0.115404E-01  0.128929E-01  0.145087E-01
  0.124202E-01  0.139928E-01  0.156966E-01  0.174440E-01  0.191226E-01  0.206075E-01
  0.217806E-01  0.225472E-01  0.228483E-01  0.226649E-01  0.220196E-01  0.209750E-01
  0.196273E-01  0.180931E-01  0.164911E-01  0.149263E-01  0.134808E-01  0.122118E-01
  0.111535E-01  0.103208E-01  0.971268E-02  0.931507E-02  0.910274E-02  0.904177E-02
  0.909265E-02  0.921317E-02  0.936094E-02  0.949604E-02  0.958411E-02  0.959922E-02
  0.952597E-02  0.936075E-02  0.911247E-02  0.880222E-02  0.846088E-02  0.812506E-02
  0.783296E-02  0.762202E-02  0.752825E-02  0.758611E-02  0.782733E-02  0.827864E-02
  0.895932E-02  0.987938E-02  0.110379E-01  0.124202E-01  0.105171E-01  0.118345E-01
  0.132675E-01  0.147492E-01  0.161917E-01  0.174938E-01  0.185547E-01  0.192897E-01
  0.196411E-01  0.195838E-01  0.191276E-01  0.183170E-01  0.172276E-01  0.159547E-01
  0.145978E-01  0.132459E-01  0.119707E-01  0.108250E-01  0.984300E-02  0.904243E-02
  0.842615E-02  0.798445E-02  0.769793E-02  0.754085E-02  0.748406E-02  0.749663E-02
  0.754685E-02  0.760399E-02  0.764108E-02  0.763762E-02  0.758105E-02  0.746725E-02
  0.730079E-02  0.709487E-02  0.687014E-02  0.665232E-02  0.646948E-02  0.635000E-02
  0.632149E-02  0.641034E-02  0.664143E-02  0.703725E-02  0.761616E-02  0.838980E-02
  0.936020E-02  0.105171E-01  0.884022E-02  0.992154E-02  0.111008E-01  0.123273E-01
  0.135342E-01  0.146428E-01  0.155712E-01  0.162463E-01  0.166153E-01  0.166508E-01
  0.163538E-01  0.157540E-01  0.149077E-01  0.138887E-01  0.127766E-01  0.116449E-01
  0.105547E-01  0.955362E-02  0.867524E-02  0.793920E-02  0.735132E-02  0.690533E-02
  0.658635E-02  0.637485E-02  0.624959E-02  0.618854E-02  0.616876E-02  0.616724E-02
  0.616331E-02  0.614103E-02  0.609040E-02  0.600740E-02  0.589400E-02  0.575815E-02
  0.561323E-02  0.547670E-02  0.536853E-02  0.530988E-02  0.532185E-02  0.542452E-02
  0.563672E-02  0.597609E-02  0.645843E-02  0.709549E-02  0.789160E-02  0.884022E-02
  0.740852E-02  0.827928E-02  0.923113E-02  0.102254E-01  0.112121E-01  0.121318E-01
  0.129207E-01  0.135190E-01  0.138800E-01  0.139769E-01  0.138054E-01  0.133844E-01
  0.127530E-01  0.119658E-01  0.110836E-01  0.101648E-01  0.926052E-02  0.841257E-02
  0.765243E-02  0.700011E-02  0.646342E-02  0.603913E-02  0.571634E-02  0.548057E-02
  0.531661E-02  0.520903E-02  0.514166E-02  0.509784E-02  0.506220E-02  0.502273E-02
  0.497172E-02  0.490562E-02  0.482490E-02  0.473412E-02  0.464165E-02  0.455891E-02
  0.449962E-02  0.447914E-02  0.451347E-02  0.461799E-02  0.480682E-02  0.509300E-02
  0.548880E-02  0.600450E-02  0.664546E-02  0.740852E-02  0.622444E-02  0.691296E-02
  0.766713E-02  0.845776E-02  0.924764E-02  0.999299E-02  0.106460E-01  0.111598E-01
  0.114954E-01  0.116280E-01  0.115504E-01  0.112732E-01  0.108226E-01  0.102367E-01
  0.955985E-02  0.883700E-02  0.810967E-02  0.741341E-02  0.677619E-02  0.621676E-02
  0.574368E-02  0.535628E-02  0.504745E-02  0.480724E-02  0.462518E-02  0.449074E-02
  0.439279E-02  0.431962E-02  0.426022E-02  0.420586E-02  0.415085E-02  0.409230E-02
  0.402999E-02  0.396640E-02  0.390664E-02  0.385801E-02  0.382962E-02  0.383217E-02
  0.387742E-02  0.397697E-02  0.414131E-02  0.437977E-02  0.470112E-02  0.511326E-02
  0.562131E-02  0.622444E-02  0.527829E-02  0.581356E-02  0.640027E-02  0.701696E-02
  0.763637E-02  0.822696E-02  0.875419E-02  0.918303E-02  0.948252E-02  0.963099E-02
  0.961971E-02  0.945344E-02  0.914866E-02  0.873073E-02  0.823063E-02  0.768160E-02
  0.711608E-02  0.656306E-02  0.604604E-02  0.558127E-02  0.517706E-02  0.483456E-02
  0.455007E-02  0.431762E-02  0.413066E-02  0.398237E-02  0.386538E-02  0.377186E-02
  0.369439E-02  0.362703E-02  0.356581E-02  0.350862E-02  0.345504E-02  0.340640E-02
  0.336580E-02  0.333785E-02  0.332843E-02  0.334467E-02  0.339462E-02  0.348649E-02
  0.362774E-02  0.382490E-02  0.408395E-02  0.441046E-02  0.480851E-02  0.527829E-02
  0.455172E-02  0.496167E-02  0.541005E-02  0.588169E-02  0.635729E-02  0.681475E-02
  0.722996E-02  0.757800E-02  0.783563E-02  0.798511E-02  0.801741E-02  0.793324E-02
  0.774201E-02  0.745983E-02  0.710745E-02  0.670832E-02  0.628640E-02  0.586398E-02
  0.545952E-02  0.508619E-02  0.475134E-02  0.445730E-02  0.420300E-02  0.398574E-02
  0.380208E-02  0.364805E-02  0.351918E-02  0.341079E-02  0.331853E-02  0.323895E-02
  0.316970E-02  0.310952E-02  0.305812E-02  0.301628E-02  0.298585E-02  0.296968E-02
  0.297145E-02  0.299561E-02  0.304714E-02  0.313115E-02  0.325237E-02  0.341505E-02
  0.362318E-02  0.388055E-02  0.418996E-02  0.455172E-02  0.402181E-02  0.433143E-02
  0.466814E-02  0.502168E-02  0.537900E-02  0.572515E-02  0.604392E-02  0.631840E-02
  0.653231E-02  0.667230E-02  0.673020E-02  0.670428E-02  0.659897E-02  0.642378E-02
  0.619190E-02  0.591893E-02  0.562135E-02  0.531487E-02  0.501283E-02  0.472500E-02
  0.445736E-02  0.421268E-02  0.399169E-02  0.379402E-02  0.361860E-02  0.346368E-02
  0.332711E-02  0.320681E-02  0.310113E-02  0.300897E-02  0.292966E-02  0.286290E-02
  0.280882E-02  0.276804E-02  0.274166E-02  0.273133E-02  0.273911E-02  0.276746E-02
  0.281894E-02  0.289604E-02  0.300106E-02  0.313625E-02  0.330398E-02  0.350662E-02
  0.374589E-02  0.402181E-02  0.366535E-02  0.389550E-02  0.414328E-02  0.440231E-02
  0.466428E-02  0.491955E-02  0.515762E-02  0.536766E-02  0.553921E-02  0.566328E-02
  0.573355E-02  0.574728E-02  0.570561E-02  0.561331E-02  0.547803E-02  0.530927E-02
  0.511728E-02  0.491190E-02  0.470159E-02  0.449267E-02  0.428923E-02  0.409368E-02
  0.390754E-02  0.373188E-02  0.356734E-02  0.341401E-02  0.327171E-02  0.314059E-02
  0.302142E-02  0.291535E-02  0.282347E-02  0.274667E-02  0.268570E-02  0.264131E-02
  0.261427E-02  0.260542E-02  0.261564E-02  0.264578E-02  0.269647E-02  0.276805E-02
  0.286080E-02  0.297519E-02  0.311206E-02  0.327244E-02  0.345699E-02  0.366535E-02
  0.346182E-02  0.362924E-02  0.380633E-02  0.398991E-02  0.417538E-02  0.435705E-02
  0.452858E-02  0.468365E-02  0.481639E-02  0.492172E-02  0.499559E-02  0.503538E-02
  0.504037E-02  0.501204E-02  0.495394E-02  0.487087E-02  0.476811E-02  0.465059E-02
  0.452244E-02  0.438656E-02  0.424473E-02  0.409807E-02  0.394779E-02  0.379549E-02
  0.364296E-02  0.349188E-02  0.334395E-02  0.320138E-02  0.306717E-02  0.294469E-02
  0.283696E-02  0.274629E-02  0.267422E-02  0.262184E-02  0.258991E-02  0.257886E-02
  0.258875E-02  0.261912E-02  0.266892E-02  0.273666E-02  0.282083E-02  0.292037E-02
  0.303470E-02  0.316347E-02  0.330613E-02  0.346182E-02  0.339437E-02  0.351258E-02
  0.363325E-02  0.375586E-02  0.387899E-02  0.400018E-02  0.411640E-02  0.422479E-02
  0.432301E-02  0.440916E-02  0.448143E-02  0.453803E-02  0.457754E-02  0.459942E-02
  0.460421E-02  0.459312E-02  0.456738E-02  0.452786E-02  0.447482E-02  0.440788E-02
  0.432612E-02  0.422866E-02  0.411542E-02  0.398760E-02  0.384753E-02  0.369825E-02
  0.354330E-02  0.338699E-02  0.323453E-02  0.309161E-02  0.296342E-02  0.285397E-02
  0.276591E-02  0.270086E-02  0.265974E-02  0.264287E-02  0.264981E-02  0.267909E-02
  0.272818E-02  0.279385E-02  0.287289E-02  0.296275E-02  0.306154E-02  0.316756E-02
  0.327904E-02  0.339437E-02  0.344962E-02  0.352969E-02  0.360524E-02  0.367781E-02
  0.374876E-02  0.381869E-02  0.388762E-02  0.395562E-02  0.402310E-02  0.409065E-02
  0.415847E-02  0.422601E-02  0.429201E-02  0.435500E-02  0.441347E-02  0.446582E-02
  0.450994E-02  0.454303E-02  0.456172E-02  0.456225E-02  0.454075E-02  0.449379E-02
  0.441931E-02  0.431731E-02  0.419003E-02  0.404151E-02  0.387713E-02  0.370337E-02
  0.352784E-02  0.335869E-02  0.320361E-02  0.306873E-02  0.295825E-02  0.287468E-02
  0.281937E-02  0.279263E-02  0.279368E-02  0.282023E-02  0.286849E-02  0.293363E-02
  0.301071E-02  0.309554E-02  0.318476E-02  0.327538E-02  0.336448E-02  0.344962E-02