 CRYSTAL
 PRIMVEC
    4.783808619    0.000008842   -0.000000000
   -1.056706997    4.500667255   -0.000000000
   -0.000000000   -0.000000000    4.946013061
 PRIMCOORD
           4           1
Si       -0.101951377    1.096501635    1.670906812
Si        2.395531793    1.902864102    0.687505060
Si        0.101961899    2.679077668    3.909104160
Si        2.388281618    0.652529478    2.888906643
BEGIN_BLOCK_DATAGRID_3D
3D_PWSCF
BEGIN_DATAGRID_3D_UNKNOWN
          46          46          49
  0.000000  0.000000  0.000000
    4.783809    0.000009   -0.000000
   -1.056707    4.500667   -0.000000
   -0.000000   -0.000000    4.946013
  0.406842E-02  0.412673E-02  0.417193E-02  0.420688E-02  0.423593E-02  0.426362E-02
  0.429364E-02  0.432873E-02  0.437131E-02  0.442416E-02  0.449025E-02  0.457168E-02
  0.466858E-02  0.477875E-02  0.489828E-02  0.502252E-02  0.514636E-02  0.526374E-02
  0.536690E-02  0.544663E-02  0.549375E-02  0.550100E-02  0.546416E-02  0.538200E-02
  0.525596E-02  0.509023E-02  0.489220E-02  0.467241E-02  0.444338E-02  0.421766E-02
  0.400627E-02  0.381801E-02  0.365967E-02  0.353616E-02  0.345052E-02  0.340355E-02
  0.339364E-02  0.341700E-02  0.346815E-02  0.354066E-02  0.362775E-02  0.372277E-02
  0.381946E-02  0.391223E-02  0.399637E-02  0.406842E-02  0.436169E-02  0.439575E-02
  0.440950E-02  0.440672E-02  0.439375E-02  0.437811E-02  0.436692E-02  0.436612E-02
  0.438077E-02  0.441576E-02  0.447584E-02  0.456468E-02  0.468371E-02  0.483143E-02
  0.500352E-02  0.519367E-02  0.539405E-02  0.559509E-02  0.578498E-02  0.594977E-02
  0.607523E-02  0.614937E-02  0.616436E-02  0.611674E-02  0.600695E-02  0.583926E-02
  0.562243E-02  0.536966E-02  0.509713E-02  0.482153E-02  0.455787E-02  0.431854E-02
  0.411322E-02  0.394888E-02  0.382975E-02  0.375713E-02  0.372933E-02  0.374196E-02
  0.378841E-02  0.386067E-02  0.394996E-02  0.404734E-02  0.414415E-02  0.423267E-02
  0.430663E-02  0.436169E-02  0.476102E-02  0.477706E-02  0.476550E-02  0.473086E-02
  0.468114E-02  0.462647E-02  0.457721E-02  0.454262E-02  0.453076E-02  0.454894E-02
  0.460382E-02  0.470065E-02  0.484224E-02  0.502818E-02  0.525460E-02  0.551450E-02
  0.579800E-02  0.609223E-02  0.638091E-02  0.664466E-02  0.686297E-02  0.701759E-02
  0.709537E-02  0.708930E-02  0.699811E-02  0.682608E-02  0.658360E-02  0.628709E-02
  0.595724E-02  0.561584E-02  0.528297E-02  0.497556E-02  0.470702E-02  0.448709E-02
  0.432161E-02  0.421253E-02  0.415815E-02  0.415351E-02  0.419106E-02  0.426126E-02
  0.435333E-02  0.445573E-02  0.455702E-02  0.464680E-02  0.471670E-02  0.476102E-02
  0.525871E-02  0.526239E-02  0.523088E-02  0.516943E-02  0.508752E-02  0.499756E-02
  0.491284E-02  0.484606E-02  0.480867E-02  0.481099E-02  0.486198E-02  0.496868E-02
  0.513548E-02  0.536345E-02  0.564988E-02  0.598792E-02  0.636625E-02  0.676877E-02
  0.717431E-02  0.755715E-02  0.788928E-02  0.814441E-02  0.830201E-02  0.834949E-02
  0.828252E-02  0.810489E-02  0.782889E-02  0.747501E-02  0.706967E-02  0.664119E-02
  0.621621E-02  0.581759E-02  0.546376E-02  0.516817E-02  0.493897E-02  0.477897E-02
  0.468630E-02  0.465528E-02  0.467733E-02  0.474150E-02  0.483494E-02  0.494340E-02
  0.505225E-02  0.514791E-02  0.521930E-02  0.525871E-02  0.584617E-02  0.584328E-02
  0.579725E-02  0.571385E-02  0.560402E-02  0.548222E-02  0.536454E-02  0.526706E-02
  0.520507E-02  0.519244E-02  0.524109E-02  0.536040E-02  0.555684E-02  0.583357E-02
  0.618969E-02  0.661913E-02  0.710950E-02  0.764136E-02  0.818806E-02  0.871652E-02
  0.918991E-02  0.957221E-02  0.983328E-02  0.995249E-02  0.992028E-02  0.973869E-02
  0.942180E-02  0.899507E-02  0.849221E-02  0.795001E-02  0.740357E-02  0.688352E-02
  0.641491E-02  0.601646E-02  0.569974E-02  0.546903E-02  0.532223E-02  0.525247E-02
  0.524963E-02  0.530113E-02  0.539207E-02  0.550544E-02  0.562319E-02  0.572817E-02
  0.580595E-02  0.584617E-02  0.651430E-02  0.651091E-02  0.645622E-02  0.635600E-02
  0.622248E-02  0.607223E-02  0.592414E-02  0.579778E-02  0.571241E-02  0.568597E-02
  0.573407E-02  0.586937E-02  0.610133E-02  0.643599E-02  0.687486E-02  0.741310E-02
  0.803755E-02  0.872541E-02  0.944397E-02  0.101517E-01  0.108013E-01  0.113451E-01
  0.117410E-01  0.119574E-01  0.119767E-01  0.117969E-01  0.114333E-01  0.109168E-01
  0.102907E-01  0.960274E-02  0.889914E-02  0.822043E-02  0.760009E-02  0.706368E-02
  0.662776E-02  0.629932E-02  0.607659E-02  0.595122E-02  0.591075E-02  0.594018E-02
  0.602221E-02  0.613702E-02  0.626312E-02  0.637946E-02  0.646778E-02  0.651430E-02
  0.725458E-02  0.725671E-02  0.719948E-02  0.708795E-02  0.693516E-02  0.675992E-02
  0.658415E-02  0.643109E-02  0.632407E-02  0.628539E-02  0.633513E-02  0.649037E-02
  0.676479E-02  0.716818E-02  0.770499E-02  0.837203E-02  0.915589E-02  0.100310E-01
  0.109585E-01  0.118873E-01  0.127578E-01  0.135077E-01  0.140795E-01  0.144277E-01
  0.145228E-01  0.143561E-01  0.139420E-01  0.133179E-01  0.125384E-01  0.116662E-01
  0.107624E-01  0.988048E-02  0.906429E-02  0.834750E-02  0.775287E-02  0.729158E-02
  0.696356E-02  0.675955E-02  0.666429E-02  0.665922E-02  0.672358E-02  0.683431E-02
  0.696639E-02  0.709473E-02  0.719675E-02  0.725458E-02  0.805943E-02  0.807276E-02
  0.801922E-02  0.790222E-02  0.773507E-02  0.753861E-02  0.733817E-02  0.716091E-02
  0.703435E-02  0.698539E-02  0.703932E-02  0.721886E-02  0.754315E-02  0.802662E-02
  0.867720E-02  0.949393E-02  0.104642E-01  0.115610E-01  0.127402E-01  0.139405E-01
  0.150872E-01  0.160994E-01  0.169004E-01  0.174256E-01  0.176302E-01  0.174951E-01
  0.170316E-01  0.162826E-01  0.153165E-01  0.142149E-01  0.130591E-01  0.119202E-01
  0.108557E-01  0.990884E-02  0.910906E-02  0.847249E-02  0.800212E-02  0.768924E-02
  0.751628E-02  0.746035E-02  0.749574E-02  0.759492E-02  0.772887E-02  0.786831E-02
  0.798604E-02  0.805943E-02  0.892190E-02  0.895179E-02  0.890831E-02  0.879233E-02
  0.861656E-02  0.840350E-02  0.818189E-02  0.798315E-02  0.783929E-02  0.778211E-02
  0.784283E-02  0.805087E-02  0.843201E-02  0.900619E-02  0.978557E-02  0.107724E-01
  0.119566E-01  0.133113E-01  0.147885E-01  0.163162E-01  0.178021E-01  0.191425E-01
  0.202356E-01  0.209933E-01  0.213510E-01  0.212754E-01  0.207721E-01  0.198879E-01
  0.187049E-01  0.173267E-01  0.158600E-01  0.144005E-01  0.130249E-01  0.117893E-01
  0.107309E-01  0.987055E-02  0.921462E-02  0.875602E-02  0.847616E-02  0.834798E-02
  0.833971E-02  0.841761E-02  0.854745E-02  0.869543E-02  0.882952E-02  0.892190E-02
  0.983632E-02  0.988815E-02  0.986163E-02  0.975406E-02  0.957662E-02  0.935271E-02
  0.911415E-02  0.889680E-02  0.873755E-02  0.867370E-02  0.874307E-02  0.898275E-02
  0.942610E-02  0.100995E-01  0.110205E-01  0.121962E-01  0.136205E-01  0.152687E-01
  0.170895E-01  0.190001E-01  0.208882E-01  0.226235E-01  0.240744E-01  0.251245E-01
  0.256854E-01  0.257074E-01  0.251871E-01  0.241721E-01  0.227555E-01  0.210622E-01
  0.192280E-01  0.173796E-01  0.156211E-01  0.140282E-01  0.126494E-01  0.115112E-01
  0.106221E-01  0.997645E-02  0.955525E-02  0.932825E-02  0.925745E-02  0.930158E-02
  0.941956E-02  0.957208E-02  0.972212E-02  0.983632E-02  0.108012E-01  0.108810E-01
  0.108792E-01  0.107885E-01  0.106174E-01  0.103893E-01  0.101384E-01  0.990503E-02
  0.973129E-02  0.966073E-02  0.973862E-02  0.100105E-01  0.105181E-01  0.112956E-01
  0.123671E-01  0.137464E-01  0.154332E-01  0.174059E-01  0.196098E-01  0.219502E-01
  0.242929E-01  0.264782E-01  0.283418E-01  0.297364E-01  0.305491E-01  0.307127E-01
  0.302134E-01  0.290945E-01  0.274535E-01  0.254310E-01  0.231903E-01  0.208934E-01
  0.186804E-01  0.166561E-01  0.148883E-01  0.134122E-01  0.122391E-01  0.113628E-01
  0.107632E-01  0.104072E-01  0.102513E-01  0.102467E-01  0.103438E-01  0.104966E-01
  0.106621E-01  0.108012E-01  0.118228E-01  0.119379E-01  0.119699E-01  0.119055E-01
  0.117494E-01  0.115239E-01  0.112650E-01  0.110169E-01  0.108276E-01  0.107475E-01
  0.108301E-01  0.111301E-01  0.116987E-01  0.125787E-01  0.138031E-01  0.153938E-01
  0.173578E-01  0.196759E-01  0.222894E-01  0.250895E-01  0.279182E-01  0.305833E-01
  0.328864E-01  0.346512E-01  0.357454E-01  0.360902E-01  0.356627E-01  0.344958E-01
  0.326791E-01  0.303553E-01  0.277063E-01  0.249293E-01  0.222067E-01  0.196836E-01
  0.174576E-01  0.155808E-01  0.140705E-01  0.129195E-01  0.121044E-01  0.115885E-01
  0.113238E-01  0.112543E-01  0.113219E-01  0.114719E-01  0.116542E-01  0.118228E-01
  0.129153E-01  0.130752E-01  0.131517E-01  0.131241E-01  0.129922E-01  0.127759E-01
  0.125122E-01  0.122489E-01  0.120400E-01  0.119437E-01  0.120222E-01  0.123402E-01
  0.129587E-01  0.139310E-01  0.153004E-01  0.170991E-01  0.193415E-01  0.220105E-01
  0.250410E-01  0.283075E-01  0.316236E-01  0.347603E-01  0.374832E-01  0.395938E-01
  0.409554E-01  0.414956E-01  0.411924E-01  0.400643E-01  0.381734E-01  0.356387E-01
  0.326403E-01  0.294018E-01  0.261518E-01  0.230863E-01  0.203454E-01  0.180098E-01
  0.161102E-01  0.146416E-01  0.135763E-01  0.128723E-01  0.124767E-01  0.123277E-01
  0.123590E-01  0.125061E-01  0.127096E-01  0.129153E-01  0.140966E-01  0.143137E-01
  0.144477E-01  0.144692E-01  0.143715E-01  0.141711E-01  0.139049E-01  0.136241E-01
  0.133888E-01  0.132655E-01  0.133258E-01  0.136443E-01  0.142929E-01  0.153360E-01
  0.168294E-01  0.188168E-01  0.213207E-01  0.243252E-01  0.277568E-01  0.314689E-01
  0.352397E-01  0.387948E-01  0.418599E-01  0.442230E-01  0.457688E-01  0.464649E-01
  0.463170E-01  0.453327E-01  0.435247E-01  0.409490E-01  0.377448E-01  0.341383E-01
  0.304017E-01  0.267923E-01  0.235077E-01  0.206712E-01  0.183385E-01  0.165139E-01
  0.151682E-01  0.142533E-01  0.137099E-01  0.134708E-01  0.134623E-01  0.136098E-01
  0.138428E-01  0.140966E-01  0.153817E-01  0.156719E-01  0.158791E-01  0.159647E-01
  0.159137E-01  0.157375E-01  0.154714E-01  0.151695E-01  0.148986E-01  0.147337E-01
  0.147563E-01  0.150513E-01  0.157010E-01  0.167818E-01  0.183629E-01  0.205012E-01
  0.232282E-01  0.265291E-01  0.303202E-01  0.344299E-01  0.385920E-01  0.424740E-01
  0.457533E-01  0.482119E-01  0.497856E-01  0.505272E-01  0.505123E-01  0.497592E-01
  0.482189E-01  0.458410E-01  0.426660E-01  0.388774E-01  0.347718E-01  0.306744E-01
  0.268584E-01  0.235070E-01  0.207153E-01  0.185076E-01  0.168596E-01  0.157185E-01
  0.150179E-01  0.146840E-01  0.146365E-01  0.147913E-01  0.150653E-01  0.153817E-01
  0.167778E-01  0.171603E-01  0.174604E-01  0.176287E-01  0.176404E-01  0.174994E-01
  0.172379E-01  0.169118E-01  0.165941E-01  0.163694E-01  0.163300E-01  0.165707E-01
  0.171844E-01  0.182591E-01  0.198772E-01  0.221096E-01  0.249984E-01  0.285317E-01
  0.326166E-01  0.370536E-01  0.415250E-01  0.456280E-01  0.489799E-01  0.513568E-01
  0.527671E-01  0.533895E-01  0.534176E-01  0.529183E-01  0.517932E-01  0.498597E-01
  0.470019E-01  0.432943E-01  0.390160E-01  0.345522E-01  0.302664E-01  0.264230E-01
  0.231732E-01  0.205743E-01  0.186155E-01  0.172435E-01  0.163853E-01  0.159595E-01
  0.158790E-01  0.160511E-01  0.163809E-01  0.167778E-01  0.182816E-01  0.187799E-01
  0.191966E-01  0.194704E-01  0.195649E-01  0.194741E-01  0.192246E-01  0.188723E-01
  0.184960E-01  0.181903E-01  0.180590E-01  0.182082E-01  0.187411E-01  0.197564E-01
  0.213485E-01  0.236016E-01  0.265702E-01  0.302486E-01  0.345388E-01  0.392174E-01
  0.439154E-01  0.481535E-01  0.514773E-01  0.536467E-01  0.547426E-01  0.550868E-01
  0.550241E-01  0.547127E-01  0.540428E-01  0.527127E-01  0.504207E-01  0.470709E-01
  0.428617E-01  0.382064E-01  0.335611E-01  0.292887E-01  0.256146E-01  0.226418E-01
  0.203825E-01  0.187892E-01  0.177837E-01  0.172771E-01  0.171758E-01  0.173796E-01
  0.177830E-01  0.182816E-01  0.198786E-01  0.205201E-01  0.210814E-01  0.214872E-01
  0.216879E-01  0.216660E-01  0.214394E-01  0.210614E-01  0.206154E-01  0.202058E-01
  0.199486E-01  0.199629E-01  0.203630E-01  0.212575E-01  0.227508E-01  0.249387E-01
  0.278882E-01  0.316041E-01  0.359916E-01  0.408149E-01  0.456664E-01  0.499985E-01
  0.532792E-01  0.552305E-01  0.559779E-01  0.559671E-01  0.556963E-01  0.554440E-01
  0.551387E-01  0.544096E-01  0.527910E-01  0.499900E-01  0.460673E-01  0.414119E-01
  0.365503E-01  0.319480E-01  0.279167E-01  0.246161E-01  0.220891E-01  0.203000E-01
  0.191694E-01  0.186023E-01  0.184989E-01  0.187537E-01  0.192528E-01  0.198786E-01
  0.215382E-01  0.223542E-01  0.230912E-01  0.236582E-01  0.239912E-01  0.240590E-01
  0.238693E-01  0.234701E-01  0.229465E-01  0.224112E-01  0.219931E-01  0.218254E-01
  0.220355E-01  0.227421E-01  0.240577E-01  0.260866E-01  0.289072E-01  0.325383E-01
  0.368977E-01  0.417560E-01  0.466932E-01  0.511191E-01  0.544317E-01  0.562887E-01
  0.568064E-01  0.564985E-01  0.559829E-01  0.556614E-01  0.555414E-01  0.552504E-01
  0.542235E-01  0.519994E-01  0.484790E-01  0.439767E-01  0.390459E-01  0.342358E-01
  0.299430E-01  0.263878E-01  0.236488E-01  0.217064E-01  0.204847E-01  0.198854E-01
  0.198053E-01  0.201356E-01  0.207563E-01  0.215382E-01  0.232091E-01  0.242317E-01
  0.251767E-01  0.259350E-01  0.264269E-01  0.266070E-01  0.264711E-01  0.260597E-01
  0.254565E-01  0.247797E-01  0.241698E-01  0.237748E-01  0.237372E-01  0.241873E-01
  0.252447E-01  0.270194E-01  0.295982E-01  0.330147E-01  0.372084E-01  0.419751E-01
  0.469169E-01  0.514428E-01  0.549064E-01  0.568847E-01  0.574205E-01  0.570112E-01
  0.563296E-01  0.558745E-01  0.557517E-01  0.556459E-01  0.549765E-01  0.531872E-01
  0.500461E-01  0.457689E-01  0.408884E-01  0.359974E-01  0.315575E-01  0.278428E-01
  0.249666E-01  0.229284E-01  0.216598E-01  0.210637E-01  0.210369E-01  0.214704E-01
  0.222408E-01  0.232091E-01  0.248153E-01  0.260732E-01  0.272554E-01  0.282332E-01
  0.289097E-01  0.292251E-01  0.291627E-01  0.287535E-01  0.280770E-01  0.272533E-01
  0.264312E-01  0.257726E-01  0.254363E-01  0.255663E-01  0.262902E-01  0.277212E-01
  0.299513E-01  0.330271E-01  0.369133E-01  0.414461E-01  0.462802E-01  0.508708E-01
  0.545722E-01  0.568885E-01  0.577388E-01  0.575136E-01  0.568518E-01  0.562970E-01
  0.560458E-01  0.558789E-01  0.552759E-01  0.536759E-01  0.507795E-01  0.467153E-01
  0.419607E-01  0.371047E-01  0.326384E-01  0.288718E-01  0.259467E-01  0.238810E-01
  0.226171E-01  0.220641E-01  0.221228E-01  0.226873E-01  0.236338E-01  0.248153E-01
  0.262605E-01  0.277730E-01  0.292134E-01  0.304326E-01  0.313158E-01  0.317884E-01
  0.318208E-01  0.314340E-01  0.307002E-01  0.297373E-01  0.286984E-01  0.277562E-01
  0.270851E-01  0.268447E-01  0.271725E-01  0.281846E-01  0.299747E-01  0.325989E-01
  0.360459E-01  0.401969E-01  0.447777E-01  0.493272E-01  0.532524E-01  0.560221E-01
  0.574202E-01  0.576628E-01  0.572624E-01  0.567331E-01  0.563291E-01  0.559397E-01
  0.551595E-01  0.535047E-01  0.506850E-01  0.467772E-01  0.421900E-01  0.374677E-01
  0.330916E-01  0.293834E-01  0.265022E-01  0.244820E-01  0.232779E-01  0.228089E-01
  0.229841E-01  0.237040E-01  0.248467E-01  0.262605E-01  0.274370E-01  0.292101E-01
  0.309166E-01  0.323884E-01  0.334928E-01  0.341405E-01  0.342894E-01  0.339493E-01
  0.331834E-01  0.321037E-01  0.308623E-01  0.296378E-01  0.286176E-01  0.279775E-01
  0.278671E-01  0.284068E-01  0.296903E-01  0.317783E-01  0.346783E-01  0.383133E-01
  0.424816E-01  0.468228E-01  0.508366E-01  0.540105E-01  0.560273E-01  0.569109E-01
  0.569824E-01  0.566478E-01  0.561647E-01  0.555163E-01  0.544384E-01  0.525800E-01
  0.497214E-01  0.459285E-01  0.415441E-01  0.370427E-01  0.328639E-01  0.293178E-01
  0.265695E-01  0.246650E-01  0.235729E-01  0.232254E-01  0.235431E-01  0.244352E-01
  0.257846E-01  0.274370E-01  0.282398E-01  0.302635E-01  0.322284E-01  0.339504E-01
  0.352803E-01  0.361143E-01  0.363983E-01  0.361310E-01  0.353650E-01  0.342034E-01
  0.327924E-01  0.313105E-01  0.299531E-01  0.289103E-01  0.283458E-01  0.283871E-01
  0.291276E-01  0.306289E-01  0.329106E-01  0.359283E-01  0.395428E-01  0.434891E-01
  0.473750E-01  0.507523E-01  0.532628E-01  0.547757E-01  0.554082E-01  0.554064E-01
  0.549726E-01  0.541467E-01  0.527986E-01  0.507288E-01  0.478214E-01  0.441603E-01
  0.400336E-01  0.358375E-01  0.319519E-01  0.286594E-01  0.261216E-01  0.243932E-01
  0.234565E-01  0.232587E-01  0.237344E-01  0.248042E-01  0.263571E-01  0.282398E-01
  0.285805E-01  0.308287E-01  0.330292E-01  0.349857E-01  0.365345E-01  0.375581E-01
  0.379905E-01  0.378198E-01  0.370879E-01  0.358872E-01  0.343538E-01  0.326602E-01
  0.310031E-01  0.295829E-01  0.285774E-01  0.281242E-01  0.283186E-01  0.292207E-01
  0.308554E-01  0.332007E-01  0.361647E-01  0.395602E-01  0.430944E-01  0.464035E-01
  0.491438E-01  0.510970E-01  0.522182E-01  0.525904E-01  0.523233E-01  0.514672E-01
  0.499902E-01  0.478263E-01  0.449629E-01  0.415130E-01  0.377229E-01  0.339146E-01
  0.304046E-01  0.274408E-01  0.251751E-01  0.236684E-01  0.229165E-01  0.228829E-01
  0.235178E-01  0.247549E-01  0.264924E-01  0.285805E-01  0.284007E-01  0.308318E-01
  0.332318E-01  0.353958E-01  0.371481E-01  0.383574E-01  0.389455E-01  0.388902E-01
  0.382237E-01  0.370274E-01  0.354256E-01  0.335799E-01  0.316816E-01  0.299352E-01
  0.285301E-01  0.276159E-01  0.272932E-01  0.276204E-01  0.286228E-01  0.302909E-01
  0.325655E-01  0.353169E-01  0.383314E-01  0.413264E-01  0.440033E-01  0.461195E-01
  0.475359E-01  0.482124E-01  0.481649E-01  0.474197E-01  0.459947E-01  0.439130E-01
  0.412389E-01  0.381100E-01  0.347405E-01  0.313907E-01  0.283192E-01  0.257382E-01
  0.237871E-01  0.225304E-01  0.219769E-01  0.221065E-01  0.228860E-01  0.242634E-01
  0.261488E-01  0.284007E-01  0.276827E-01  0.302411E-01  0.327920E-01  0.351267E-01
  0.370592E-01  0.384443E-01  0.391902E-01  0.392636E-01  0.386876E-01  0.375343E-01
  0.359165E-01  0.339831E-01  0.319150E-01  0.299137E-01  0.281753E-01  0.268603E-01
  0.260773E-01  0.258858E-01  0.263088E-01  0.273413E-01  0.289440E-01  0.310275E-01
  0.334372E-01  0.359573E-01  0.383424E-01  0.403645E-01  0.418510E-01  0.426950E-01
  0.428454E-01  0.422933E-01  0.410654E-01  0.392245E-01  0.368739E-01  0.341615E-01
  0.312757E-01  0.284287E-01  0.258308E-01  0.236609E-01  0.220443E-01  0.210475E-01
  0.206907E-01  0.209690E-01  0.218650E-01  0.233416E-01  0.253236E-01  0.276827E-01
  0.264534E-01  0.290720E-01  0.317135E-01  0.341708E-01  0.362508E-01  0.377947E-01
  0.386952E-01  0.389057E-01  0.384396E-01  0.373611E-01  0.357740E-01  0.338152E-01
  0.316531E-01  0.294805E-01  0.274933E-01  0.258593E-01  0.246955E-01  0.240649E-01
  0.239893E-01  0.244634E-01  0.254580E-01  0.269097E-01  0.287069E-01  0.306866E-01
  0.326525E-01  0.344083E-01  0.357852E-01  0.366558E-01  0.369363E-01  0.365898E-01
  0.356302E-01  0.341225E-01  0.321755E-01  0.299312E-01  0.275539E-01  0.252186E-01
  0.230966E-01  0.213372E-01  0.200514E-01  0.193059E-01  0.191302E-01  0.195326E-01
  0.205088E-01  0.220357E-01  0.240541E-01  0.264534E-01  0.247804E-01  0.273856E-01
  0.300471E-01  0.325661E-01  0.347475E-01  0.364219E-01  0.374661E-01  0.378175E-01
  0.374773E-01  0.365015E-01  0.349865E-01  0.330599E-01  0.308781E-01  0.286223E-01
  0.264817E-01  0.246250E-01  0.231747E-01  0.221990E-01  0.217211E-01  0.217350E-01
  0.222152E-01  0.231138E-01  0.243491E-01  0.257985E-01  0.273089E-01  0.287189E-01
  0.298812E-01  0.306743E-01  0.310080E-01  0.308313E-01  0.301411E-01  0.289859E-01
  0.274588E-01  0.256833E-01  0.237989E-01  0.219501E-01  0.202760E-01  0.189001E-01
  0.179199E-01  0.174005E-01  0.173792E-01  0.178743E-01  0.188912E-01  0.204181E-01
  0.224112E-01  0.247804E-01  0.227621E-01  0.252800E-01  0.278856E-01  0.303945E-01
  0.326166E-01  0.343777E-01  0.355424E-01  0.360315E-01  0.358306E-01  0.349843E-01
  0.335812E-01  0.317410E-01  0.296099E-01  0.273569E-01  0.251603E-01  0.231827E-01
  0.215474E-01  0.203266E-01  0.195469E-01  0.192044E-01  0.192762E-01  0.197231E-01
  0.204824E-01  0.214617E-01  0.225432E-01  0.235988E-01  0.245076E-01  0.251653E-01
  0.254900E-01  0.254280E-01  0.249643E-01  0.241272E-01  0.229861E-01  0.216394E-01
  0.202008E-01  0.187872E-01  0.175108E-01  0.164729E-01  0.157577E-01  0.154286E-01
  0.155279E-01  0.160807E-01  0.170991E-01  0.185789E-01  0.204897E-01  0.227621E-01
  0.205160E-01  0.228795E-01  0.253552E-01  0.277780E-01  0.299697E-01  0.317597E-01
  0.330071E-01  0.336192E-01  0.335648E-01  0.328728E-01  0.316203E-01  0.299183E-01
  0.279034E-01  0.257327E-01  0.235711E-01  0.215710E-01  0.198505E-01  0.184828E-01
  0.174988E-01  0.168991E-01  0.166656E-01  0.167654E-01  0.171484E-01  0.177429E-01
  0.184581E-01  0.191946E-01  0.198565E-01  0.203599E-01  0.206359E-01  0.206360E-01
  0.203392E-01  0.197584E-01  0.189400E-01  0.179568E-01  0.168968E-01  0.158520E-01
  0.149113E-01  0.141567E-01  0.136602E-01  0.134817E-01  0.136656E-01  0.142417E-01
  0.152254E-01  0.166176E-01  0.183981E-01  0.205160E-01  0.181662E-01  0.203212E-01
  0.226031E-01  0.248694E-01  0.269595E-01  0.287137E-01  0.299939E-01  0.307010E-01
  0.307885E-01  0.302674E-01  0.291986E-01  0.276809E-01  0.258402E-01  0.238207E-01
  0.217732E-01  0.198368E-01  0.181212E-01  0.166970E-01  0.155983E-01  0.148315E-01
  0.143848E-01  0.142327E-01  0.143346E-01  0.146335E-01  0.150582E-01  0.155318E-01
  0.159796E-01  0.163359E-01  0.165456E-01  0.165680E-01  0.163816E-01  0.159897E-01
  0.154208E-01  0.147257E-01  0.139692E-01  0.132216E-01  0.125520E-01  0.120254E-01
  0.117024E-01  0.116367E-01  0.118726E-01  0.124411E-01  0.133599E-01  0.146326E-01
  0.162468E-01  0.181662E-01  0.158305E-01  0.177407E-01  0.197821E-01  0.218363E-01
  0.237638E-01  0.254216E-01  0.266812E-01  0.274441E-01  0.276542E-01  0.273054E-01
  0.264401E-01  0.251409E-01  0.235195E-01  0.217058E-01  0.198349E-01  0.180314E-01
  0.163946E-01  0.149910E-01  0.138559E-01  0.130009E-01  0.124210E-01  0.120981E-01
  0.120003E-01  0.120825E-01  0.122885E-01  0.125584E-01  0.128343E-01  0.130649E-01
  0.132071E-01  0.132278E-01  0.131080E-01  0.128458E-01  0.124579E-01  0.119783E-01
  0.114531E-01  0.109344E-01  0.104750E-01  0.101256E-01  0.993529E-02  0.995024E-02
  0.102108E-01  0.107476E-01  0.115791E-01  0.127113E-01  0.141368E-01  0.158305E-01
  0.136083E-01  0.152575E-01  0.170327E-01  0.188394E-01  0.205612E-01  0.220749E-01
  0.232658E-01  0.240417E-01  0.243432E-01  0.241514E-01  0.234908E-01  0.224258E-01
  0.210511E-01  0.194794E-01  0.178286E-01  0.162074E-01  0.147043E-01  0.133809E-01
  0.122730E-01  0.113961E-01  0.107505E-01  0.103243E-01  0.100937E-01  0.100236E-01
  0.100707E-01  0.101885E-01  0.103325E-01  0.104624E-01  0.105444E-01  0.105522E-01
  0.104694E-01  0.102921E-01  0.100297E-01  0.970448E-02  0.934839E-02  0.899935E-02
  0.869692E-02  0.848016E-02  0.838738E-02  0.845597E-02  0.872042E-02  0.920884E-02
  0.993995E-02  0.109216E-01  0.121503E-01  0.136083E-01  0.115728E-01  0.129635E-01
  0.144680E-01  0.160135E-01  0.175068E-01  0.188457E-01  0.199317E-01  0.206821E-01
  0.210390E-01  0.209762E-01  0.205042E-01  0.196695E-01  0.185483E-01  0.172344E-01
  0.158267E-01  0.144176E-01  0.130838E-01  0.118819E-01  0.108478E-01  0.999992E-02
  0.934257E-02  0.886827E-02  0.855916E-02  0.838868E-02  0.832448E-02  0.833191E-02
  0.837709E-02  0.842896E-02  0.846068E-02  0.845122E-02  0.838706E-02  0.826359E-02
  0.808578E-02  0.786781E-02  0.763160E-02  0.740419E-02  0.721476E-02  0.709277E-02
  0.706742E-02  0.716764E-02  0.742113E-02  0.785212E-02  0.847856E-02  0.930990E-02
  0.103455E-01  0.115728E-01  0.977034E-02  0.109187E-01  0.121654E-01  0.134550E-01
  0.147159E-01  0.158664E-01  0.168251E-01  0.175206E-01  0.178996E-01  0.179332E-01
  0.176222E-01  0.169981E-01  0.161188E-01  0.150587E-01  0.138979E-01  0.127117E-01
  0.115652E-01  0.105093E-01  0.957926E-02  0.879569E-02  0.816569E-02  0.768490E-02
  0.733983E-02  0.711058E-02  0.697371E-02  0.690438E-02  0.687780E-02  0.687040E-02
  0.686126E-02  0.683377E-02  0.677691E-02  0.668609E-02  0.656353E-02  0.641808E-02
  0.626442E-02  0.612138E-02  0.600998E-02  0.595202E-02  0.596943E-02  0.608404E-02
  0.631712E-02  0.668823E-02  0.721336E-02  0.790259E-02  0.875778E-02  0.977034E-02
  0.822383E-02  0.915445E-02  0.101672E-01  0.112201E-01  0.122592E-01  0.132221E-01
  0.140442E-01  0.146660E-01  0.150406E-01  0.151396E-01  0.149578E-01  0.145149E-01
  0.138525E-01  0.130271E-01  0.121005E-01  0.111326E-01  0.101769E-01  0.927759E-02
  0.846823E-02  0.777015E-02  0.719247E-02  0.673337E-02  0.638292E-02  0.612645E-02
  0.594741E-02  0.582858E-02  0.575243E-02  0.570156E-02  0.566011E-02  0.561536E-02
  0.555871E-02  0.548602E-02  0.539784E-02  0.529946E-02  0.520046E-02  0.511365E-02
  0.505374E-02  0.503647E-02  0.507808E-02  0.519490E-02  0.540281E-02  0.571671E-02
  0.614955E-02  0.671079E-02  0.740393E-02  0.822383E-02  0.693877E-02  0.767959E-02
  0.848723E-02  0.933011E-02  0.101680E-01  0.109546E-01  0.116407E-01  0.121794E-01
  0.125309E-01  0.126692E-01  0.125854E-01  0.122906E-01  0.118131E-01  0.111935E-01
  0.104780E-01  0.971264E-02  0.894013E-02  0.819774E-02  0.751533E-02  0.691338E-02
  0.640191E-02  0.598134E-02  0.564511E-02  0.538307E-02  0.518401E-02  0.503638E-02
  0.492804E-02  0.484649E-02  0.478014E-02  0.471971E-02  0.465892E-02  0.459446E-02
  0.452596E-02  0.445636E-02  0.439176E-02  0.434071E-02  0.431323E-02  0.432033E-02
  0.437378E-02  0.448558E-02  0.466738E-02  0.492989E-02  0.528269E-02  0.573349E-02
  0.628631E-02  0.693877E-02  0.590739E-02  0.648710E-02  0.711961E-02  0.778151E-02
  0.844327E-02  0.907127E-02  0.962968E-02  0.100829E-01  0.103992E-01  0.105556E-01
  0.105419E-01  0.103628E-01  0.100363E-01  0.959019E-02  0.905763E-02  0.847295E-02
  0.786924E-02  0.727650E-02  0.671979E-02  0.621714E-02  0.577831E-02  0.540533E-02
  0.509478E-02  0.484062E-02  0.463597E-02  0.447353E-02  0.434514E-02  0.424212E-02
  0.415640E-02  0.408176E-02  0.401412E-02  0.395116E-02  0.389226E-02  0.383885E-02
  0.379467E-02  0.376530E-02  0.375742E-02  0.377846E-02  0.383654E-02  0.394013E-02
  0.409740E-02  0.431574E-02  0.460163E-02  0.496058E-02  0.539607E-02  0.590739E-02
  0.511219E-02  0.555864E-02  0.604499E-02  0.655457E-02  0.706632E-02  0.755649E-02
  0.799972E-02  0.837029E-02  0.864419E-02  0.880264E-02  0.883546E-02  0.874295E-02
  0.853547E-02  0.823112E-02  0.785268E-02  0.742480E-02  0.697196E-02  0.651701E-02
  0.607955E-02  0.567420E-02  0.530951E-02  0.498843E-02  0.471007E-02  0.447179E-02
  0.427026E-02  0.410148E-02  0.396044E-02  0.384155E-02  0.373980E-02  0.365162E-02
  0.357494E-02  0.350862E-02  0.345225E-02  0.340648E-02  0.337345E-02  0.335659E-02
  0.336015E-02  0.338884E-02  0.344783E-02  0.354258E-02  0.367840E-02  0.385999E-02
  0.409141E-02  0.437609E-02  0.471641E-02  0.511219E-02  0.453004E-02  0.486876E-02
  0.523572E-02  0.561977E-02  0.600668E-02  0.638023E-02  0.672309E-02  0.701739E-02
  0.724605E-02  0.739496E-02  0.745529E-02  0.742500E-02  0.730893E-02  0.711784E-02
  0.686653E-02  0.657181E-02  0.625073E-02  0.591934E-02  0.559162E-02  0.527836E-02
  0.498634E-02  0.471867E-02  0.447613E-02  0.425853E-02  0.406522E-02  0.389484E-02
  0.374506E-02  0.361310E-02  0.349669E-02  0.339466E-02  0.330672E-02  0.323297E-02
  0.317360E-02  0.312914E-02  0.310077E-02  0.309035E-02  0.310016E-02  0.313279E-02
  0.319100E-02  0.327772E-02  0.339582E-02  0.354785E-02  0.373594E-02  0.396184E-02
  0.422667E-02  0.453004E-02  0.413664E-02  0.438958E-02  0.466059E-02  0.494294E-02
  0.522778E-02  0.550473E-02  0.576239E-02  0.598893E-02  0.617306E-02  0.630531E-02
  0.637920E-02  0.639192E-02  0.634472E-02  0.624287E-02  0.609495E-02  0.591154E-02
  0.570353E-02  0.548099E-02  0.525256E-02  0.502499E-02  0.480284E-02  0.458868E-02
  0.438398E-02  0.418995E-02  0.400774E-02  0.383809E-02  0.368109E-02  0.353671E-02
  0.340537E-02  0.328814E-02  0.318636E-02  0.310132E-02  0.303404E-02  0.298546E-02
  0.295644E-02  0.294779E-02  0.296026E-02  0.299458E-02  0.305148E-02  0.313176E-02
  0.323618E-02  0.336544E-02  0.352006E-02  0.370033E-02  0.390614E-02  0.413664E-02
  0.391009E-02  0.409519E-02  0.428963E-02  0.449013E-02  0.469214E-02  0.488979E-02
  0.507622E-02  0.524418E-02  0.538700E-02  0.549933E-02  0.557741E-02  0.561893E-02
  0.562314E-02  0.559138E-02  0.552739E-02  0.543671E-02  0.532528E-02  0.519826E-02
  0.505952E-02  0.491180E-02  0.475691E-02  0.459610E-02  0.443058E-02  0.426199E-02
  0.409246E-02  0.392428E-02  0.375986E-02  0.360191E-02  0.345362E-02  0.331839E-02
  0.319926E-02  0.309870E-02  0.301867E-02  0.296079E-02  0.292612E-02  0.291502E-02
  0.292711E-02  0.296155E-02  0.301725E-02  0.309307E-02  0.318790E-02  0.330071E-02
  0.343053E-02  0.357623E-02  0.373656E-02  0.391009E-02  0.383233E-02  0.396409E-02
  0.409736E-02  0.423163E-02  0.436582E-02  0.449783E-02  0.462449E-02  0.474223E-02
  0.484798E-02  0.493974E-02  0.501633E-02  0.507669E-02  0.511947E-02  0.514354E-02
  0.514895E-02  0.513708E-02  0.510978E-02  0.506813E-02  0.501193E-02  0.493998E-02
  0.485090E-02  0.474382E-02  0.461884E-02  0.447724E-02  0.432138E-02  0.415465E-02
  0.398144E-02  0.380721E-02  0.363810E-02  0.348015E-02  0.333845E-02  0.321692E-02
  0.311864E-02  0.304603E-02  0.300065E-02  0.298280E-02  0.299144E-02  0.302448E-02
  0.307919E-02  0.315256E-02  0.324165E-02  0.334373E-02  0.345625E-02  0.357673E-02
  0.370277E-02  0.383233E-02  0.388893E-02  0.397916E-02  0.406351E-02  0.414349E-02
  0.422099E-02  0.429729E-02  0.437268E-02  0.444678E-02  0.451942E-02  0.459121E-02
  0.466323E-02  0.473595E-02  0.480846E-02  0.487855E-02  0.494373E-02  0.500194E-02
  0.505138E-02  0.508952E-02  0.511240E-02  0.511495E-02  0.509216E-02  0.504035E-02
  0.495782E-02  0.484484E-02  0.470352E-02  0.453780E-02  0.435372E-02  0.415934E-02
  0.396389E-02  0.377646E-02  0.360476E-02  0.345481E-02  0.333119E-02  0.323737E-02
  0.317551E-02  0.314612E-02  0.314777E-02  0.317743E-02  0.323091E-02  0.330344E-02
  0.339017E-02  0.348652E-02  0.358825E-02  0.369144E-02  0.379257E-02  0.388893E-02