
     Program POST-PROC v.6.5 starts on 11Aug2023 at 14:29:20 

     This program is part of the open-source Quantum ESPRESSO suite
     for quantum simulation of materials; please cite
         "P. Giannozzi et al., J. Phys.:Condens. Matter 21 395502 (2009);
         "P. Giannozzi et al., J. Phys.:Condens. Matter 29 465901 (2017);
          URL http://www.quantum-espresso.org", 
     in publications or presentations arising from this work. More details at
     http://www.quantum-espresso.org/quote

     Serial version

     Reading xml data from directory:

     /projectsn/mp1009_1/Valeria/cWT-KEDF/Phases/Transition_Btin_hd/0.5/si_0.5_3_4_Btin_hd.save/

     Program POST-PROC v.6.5 starts on 11Aug2023 at 14:29:20 

     This program is part of the open-source Quantum ESPRESSO suite
     for quantum simulation of materials; please cite
         "P. Giannozzi et al., J. Phys.:Condens. Matter 21 395502 (2009);
         "P. Giannozzi et al., J. Phys.:Condens. Matter 29 465901 (2017);
          URL http://www.quantum-espresso.org", 
     in publications or presentations arising from this work. More details at
     http://www.quantum-espresso.org/quote

     Serial version

     Reading xml data from directory:

     /projectsn/mp1009_1/Valeria/cWT-KEDF/Phases/Transition_Btin_hd/0.5/si_0.5_3_4_Btin_hd.save/

     Program POST-PROC v.6.5 starts on 11Aug2023 at 14:29:20 

     This program is part of the open-source Quantum ESPRESSO suite
     for quantum simulation of materials; please cite
         "P. Giannozzi et al., J. Phys.:Condens. Matter 21 395502 (2009);
         "P. Giannozzi et al., J. Phys.:Condens. Matter 29 465901 (2017);
          URL http://www.quantum-espresso.org", 
     in publications or presentations arising from this work. More details at
     http://www.quantum-espresso.org/quote

     Serial version

     Reading xml data from directory:

     /projectsn/mp1009_1/Valeria/cWT-KEDF/Phases/Transition_Btin_hd/0.5/si_0.5_3_4_Btin_hd.save/

     Program POST-PROC v.6.5 starts on 11Aug2023 at 14:29:20 

     This program is part of the open-source Quantum ESPRESSO suite
     for quantum simulation of materials; please cite
         "P. Giannozzi et al., J. Phys.:Condens. Matter 21 395502 (2009);
         "P. Giannozzi et al., J. Phys.:Condens. Matter 29 465901 (2017);
          URL http://www.quantum-espresso.org", 
     in publications or presentations arising from this work. More details at
     http://www.quantum-espresso.org/quote

     Serial version

     Reading xml data from directory:

     /projectsn/mp1009_1/Valeria/cWT-KEDF/Phases/Transition_Btin_hd/0.5/si_0.5_3_4_Btin_hd.save/

     Program POST-PROC v.6.5 starts on 11Aug2023 at 14:29:20 

     This program is part of the open-source Quantum ESPRESSO suite
     for quantum simulation of materials; please cite
         "P. Giannozzi et al., J. Phys.:Condens. Matter 21 395502 (2009);
         "P. Giannozzi et al., J. Phys.:Condens. Matter 29 465901 (2017);
          URL http://www.quantum-espresso.org", 
     in publications or presentations arising from this work. More details at
     http://www.quantum-espresso.org/quote

     Serial version

     Reading xml data from directory:

     /projectsn/mp1009_1/Valeria/cWT-KEDF/Phases/Transition_Btin_hd/0.5/si_0.5_3_4_Btin_hd.save/

     Program POST-PROC v.6.5 starts on 11Aug2023 at 14:29:20 

     This program is part of the open-source Quantum ESPRESSO suite
     for quantum simulation of materials; please cite
         "P. Giannozzi et al., J. Phys.:Condens. Matter 21 395502 (2009);
         "P. Giannozzi et al., J. Phys.:Condens. Matter 29 465901 (2017);
          URL http://www.quantum-espresso.org", 
     in publications or presentations arising from this work. More details at
     http://www.quantum-espresso.org/quote

     Serial version

     Reading xml data from directory:

     /projectsn/mp1009_1/Valeria/cWT-KEDF/Phases/Transition_Btin_hd/0.5/si_0.5_3_4_Btin_hd.save/

     Program POST-PROC v.6.5 starts on 11Aug2023 at 14:29:20 

     This program is part of the open-source Quantum ESPRESSO suite
     for quantum simulation of materials; please cite
         "P. Giannozzi et al., J. Phys.:Condens. Matter 21 395502 (2009);
         "P. Giannozzi et al., J. Phys.:Condens. Matter 29 465901 (2017);
          URL http://www.quantum-espresso.org", 
     in publications or presentations arising from this work. More details at
     http://www.quantum-espresso.org/quote

     Serial version

     Reading xml data from directory:

     /projectsn/mp1009_1/Valeria/cWT-KEDF/Phases/Transition_Btin_hd/0.5/si_0.5_3_4_Btin_hd.save/

     Program POST-PROC v.6.5 starts on 11Aug2023 at 14:29:20 

     This program is part of the open-source Quantum ESPRESSO suite
     for quantum simulation of materials; please cite
         "P. Giannozzi et al., J. Phys.:Condens. Matter 21 395502 (2009);
         "P. Giannozzi et al., J. Phys.:Condens. Matter 29 465901 (2017);
          URL http://www.quantum-espresso.org", 
     in publications or presentations arising from this work. More details at
     http://www.quantum-espresso.org/quote

     Serial version

     Reading xml data from directory:

     /projectsn/mp1009_1/Valeria/cWT-KEDF/Phases/Transition_Btin_hd/0.5/si_0.5_3_4_Btin_hd.save/

     Program POST-PROC v.6.5 starts on 11Aug2023 at 14:29:20 

     This program is part of the open-source Quantum ESPRESSO suite
     for quantum simulation of materials; please cite
         "P. Giannozzi et al., J. Phys.:Condens. Matter 21 395502 (2009);
         "P. Giannozzi et al., J. Phys.:Condens. Matter 29 465901 (2017);
          URL http://www.quantum-espresso.org", 
     in publications or presentations arising from this work. More details at
     http://www.quantum-espresso.org/quote

     Serial version

     Reading xml data from directory:

     /projectsn/mp1009_1/Valeria/cWT-KEDF/Phases/Transition_Btin_hd/0.5/si_0.5_3_4_Btin_hd.save/

     Program POST-PROC v.6.5 starts on 11Aug2023 at 14:29:20 

     This program is part of the open-source Quantum ESPRESSO suite
     for quantum simulation of materials; please cite
         "P. Giannozzi et al., J. Phys.:Condens. Matter 21 395502 (2009);
         "P. Giannozzi et al., J. Phys.:Condens. Matter 29 465901 (2017);
          URL http://www.quantum-espresso.org", 
     in publications or presentations arising from this work. More details at
     http://www.quantum-espresso.org/quote

     Serial version

     Reading xml data from directory:

     /projectsn/mp1009_1/Valeria/cWT-KEDF/Phases/Transition_Btin_hd/0.5/si_0.5_3_4_Btin_hd.save/

     Program POST-PROC v.6.5 starts on 11Aug2023 at 14:29:20 

     This program is part of the open-source Quantum ESPRESSO suite
     for quantum simulation of materials; please cite
         "P. Giannozzi et al., J. Phys.:Condens. Matter 21 395502 (2009);
         "P. Giannozzi et al., J. Phys.:Condens. Matter 29 465901 (2017);
          URL http://www.quantum-espresso.org", 
     in publications or presentations arising from this work. More details at
     http://www.quantum-espresso.org/quote

     Serial version

     Reading xml data from directory:

     /projectsn/mp1009_1/Valeria/cWT-KEDF/Phases/Transition_Btin_hd/0.5/si_0.5_3_4_Btin_hd.save/

     Program POST-PROC v.6.5 starts on 11Aug2023 at 14:29:20 

     This program is part of the open-source Quantum ESPRESSO suite
     for quantum simulation of materials; please cite
         "P. Giannozzi et al., J. Phys.:Condens. Matter 21 395502 (2009);
         "P. Giannozzi et al., J. Phys.:Condens. Matter 29 465901 (2017);
          URL http://www.quantum-espresso.org", 
     in publications or presentations arising from this work. More details at
     http://www.quantum-espresso.org/quote

     Serial version

     Reading xml data from directory:

     /projectsn/mp1009_1/Valeria/cWT-KEDF/Phases/Transition_Btin_hd/0.5/si_0.5_3_4_Btin_hd.save/

     Program POST-PROC v.6.5 starts on 11Aug2023 at 14:29:20 

     This program is part of the open-source Quantum ESPRESSO suite
     for quantum simulation of materials; please cite
         "P. Giannozzi et al., J. Phys.:Condens. Matter 21 395502 (2009);
         "P. Giannozzi et al., J. Phys.:Condens. Matter 29 465901 (2017);
          URL http://www.quantum-espresso.org", 
     in publications or presentations arising from this work. More details at
     http://www.quantum-espresso.org/quote

     Serial version

     Reading xml data from directory:

     /projectsn/mp1009_1/Valeria/cWT-KEDF/Phases/Transition_Btin_hd/0.5/si_0.5_3_4_Btin_hd.save/

     Program POST-PROC v.6.5 starts on 11Aug2023 at 14:29:20 

     This program is part of the open-source Quantum ESPRESSO suite
     for quantum simulation of materials; please cite
         "P. Giannozzi et al., J. Phys.:Condens. Matter 21 395502 (2009);
         "P. Giannozzi et al., J. Phys.:Condens. Matter 29 465901 (2017);
          URL http://www.quantum-espresso.org", 
     in publications or presentations arising from this work. More details at
     http://www.quantum-espresso.org/quote

     Serial version

     Reading xml data from directory:

     /projectsn/mp1009_1/Valeria/cWT-KEDF/Phases/Transition_Btin_hd/0.5/si_0.5_3_4_Btin_hd.save/

     Program POST-PROC v.6.5 starts on 11Aug2023 at 14:29:20 

     This program is part of the open-source Quantum ESPRESSO suite
     for quantum simulation of materials; please cite
         "P. Giannozzi et al., J. Phys.:Condens. Matter 21 395502 (2009);
         "P. Giannozzi et al., J. Phys.:Condens. Matter 29 465901 (2017);
          URL http://www.quantum-espresso.org", 
     in publications or presentations arising from this work. More details at
     http://www.quantum-espresso.org/quote

     Serial version

     Reading xml data from directory:

     /projectsn/mp1009_1/Valeria/cWT-KEDF/Phases/Transition_Btin_hd/0.5/si_0.5_3_4_Btin_hd.save/

     Program POST-PROC v.6.5 starts on 11Aug2023 at 14:29:20 

     This program is part of the open-source Quantum ESPRESSO suite
     for quantum simulation of materials; please cite
         "P. Giannozzi et al., J. Phys.:Condens. Matter 21 395502 (2009);
         "P. Giannozzi et al., J. Phys.:Condens. Matter 29 465901 (2017);
          URL http://www.quantum-espresso.org", 
     in publications or presentations arising from this work. More details at
     http://www.quantum-espresso.org/quote

     Serial version

     Reading xml data from directory:

     /projectsn/mp1009_1/Valeria/cWT-KEDF/Phases/Transition_Btin_hd/0.5/si_0.5_3_4_Btin_hd.save/

     Program POST-PROC v.6.5 starts on 11Aug2023 at 14:29:20 

     This program is part of the open-source Quantum ESPRESSO suite
     for quantum simulation of materials; please cite
         "P. Giannozzi et al., J. Phys.:Condens. Matter 21 395502 (2009);
         "P. Giannozzi et al., J. Phys.:Condens. Matter 29 465901 (2017);
          URL http://www.quantum-espresso.org", 
     in publications or presentations arising from this work. More details at
     http://www.quantum-espresso.org/quote

     Serial version

     Reading xml data from directory:

     /projectsn/mp1009_1/Valeria/cWT-KEDF/Phases/Transition_Btin_hd/0.5/si_0.5_3_4_Btin_hd.save/

     Program POST-PROC v.6.5 starts on 11Aug2023 at 14:29:20 

     This program is part of the open-source Quantum ESPRESSO suite
     for quantum simulation of materials; please cite
         "P. Giannozzi et al., J. Phys.:Condens. Matter 21 395502 (2009);
         "P. Giannozzi et al., J. Phys.:Condens. Matter 29 465901 (2017);
          URL http://www.quantum-espresso.org", 
     in publications or presentations arising from this work. More details at
     http://www.quantum-espresso.org/quote

     Serial version

     Program POST-PROC v.6.5 starts on 11Aug2023 at 14:29:20 

     This program is part of the open-source Quantum ESPRESSO suite
     for quantum simulation of materials; please cite
         "P. Giannozzi et al., J. Phys.:Condens. Matter 21 395502 (2009);
         "P. Giannozzi et al., J. Phys.:Condens. Matter 29 465901 (2017);
          URL http://www.quantum-espresso.org", 
     in publications or presentations arising from this work. More details at
     http://www.quantum-espresso.org/quote

     Serial version

     Reading xml data from directory:

     /projectsn/mp1009_1/Valeria/cWT-KEDF/Phases/Transition_Btin_hd/0.5/si_0.5_3_4_Btin_hd.save/

     Reading xml data from directory:

     /projectsn/mp1009_1/Valeria/cWT-KEDF/Phases/Transition_Btin_hd/0.5/si_0.5_3_4_Btin_hd.save/

     Program POST-PROC v.6.5 starts on 11Aug2023 at 14:29:20 

     This program is part of the open-source Quantum ESPRESSO suite
     for quantum simulation of materials; please cite
         "P. Giannozzi et al., J. Phys.:Condens. Matter 21 395502 (2009);
         "P. Giannozzi et al., J. Phys.:Condens. Matter 29 465901 (2017);
          URL http://www.quantum-espresso.org", 
     in publications or presentations arising from this work. More details at
     http://www.quantum-espresso.org/quote

     Serial version

     Reading xml data from directory:

     /projectsn/mp1009_1/Valeria/cWT-KEDF/Phases/Transition_Btin_hd/0.5/si_0.5_3_4_Btin_hd.save/

     IMPORTANT: XC functional enforced from input :
     Exchange-correlation= PZ
                           (   1   1   0   0   0   0   0)
     Any further DFT definition will be discarded
     Please, verify this is what you really want


     IMPORTANT: XC functional enforced from input :
     Exchange-correlation= PZ
                           (   1   1   0   0   0   0   0)
     Any further DFT definition will be discarded
     Please, verify this is what you really want


     G-vector sticks info
     --------------------
     sticks:   dense  smooth     PW     G-vecs:    dense   smooth      PW
     Sum         883     883    273                21117    21117    3567


     G-vector sticks info
     --------------------
     sticks:   dense  smooth     PW     G-vecs:    dense   smooth      PW
     Sum         883     883    273                21117    21117    3567


     IMPORTANT: XC functional enforced from input :
     Exchange-correlation= PZ
                           (   1   1   0   0   0   0   0)
     Any further DFT definition will be discarded
     Please, verify this is what you really want


     G-vector sticks info
     --------------------
     sticks:   dense  smooth     PW     G-vecs:    dense   smooth      PW
     Sum         883     883    273                21117    21117    3567


     IMPORTANT: XC functional enforced from input :
     Exchange-correlation= PZ
                           (   1   1   0   0   0   0   0)
     Any further DFT definition will be discarded
     Please, verify this is what you really want


     G-vector sticks info
     --------------------
     sticks:   dense  smooth     PW     G-vecs:    dense   smooth      PW
     Sum         883     883    273                21117    21117    3567


     IMPORTANT: XC functional enforced from input :
     Exchange-correlation= PZ
                           (   1   1   0   0   0   0   0)
     Any further DFT definition will be discarded
     Please, verify this is what you really want


     G-vector sticks info
     --------------------
     sticks:   dense  smooth     PW     G-vecs:    dense   smooth      PW
     Sum         883     883    273                21117    21117    3567


     IMPORTANT: XC functional enforced from input :
     Exchange-correlation= PZ
                           (   1   1   0   0   0   0   0)
     Any further DFT definition will be discarded
     Please, verify this is what you really want


     G-vector sticks info
     --------------------
     sticks:   dense  smooth     PW     G-vecs:    dense   smooth      PW
     Sum         883     883    273                21117    21117    3567


     Calling punch_plot, plot_num =   0
     Writing data to file  tmp.pp

     Calling punch_plot, plot_num =   0
     Writing data to file  tmp.pp
     Reading data from file  tmp.pp
     Reading data from file  tmp.pp

     IMPORTANT: XC functional enforced from input :
     Exchange-correlation= PZ
                           (   1   1   0   0   0   0   0)
     Any further DFT definition will be discarded
     Please, verify this is what you really want


     G-vector sticks info
     --------------------
     sticks:   dense  smooth     PW     G-vecs:    dense   smooth      PW
     Sum         883     883    273                21117    21117    3567


     Writing data to be plotted to file si_0.5_3_4_Btin_hd.xsf

     Writing data to be plotted to file si_0.5_3_4_Btin_hd.xsf

     IMPORTANT: XC functional enforced from input :
     Exchange-correlation= PZ
                           (   1   1   0   0   0   0   0)
     Any further DFT definition will be discarded
     Please, verify this is what you really want


     G-vector sticks info
     --------------------
     sticks:   dense  smooth     PW     G-vecs:    dense   smooth      PW
     Sum         883     883    273                21117    21117    3567

     Plot Type: 3D                     Output format: XCrySDen     

     POST-PROC    :      3.47s CPU      3.73s WALL


   This run was terminated on:  14:29:23  11Aug2023            

=------------------------------------------------------------------------------=
   JOB DONE.
=------------------------------------------------------------------------------=
     Plot Type: 3D                     Output format: XCrySDen     

     POST-PROC    :      3.49s CPU      3.69s WALL


   This run was terminated on:  14:29:23  11Aug2023            

=------------------------------------------------------------------------------=
   JOB DONE.
=------------------------------------------------------------------------------=

     IMPORTANT: XC functional enforced from input :
     Exchange-correlation= PZ
                           (   1   1   0   0   0   0   0)
     Any further DFT definition will be discarded
     Please, verify this is what you really want


     G-vector sticks info
     --------------------
     sticks:   dense  smooth     PW     G-vecs:    dense   smooth      PW
     Sum         883     883    273                21117    21117    3567


     Calling punch_plot, plot_num =   0
     Writing data to file  tmp.pp

     Calling punch_plot, plot_num =   0
     Writing data to file  tmp.pp

     Calling punch_plot, plot_num =   0
     Writing data to file  tmp.pp

     IMPORTANT: XC functional enforced from input :
     Exchange-correlation= PZ
                           (   1   1   0   0   0   0   0)
     Any further DFT definition will be discarded
     Please, verify this is what you really want


     G-vector sticks info
     --------------------
     sticks:   dense  smooth     PW     G-vecs:    dense   smooth      PW
     Sum         883     883    273                21117    21117    3567


     Calling punch_plot, plot_num =   0
     Writing data to file  tmp.pp
     Reading data from file  tmp.pp
     Reading data from file  tmp.pp

     IMPORTANT: XC functional enforced from input :
     Exchange-correlation= PZ
                           (   1   1   0   0   0   0   0)
     Any further DFT definition will be discarded
     Please, verify this is what you really want

     Reading data from file  tmp.pp

     G-vector sticks info
     --------------------
     sticks:   dense  smooth     PW     G-vecs:    dense   smooth      PW
     Sum         883     883    273                21117    21117    3567


     Writing data to be plotted to file si_0.5_3_4_Btin_hd.xsf
     Reading data from file  tmp.pp

     IMPORTANT: XC functional enforced from input :
     Exchange-correlation= PZ
                           (   1   1   0   0   0   0   0)
     Any further DFT definition will be discarded
     Please, verify this is what you really want


     G-vector sticks info
     --------------------
     sticks:   dense  smooth     PW     G-vecs:    dense   smooth      PW
     Sum         883     883    273                21117    21117    3567


     Writing data to be plotted to file si_0.5_3_4_Btin_hd.xsf

     IMPORTANT: XC functional enforced from input :
     Exchange-correlation= PZ
                           (   1   1   0   0   0   0   0)
     Any further DFT definition will be discarded
     Please, verify this is what you really want


     G-vector sticks info
     --------------------
     sticks:   dense  smooth     PW     G-vecs:    dense   smooth      PW
     Sum         883     883    273                21117    21117    3567


     Writing data to be plotted to file si_0.5_3_4_Btin_hd.xsf
     Plot Type: 3D                     Output format: XCrySDen     

     POST-PROC    :      3.10s CPU      3.20s WALL


   This run was terminated on:  14:29:24  11Aug2023            

=------------------------------------------------------------------------------=
   JOB DONE.
=------------------------------------------------------------------------------=
     Plot Type: 3D                     Output format: XCrySDen     

     POST-PROC    :      3.11s CPU      3.20s WALL


   This run was terminated on:  14:29:24  11Aug2023            

=------------------------------------------------------------------------------=
   JOB DONE.
=------------------------------------------------------------------------------=
     Plot Type: 3D                     Output format: XCrySDen     

     POST-PROC    :      3.12s CPU      3.22s WALL


   This run was terminated on:  14:29:24  11Aug2023            

=------------------------------------------------------------------------------=
   JOB DONE.
=------------------------------------------------------------------------------=

     IMPORTANT: XC functional enforced from input :
     Exchange-correlation= PZ
                           (   1   1   0   0   0   0   0)
     Any further DFT definition will be discarded
     Please, verify this is what you really want


     G-vector sticks info
     --------------------
     sticks:   dense  smooth     PW     G-vecs:    dense   smooth      PW
     Sum         883     883    273                21117    21117    3567


     IMPORTANT: XC functional enforced from input :
     Exchange-correlation= PZ
                           (   1   1   0   0   0   0   0)
     Any further DFT definition will be discarded
     Please, verify this is what you really want


     G-vector sticks info
     --------------------
     sticks:   dense  smooth     PW     G-vecs:    dense   smooth      PW
     Sum         883     883    273                21117    21117    3567


     Calling punch_plot, plot_num =   0
     Writing data to file  tmp.pp

     IMPORTANT: XC functional enforced from input :
     Exchange-correlation= PZ
                           (   1   1   0   0   0   0   0)
     Any further DFT definition will be discarded
     Please, verify this is what you really want


     G-vector sticks info
     --------------------
     sticks:   dense  smooth     PW     G-vecs:    dense   smooth      PW
     Sum         883     883    273                21117    21117    3567


     IMPORTANT: XC functional enforced from input :
     Exchange-correlation= PZ
                           (   1   1   0   0   0   0   0)
     Any further DFT definition will be discarded
     Please, verify this is what you really want


     G-vector sticks info
     --------------------
     sticks:   dense  smooth     PW     G-vecs:    dense   smooth      PW
     Sum         883     883    273                21117    21117    3567

     Reading data from file  tmp.pp

     IMPORTANT: XC functional enforced from input :
     Exchange-correlation= PZ
                           (   1   1   0   0   0   0   0)
     Any further DFT definition will be discarded
     Please, verify this is what you really want


     G-vector sticks info
     --------------------
     sticks:   dense  smooth     PW     G-vecs:    dense   smooth      PW
     Sum         883     883    273                21117    21117    3567


     Calling punch_plot, plot_num =   0
     Writing data to file  tmp.pp

     Calling punch_plot, plot_num =   0
     Writing data to file  tmp.pp
     Reading data from file  tmp.pp
     Reading data from file  tmp.pp

     Writing data to be plotted to file si_0.5_3_4_Btin_hd.xsf

     Calling punch_plot, plot_num =   0
     Writing data to file  tmp.pp

     IMPORTANT: XC functional enforced from input :
     Exchange-correlation= PZ
                           (   1   1   0   0   0   0   0)
     Any further DFT definition will be discarded
     Please, verify this is what you really want


     G-vector sticks info
     --------------------
     sticks:   dense  smooth     PW     G-vecs:    dense   smooth      PW
     Sum         883     883    273                21117    21117    3567

     Plot Type: 3D                     Output format: XCrySDen     

     POST-PROC    :      3.41s CPU      3.54s WALL


   This run was terminated on:  14:29:24  11Aug2023            

=------------------------------------------------------------------------------=
   JOB DONE.
=------------------------------------------------------------------------------=

     Calling punch_plot, plot_num =   0
     Writing data to file  tmp.pp
     Reading data from file  tmp.pp

     Calling punch_plot, plot_num =   0
     Writing data to file  tmp.pp

     Calling punch_plot, plot_num =   0
     Writing data to file  tmp.pp
     Reading data from file  tmp.pp
     Reading data from file  tmp.pp
     Reading data from file  tmp.pp

     Calling punch_plot, plot_num =   0
     Writing data to file  tmp.pp

     Writing data to be plotted to file si_0.5_3_4_Btin_hd.xsf

     IMPORTANT: XC functional enforced from input :
     Exchange-correlation= PZ
                           (   1   1   0   0   0   0   0)
     Any further DFT definition will be discarded
     Please, verify this is what you really want


     Calling punch_plot, plot_num =   0
     Writing data to file  tmp.pp

     G-vector sticks info
     --------------------
     sticks:   dense  smooth     PW     G-vecs:    dense   smooth      PW
     Sum         883     883    273                21117    21117    3567


     Calling punch_plot, plot_num =   0
     Writing data to file  tmp.pp
     Reading data from file  tmp.pp

     Calling punch_plot, plot_num =   0
     Writing data to file  tmp.pp
     Plot Type: 3D                     Output format: XCrySDen     

     POST-PROC    :      3.48s CPU      3.60s WALL


   This run was terminated on:  14:29:24  11Aug2023            

=------------------------------------------------------------------------------=
   JOB DONE.
=------------------------------------------------------------------------------=
     Reading data from file  tmp.pp

     Calling punch_plot, plot_num =   0
     Writing data to file  tmp.pp
     Reading data from file  tmp.pp
     Reading data from file  tmp.pp

     Writing data to be plotted to file si_0.5_3_4_Btin_hd.xsf
     Reading data from file  tmp.pp

     Writing data to be plotted to file si_0.5_3_4_Btin_hd.xsf

     Writing data to be plotted to file si_0.5_3_4_Btin_hd.xsf
     Plot Type: 3D                     Output format: XCrySDen     

     POST-PROC    :      3.47s CPU      3.58s WALL


   This run was terminated on:  14:29:24  11Aug2023            

=------------------------------------------------------------------------------=
   JOB DONE.
=------------------------------------------------------------------------------=
     Plot Type: 3D                     Output format: XCrySDen     

     POST-PROC    :      3.45s CPU      3.57s WALL


   This run was terminated on:  14:29:24  11Aug2023            

=------------------------------------------------------------------------------=
   JOB DONE.
=------------------------------------------------------------------------------=

     Calling punch_plot, plot_num =   0
     Writing data to file  tmp.pp
     Plot Type: 3D                     Output format: XCrySDen     

     POST-PROC    :      3.47s CPU      3.58s WALL


   This run was terminated on:  14:29:24  11Aug2023            

=------------------------------------------------------------------------------=
   JOB DONE.
=------------------------------------------------------------------------------=
     Reading data from file  tmp.pp

     Writing data to be plotted to file si_0.5_3_4_Btin_hd.xsf
     Plot Type: 3D                     Output format: XCrySDen     

     POST-PROC    :      3.57s CPU      3.70s WALL


   This run was terminated on:  14:29:24  11Aug2023            

=------------------------------------------------------------------------------=
   JOB DONE.
=------------------------------------------------------------------------------=

     Calling punch_plot, plot_num =   0
     Writing data to file  tmp.pp
     Reading data from file  tmp.pp

     Writing data to be plotted to file si_0.5_3_4_Btin_hd.xsf
     Plot Type: 3D                     Output format: XCrySDen     

     POST-PROC    :      3.60s CPU      3.74s WALL


   This run was terminated on:  14:29:24  11Aug2023            

=------------------------------------------------------------------------------=
   JOB DONE.
=------------------------------------------------------------------------------=
