
     Program POST-PROC v.6.5 starts on 11Aug2023 at 14:34:38 

     This program is part of the open-source Quantum ESPRESSO suite
     for quantum simulation of materials; please cite
         "P. Giannozzi et al., J. Phys.:Condens. Matter 21 395502 (2009);
         "P. Giannozzi et al., J. Phys.:Condens. Matter 29 465901 (2017);
          URL http://www.quantum-espresso.org", 
     in publications or presentations arising from this work. More details at
     http://www.quantum-espresso.org/quote

     Serial version

     Reading xml data from directory:

     /projectsn/mp1009_1/Valeria/cWT-KEDF/Phases/Transition_Btin_hd/0.5/si_0.5_16_4_Btin_hd.save/

     Program POST-PROC v.6.5 starts on 11Aug2023 at 14:34:38 

     This program is part of the open-source Quantum ESPRESSO suite
     for quantum simulation of materials; please cite
         "P. Giannozzi et al., J. Phys.:Condens. Matter 21 395502 (2009);
         "P. Giannozzi et al., J. Phys.:Condens. Matter 29 465901 (2017);
          URL http://www.quantum-espresso.org", 
     in publications or presentations arising from this work. More details at
     http://www.quantum-espresso.org/quote

     Serial version

     Reading xml data from directory:

     /projectsn/mp1009_1/Valeria/cWT-KEDF/Phases/Transition_Btin_hd/0.5/si_0.5_16_4_Btin_hd.save/

     Program POST-PROC v.6.5 starts on 11Aug2023 at 14:34:38 

     This program is part of the open-source Quantum ESPRESSO suite
     for quantum simulation of materials; please cite
         "P. Giannozzi et al., J. Phys.:Condens. Matter 21 395502 (2009);
         "P. Giannozzi et al., J. Phys.:Condens. Matter 29 465901 (2017);
          URL http://www.quantum-espresso.org", 
     in publications or presentations arising from this work. More details at
     http://www.quantum-espresso.org/quote

     Serial version

     Reading xml data from directory:

     /projectsn/mp1009_1/Valeria/cWT-KEDF/Phases/Transition_Btin_hd/0.5/si_0.5_16_4_Btin_hd.save/

     Program POST-PROC v.6.5 starts on 11Aug2023 at 14:34:38 

     This program is part of the open-source Quantum ESPRESSO suite
     for quantum simulation of materials; please cite
         "P. Giannozzi et al., J. Phys.:Condens. Matter 21 395502 (2009);
         "P. Giannozzi et al., J. Phys.:Condens. Matter 29 465901 (2017);
          URL http://www.quantum-espresso.org", 
     in publications or presentations arising from this work. More details at
     http://www.quantum-espresso.org/quote

     Serial version

     Reading xml data from directory:

     /projectsn/mp1009_1/Valeria/cWT-KEDF/Phases/Transition_Btin_hd/0.5/si_0.5_16_4_Btin_hd.save/

     Program POST-PROC v.6.5 starts on 11Aug2023 at 14:34:38 

     This program is part of the open-source Quantum ESPRESSO suite
     for quantum simulation of materials; please cite
         "P. Giannozzi et al., J. Phys.:Condens. Matter 21 395502 (2009);
         "P. Giannozzi et al., J. Phys.:Condens. Matter 29 465901 (2017);
          URL http://www.quantum-espresso.org", 
     in publications or presentations arising from this work. More details at
     http://www.quantum-espresso.org/quote

     Serial version

     Reading xml data from directory:

     /projectsn/mp1009_1/Valeria/cWT-KEDF/Phases/Transition_Btin_hd/0.5/si_0.5_16_4_Btin_hd.save/

     Program POST-PROC v.6.5 starts on 11Aug2023 at 14:34:38 

     This program is part of the open-source Quantum ESPRESSO suite
     for quantum simulation of materials; please cite
         "P. Giannozzi et al., J. Phys.:Condens. Matter 21 395502 (2009);
         "P. Giannozzi et al., J. Phys.:Condens. Matter 29 465901 (2017);
          URL http://www.quantum-espresso.org", 
     in publications or presentations arising from this work. More details at
     http://www.quantum-espresso.org/quote

     Serial version

     Reading xml data from directory:

     /projectsn/mp1009_1/Valeria/cWT-KEDF/Phases/Transition_Btin_hd/0.5/si_0.5_16_4_Btin_hd.save/

     Program POST-PROC v.6.5 starts on 11Aug2023 at 14:34:38 

     This program is part of the open-source Quantum ESPRESSO suite
     for quantum simulation of materials; please cite
         "P. Giannozzi et al., J. Phys.:Condens. Matter 21 395502 (2009);
         "P. Giannozzi et al., J. Phys.:Condens. Matter 29 465901 (2017);
          URL http://www.quantum-espresso.org", 
     in publications or presentations arising from this work. More details at
     http://www.quantum-espresso.org/quote

     Serial version

     Reading xml data from directory:

     /projectsn/mp1009_1/Valeria/cWT-KEDF/Phases/Transition_Btin_hd/0.5/si_0.5_16_4_Btin_hd.save/

     Program POST-PROC v.6.5 starts on 11Aug2023 at 14:34:38 

     This program is part of the open-source Quantum ESPRESSO suite
     for quantum simulation of materials; please cite
         "P. Giannozzi et al., J. Phys.:Condens. Matter 21 395502 (2009);
         "P. Giannozzi et al., J. Phys.:Condens. Matter 29 465901 (2017);
          URL http://www.quantum-espresso.org", 
     in publications or presentations arising from this work. More details at
     http://www.quantum-espresso.org/quote

     Serial version

     Reading xml data from directory:

     /projectsn/mp1009_1/Valeria/cWT-KEDF/Phases/Transition_Btin_hd/0.5/si_0.5_16_4_Btin_hd.save/

     Program POST-PROC v.6.5 starts on 11Aug2023 at 14:34:38 

     This program is part of the open-source Quantum ESPRESSO suite
     for quantum simulation of materials; please cite
         "P. Giannozzi et al., J. Phys.:Condens. Matter 21 395502 (2009);
         "P. Giannozzi et al., J. Phys.:Condens. Matter 29 465901 (2017);
          URL http://www.quantum-espresso.org", 
     in publications or presentations arising from this work. More details at
     http://www.quantum-espresso.org/quote

     Serial version

     Reading xml data from directory:

     /projectsn/mp1009_1/Valeria/cWT-KEDF/Phases/Transition_Btin_hd/0.5/si_0.5_16_4_Btin_hd.save/

     Program POST-PROC v.6.5 starts on 11Aug2023 at 14:34:38 

     This program is part of the open-source Quantum ESPRESSO suite
     for quantum simulation of materials; please cite
         "P. Giannozzi et al., J. Phys.:Condens. Matter 21 395502 (2009);
         "P. Giannozzi et al., J. Phys.:Condens. Matter 29 465901 (2017);
          URL http://www.quantum-espresso.org", 
     in publications or presentations arising from this work. More details at
     http://www.quantum-espresso.org/quote

     Serial version

     Reading xml data from directory:

     /projectsn/mp1009_1/Valeria/cWT-KEDF/Phases/Transition_Btin_hd/0.5/si_0.5_16_4_Btin_hd.save/

     Program POST-PROC v.6.5 starts on 11Aug2023 at 14:34:38 

     This program is part of the open-source Quantum ESPRESSO suite
     for quantum simulation of materials; please cite
         "P. Giannozzi et al., J. Phys.:Condens. Matter 21 395502 (2009);
         "P. Giannozzi et al., J. Phys.:Condens. Matter 29 465901 (2017);
          URL http://www.quantum-espresso.org", 
     in publications or presentations arising from this work. More details at
     http://www.quantum-espresso.org/quote

     Serial version

     Reading xml data from directory:

     /projectsn/mp1009_1/Valeria/cWT-KEDF/Phases/Transition_Btin_hd/0.5/si_0.5_16_4_Btin_hd.save/

     Program POST-PROC v.6.5 starts on 11Aug2023 at 14:34:39 

     This program is part of the open-source Quantum ESPRESSO suite
     for quantum simulation of materials; please cite
         "P. Giannozzi et al., J. Phys.:Condens. Matter 21 395502 (2009);
         "P. Giannozzi et al., J. Phys.:Condens. Matter 29 465901 (2017);
          URL http://www.quantum-espresso.org", 
     in publications or presentations arising from this work. More details at
     http://www.quantum-espresso.org/quote

     Serial version

     Reading xml data from directory:

     /projectsn/mp1009_1/Valeria/cWT-KEDF/Phases/Transition_Btin_hd/0.5/si_0.5_16_4_Btin_hd.save/

     Program POST-PROC v.6.5 starts on 11Aug2023 at 14:34:39 

     This program is part of the open-source Quantum ESPRESSO suite
     for quantum simulation of materials; please cite
         "P. Giannozzi et al., J. Phys.:Condens. Matter 21 395502 (2009);
         "P. Giannozzi et al., J. Phys.:Condens. Matter 29 465901 (2017);
          URL http://www.quantum-espresso.org", 
     in publications or presentations arising from this work. More details at
     http://www.quantum-espresso.org/quote

     Serial version

     Reading xml data from directory:

     /projectsn/mp1009_1/Valeria/cWT-KEDF/Phases/Transition_Btin_hd/0.5/si_0.5_16_4_Btin_hd.save/

     Program POST-PROC v.6.5 starts on 11Aug2023 at 14:34:39 

     This program is part of the open-source Quantum ESPRESSO suite
     for quantum simulation of materials; please cite
         "P. Giannozzi et al., J. Phys.:Condens. Matter 21 395502 (2009);
         "P. Giannozzi et al., J. Phys.:Condens. Matter 29 465901 (2017);
          URL http://www.quantum-espresso.org", 
     in publications or presentations arising from this work. More details at
     http://www.quantum-espresso.org/quote

     Serial version

     Reading xml data from directory:

     /projectsn/mp1009_1/Valeria/cWT-KEDF/Phases/Transition_Btin_hd/0.5/si_0.5_16_4_Btin_hd.save/

     Program POST-PROC v.6.5 starts on 11Aug2023 at 14:34:39 

     This program is part of the open-source Quantum ESPRESSO suite
     for quantum simulation of materials; please cite
         "P. Giannozzi et al., J. Phys.:Condens. Matter 21 395502 (2009);
         "P. Giannozzi et al., J. Phys.:Condens. Matter 29 465901 (2017);
          URL http://www.quantum-espresso.org", 
     in publications or presentations arising from this work. More details at
     http://www.quantum-espresso.org/quote

     Serial version

     Reading xml data from directory:

     /projectsn/mp1009_1/Valeria/cWT-KEDF/Phases/Transition_Btin_hd/0.5/si_0.5_16_4_Btin_hd.save/

     Program POST-PROC v.6.5 starts on 11Aug2023 at 14:34:39 

     This program is part of the open-source Quantum ESPRESSO suite
     for quantum simulation of materials; please cite
         "P. Giannozzi et al., J. Phys.:Condens. Matter 21 395502 (2009);
         "P. Giannozzi et al., J. Phys.:Condens. Matter 29 465901 (2017);
          URL http://www.quantum-espresso.org", 
     in publications or presentations arising from this work. More details at
     http://www.quantum-espresso.org/quote

     Serial version

     Reading xml data from directory:

     /projectsn/mp1009_1/Valeria/cWT-KEDF/Phases/Transition_Btin_hd/0.5/si_0.5_16_4_Btin_hd.save/

     Program POST-PROC v.6.5 starts on 11Aug2023 at 14:34:39 

     This program is part of the open-source Quantum ESPRESSO suite
     for quantum simulation of materials; please cite
         "P. Giannozzi et al., J. Phys.:Condens. Matter 21 395502 (2009);
         "P. Giannozzi et al., J. Phys.:Condens. Matter 29 465901 (2017);
          URL http://www.quantum-espresso.org", 
     in publications or presentations arising from this work. More details at
     http://www.quantum-espresso.org/quote

     Serial version

     Reading xml data from directory:

     /projectsn/mp1009_1/Valeria/cWT-KEDF/Phases/Transition_Btin_hd/0.5/si_0.5_16_4_Btin_hd.save/

     Program POST-PROC v.6.5 starts on 11Aug2023 at 14:34:39 

     This program is part of the open-source Quantum ESPRESSO suite
     for quantum simulation of materials; please cite
         "P. Giannozzi et al., J. Phys.:Condens. Matter 21 395502 (2009);
         "P. Giannozzi et al., J. Phys.:Condens. Matter 29 465901 (2017);
          URL http://www.quantum-espresso.org", 

     Program POST-PROC v.6.5 starts on 11Aug2023 at 14:34:39 

     This program is part of the open-source Quantum ESPRESSO suite
     for quantum simulation of materials; please cite
         "P. Giannozzi et al., J. Phys.:Condens. Matter 21 395502 (2009);
         "P. Giannozzi et al., J. Phys.:Condens. Matter 29 465901 (2017);
          URL http://www.quantum-espresso.org", 
     in publications or presentations arising from this work. More details at
     http://www.quantum-espresso.org/quote

     Serial version
     in publications or presentations arising from this work. More details at
     http://www.quantum-espresso.org/quote


     Reading xml data from directory:

     /projectsn/mp1009_1/Valeria/cWT-KEDF/Phases/Transition_Btin_hd/0.5/si_0.5_16_4_Btin_hd.save/
     Serial version

     Reading xml data from directory:

     Program POST-PROC v.6.5 starts on 11Aug2023 at 14:34:39 

     This program is part of the open-source Quantum ESPRESSO suite
     for quantum simulation of materials; please cite
         "P. Giannozzi et al., J. Phys.:Condens. Matter 21 395502 (2009);
         "P. Giannozzi et al., J. Phys.:Condens. Matter 29 465901 (2017);
          URL http://www.quantum-espresso.org", 
     in publications or presentations arising from this work. More details at
     http://www.quantum-espresso.org/quote

     Serial version

     /projectsn/mp1009_1/Valeria/cWT-KEDF/Phases/Transition_Btin_hd/0.5/si_0.5_16_4_Btin_hd.save/

     Reading xml data from directory:

     /projectsn/mp1009_1/Valeria/cWT-KEDF/Phases/Transition_Btin_hd/0.5/si_0.5_16_4_Btin_hd.save/

     IMPORTANT: XC functional enforced from input :
     Exchange-correlation= PZ
                           (   1   1   0   0   0   0   0)
     Any further DFT definition will be discarded
     Please, verify this is what you really want


     G-vector sticks info
     --------------------
     sticks:   dense  smooth     PW     G-vecs:    dense   smooth      PW
     Sum        1515    1515    439                47709    47709    7491


     IMPORTANT: XC functional enforced from input :
     Exchange-correlation= PZ
                           (   1   1   0   0   0   0   0)
     Any further DFT definition will be discarded
     Please, verify this is what you really want


     G-vector sticks info
     --------------------
     sticks:   dense  smooth     PW     G-vecs:    dense   smooth      PW
     Sum        1515    1515    439                47709    47709    7491


     IMPORTANT: XC functional enforced from input :
     Exchange-correlation= PZ
                           (   1   1   0   0   0   0   0)
     Any further DFT definition will be discarded
     Please, verify this is what you really want


     IMPORTANT: XC functional enforced from input :
     Exchange-correlation= PZ
                           (   1   1   0   0   0   0   0)
     Any further DFT definition will be discarded
     Please, verify this is what you really want


     G-vector sticks info
     --------------------
     sticks:   dense  smooth     PW     G-vecs:    dense   smooth      PW
     Sum        1515    1515    439                47709    47709    7491


     G-vector sticks info
     --------------------
     sticks:   dense  smooth     PW     G-vecs:    dense   smooth      PW
     Sum        1515    1515    439                47709    47709    7491


     IMPORTANT: XC functional enforced from input :
     Exchange-correlation= PZ
                           (   1   1   0   0   0   0   0)
     Any further DFT definition will be discarded
     Please, verify this is what you really want


     G-vector sticks info
     --------------------
     sticks:   dense  smooth     PW     G-vecs:    dense   smooth      PW
     Sum        1515    1515    439                47709    47709    7491


     IMPORTANT: XC functional enforced from input :
     Exchange-correlation= PZ
                           (   1   1   0   0   0   0   0)
     Any further DFT definition will be discarded
     Please, verify this is what you really want


     G-vector sticks info
     --------------------
     sticks:   dense  smooth     PW     G-vecs:    dense   smooth      PW
     Sum        1515    1515    439                47709    47709    7491


     IMPORTANT: XC functional enforced from input :
     Exchange-correlation= PZ
                           (   1   1   0   0   0   0   0)
     Any further DFT definition will be discarded
     Please, verify this is what you really want


     G-vector sticks info
     --------------------
     sticks:   dense  smooth     PW     G-vecs:    dense   smooth      PW
     Sum        1515    1515    439                47709    47709    7491


     IMPORTANT: XC functional enforced from input :
     Exchange-correlation= PZ
                           (   1   1   0   0   0   0   0)
     Any further DFT definition will be discarded
     Please, verify this is what you really want


     G-vector sticks info
     --------------------
     sticks:   dense  smooth     PW     G-vecs:    dense   smooth      PW
     Sum        1515    1515    439                47709    47709    7491


     IMPORTANT: XC functional enforced from input :
     Exchange-correlation= PZ
                           (   1   1   0   0   0   0   0)
     Any further DFT definition will be discarded
     Please, verify this is what you really want


     G-vector sticks info
     --------------------
     sticks:   dense  smooth     PW     G-vecs:    dense   smooth      PW
     Sum        1515    1515    439                47709    47709    7491


     IMPORTANT: XC functional enforced from input :
     Exchange-correlation= PZ
                           (   1   1   0   0   0   0   0)
     Any further DFT definition will be discarded
     Please, verify this is what you really want


     G-vector sticks info
     --------------------
     sticks:   dense  smooth     PW     G-vecs:    dense   smooth      PW
     Sum        1515    1515    439                47709    47709    7491


     IMPORTANT: XC functional enforced from input :
     Exchange-correlation= PZ
                           (   1   1   0   0   0   0   0)
     Any further DFT definition will be discarded
     Please, verify this is what you really want


     G-vector sticks info
     --------------------
     sticks:   dense  smooth     PW     G-vecs:    dense   smooth      PW
     Sum        1515    1515    439                47709    47709    7491


     IMPORTANT: XC functional enforced from input :
     Exchange-correlation= PZ
                           (   1   1   0   0   0   0   0)
     Any further DFT definition will be discarded
     Please, verify this is what you really want


     G-vector sticks info
     --------------------
     sticks:   dense  smooth     PW     G-vecs:    dense   smooth      PW
     Sum        1515    1515    439                47709    47709    7491


     IMPORTANT: XC functional enforced from input :
     Exchange-correlation= PZ
                           (   1   1   0   0   0   0   0)
     Any further DFT definition will be discarded
     Please, verify this is what you really want


     IMPORTANT: XC functional enforced from input :
     Exchange-correlation= PZ
                           (   1   1   0   0   0   0   0)
     Any further DFT definition will be discarded
     Please, verify this is what you really want


     G-vector sticks info
     --------------------
     sticks:   dense  smooth     PW     G-vecs:    dense   smooth      PW
     Sum        1515    1515    439                47709    47709    7491


     G-vector sticks info
     --------------------
     sticks:   dense  smooth     PW     G-vecs:    dense   smooth      PW
     Sum        1515    1515    439                47709    47709    7491


     IMPORTANT: XC functional enforced from input :
     Exchange-correlation= PZ
                           (   1   1   0   0   0   0   0)
     Any further DFT definition will be discarded
     Please, verify this is what you really want


     G-vector sticks info
     --------------------
     sticks:   dense  smooth     PW     G-vecs:    dense   smooth      PW
     Sum        1515    1515    439                47709    47709    7491


     IMPORTANT: XC functional enforced from input :
     Exchange-correlation= PZ
                           (   1   1   0   0   0   0   0)
     Any further DFT definition will be discarded
     Please, verify this is what you really want


     IMPORTANT: XC functional enforced from input :
     Exchange-correlation= PZ
                           (   1   1   0   0   0   0   0)
     Any further DFT definition will be discarded
     Please, verify this is what you really want


     G-vector sticks info
     --------------------
     sticks:   dense  smooth     PW     G-vecs:    dense   smooth      PW
     Sum        1515    1515    439                47709    47709    7491


     G-vector sticks info
     --------------------
     sticks:   dense  smooth     PW     G-vecs:    dense   smooth      PW
     Sum        1515    1515    439                47709    47709    7491


     Calling punch_plot, plot_num =   0
     Writing data to file  tmp.pp

     IMPORTANT: XC functional enforced from input :
     Exchange-correlation= PZ
                           (   1   1   0   0   0   0   0)
     Any further DFT definition will be discarded
     Please, verify this is what you really want


     G-vector sticks info
     --------------------
     sticks:   dense  smooth     PW     G-vecs:    dense   smooth      PW
     Sum        1515    1515    439                47709    47709    7491


     Calling punch_plot, plot_num =   0
     Writing data to file  tmp.pp

     IMPORTANT: XC functional enforced from input :
     Exchange-correlation= PZ
                           (   1   1   0   0   0   0   0)
     Any further DFT definition will be discarded
     Please, verify this is what you really want


     G-vector sticks info
     --------------------
     sticks:   dense  smooth     PW     G-vecs:    dense   smooth      PW
     Sum        1515    1515    439                47709    47709    7491

     Reading data from file  tmp.pp

     IMPORTANT: XC functional enforced from input :
     Exchange-correlation= PZ
                           (   1   1   0   0   0   0   0)
     Any further DFT definition will be discarded
     Please, verify this is what you really want


     G-vector sticks info
     --------------------
     sticks:   dense  smooth     PW     G-vecs:    dense   smooth      PW
     Sum        1515    1515    439                47709    47709    7491

     Reading data from file  tmp.pp

     Writing data to be plotted to file si_0.5_16_4_Btin_hd.xsf

     Calling punch_plot, plot_num =   0
     Writing data to file  tmp.pp

     Calling punch_plot, plot_num =   0
     Writing data to file  tmp.pp

     Calling punch_plot, plot_num =   0
     Writing data to file  tmp.pp

     Calling punch_plot, plot_num =   0
     Writing data to file  tmp.pp
     Plot Type: 3D                     Output format: XCrySDen     

     POST-PROC    :      3.68s CPU      3.91s WALL


   This run was terminated on:  14:34:42  11Aug2023            

=------------------------------------------------------------------------------=
   JOB DONE.
=------------------------------------------------------------------------------=
     Reading data from file  tmp.pp

     Calling punch_plot, plot_num =   0
     Writing data to file  tmp.pp

     Calling punch_plot, plot_num =   0
     Writing data to file  tmp.pp
     Reading data from file  tmp.pp
     Reading data from file  tmp.pp
     Reading data from file  tmp.pp

     Calling punch_plot, plot_num =   0
     Writing data to file  tmp.pp

     Calling punch_plot, plot_num =   0
     Writing data to file  tmp.pp

     Calling punch_plot, plot_num =   0
     Writing data to file  tmp.pp
     Reading data from file  tmp.pp

     Calling punch_plot, plot_num =   0
     Writing data to file  tmp.pp
     Reading data from file  tmp.pp

     Calling punch_plot, plot_num =   0
     Writing data to file  tmp.pp
     Reading data from file  tmp.pp
     Reading data from file  tmp.pp
     Reading data from file  tmp.pp

     Calling punch_plot, plot_num =   0
     Writing data to file  tmp.pp

     Calling punch_plot, plot_num =   0
     Writing data to file  tmp.pp

     Calling punch_plot, plot_num =   0
     Writing data to file  tmp.pp

     Calling punch_plot, plot_num =   0
     Writing data to file  tmp.pp

     Calling punch_plot, plot_num =   0
     Writing data to file  tmp.pp
     Reading data from file  tmp.pp

     Calling punch_plot, plot_num =   0
     Writing data to file  tmp.pp

     Calling punch_plot, plot_num =   0
     Writing data to file  tmp.pp
     Reading data from file  tmp.pp
     Reading data from file  tmp.pp
     Reading data from file  tmp.pp
     Reading data from file  tmp.pp
     Reading data from file  tmp.pp
     Reading data from file  tmp.pp
     Reading data from file  tmp.pp
     Reading data from file  tmp.pp

     Writing data to be plotted to file si_0.5_16_4_Btin_hd.xsf

     Writing data to be plotted to file si_0.5_16_4_Btin_hd.xsf

     Writing data to be plotted to file si_0.5_16_4_Btin_hd.xsf

     Writing data to be plotted to file si_0.5_16_4_Btin_hd.xsf

     Writing data to be plotted to file si_0.5_16_4_Btin_hd.xsf

     Writing data to be plotted to file si_0.5_16_4_Btin_hd.xsf

     Writing data to be plotted to file si_0.5_16_4_Btin_hd.xsf

     Writing data to be plotted to file si_0.5_16_4_Btin_hd.xsf
     Plot Type: 3D                     Output format: XCrySDen     

     POST-PROC    :      3.74s CPU      3.98s WALL


   This run was terminated on:  14:34:43  11Aug2023            

=------------------------------------------------------------------------------=
   JOB DONE.
=------------------------------------------------------------------------------=
     Plot Type: 3D                     Output format: XCrySDen     

     POST-PROC    :      3.80s CPU      3.98s WALL


   This run was terminated on:  14:34:43  11Aug2023            

=------------------------------------------------------------------------------=
   JOB DONE.
=------------------------------------------------------------------------------=
     Plot Type: 3D                     Output format: XCrySDen     

     POST-PROC    :      3.88s CPU      4.04s WALL


   This run was terminated on:  14:34:43  11Aug2023            

=------------------------------------------------------------------------------=
   JOB DONE.
=------------------------------------------------------------------------------=
     Plot Type: 3D                     Output format: XCrySDen     

     POST-PROC    :      3.78s CPU      4.02s WALL


   This run was terminated on:  14:34:43  11Aug2023            

=------------------------------------------------------------------------------=
   JOB DONE.
=------------------------------------------------------------------------------=
     Plot Type: 3D                     Output format: XCrySDen     

     POST-PROC    :      3.85s CPU      4.03s WALL


   This run was terminated on:  14:34:43  11Aug2023            

=------------------------------------------------------------------------------=
   JOB DONE.
=------------------------------------------------------------------------------=
     Plot Type: 3D                     Output format: XCrySDen     

     POST-PROC    :      3.83s CPU      4.04s WALL


   This run was terminated on:  14:34:43  11Aug2023            

=------------------------------------------------------------------------------=
   JOB DONE.
=------------------------------------------------------------------------------=
     Plot Type: 3D                     Output format: XCrySDen     

     POST-PROC    :      4.09s CPU      4.25s WALL


   This run was terminated on:  14:34:43  11Aug2023            

=------------------------------------------------------------------------------=
   JOB DONE.
=------------------------------------------------------------------------------=
     Plot Type: 3D                     Output format: XCrySDen     

     POST-PROC    :      3.88s CPU      4.05s WALL


   This run was terminated on:  14:34:43  11Aug2023            

=------------------------------------------------------------------------------=
   JOB DONE.
=------------------------------------------------------------------------------=
