 CRYSTAL
 PRIMVEC
    5.675201530    0.000010489   -0.000000000
   -1.253608922    5.339300905   -0.000000000
   -0.000000000   -0.000000000    5.867630402
 PRIMCOORD
           4           1
Si       -0.120948528    1.300818710    1.982255907
Si        2.841904177    2.257435053    0.815611593
Si        0.120961011    3.178284687    4.637508661
Si        2.833303038    0.774118822    3.427212229
BEGIN_BLOCK_DATAGRID_3D
3D_PWSCF
BEGIN_DATAGRID_3D_UNKNOWN
          55          55          61
  0.000000  0.000000  0.000000
    5.675202    0.000010   -0.000000
   -1.253609    5.339301   -0.000000
   -0.000000   -0.000000    5.867630
  0.129856E-02  0.131300E-02  0.132476E-02  0.133478E-02  0.134411E-02  0.135362E-02
  0.136410E-02  0.137631E-02  0.139100E-02  0.140882E-02  0.143020E-02  0.145518E-02
  0.148352E-02  0.151474E-02  0.154841E-02  0.158419E-02  0.162174E-02  0.166049E-02
  0.169951E-02  0.173752E-02  0.177304E-02  0.180448E-02  0.183033E-02  0.184910E-02
  0.185937E-02  0.185972E-02  0.184901E-02  0.182662E-02  0.179274E-02  0.174832E-02
  0.169491E-02  0.163440E-02  0.156886E-02  0.150056E-02  0.143187E-02  0.136518E-02
  0.130272E-02  0.124637E-02  0.119755E-02  0.115710E-02  0.112542E-02  0.110262E-02
  0.108873E-02  0.108359E-02  0.108673E-02  0.109727E-02  0.111391E-02  0.113513E-02
  0.115935E-02  0.118510E-02  0.121116E-02  0.123644E-02  0.125997E-02  0.128087E-02
  0.129856E-02  0.140189E-02  0.140954E-02  0.141272E-02  0.141251E-02  0.141022E-02
  0.140724E-02  0.140493E-02  0.140470E-02  0.140790E-02  0.141573E-02  0.142912E-02
  0.144864E-02  0.147449E-02  0.150660E-02  0.154470E-02  0.158844E-02  0.163735E-02
  0.169063E-02  0.174706E-02  0.180490E-02  0.186198E-02  0.191592E-02  0.196426E-02
  0.200459E-02  0.203463E-02  0.205230E-02  0.205588E-02  0.204429E-02  0.201731E-02
  0.197568E-02  0.192106E-02  0.185573E-02  0.178247E-02  0.170431E-02  0.162433E-02
  0.154555E-02  0.147076E-02  0.140237E-02  0.134227E-02  0.129175E-02  0.125152E-02
  0.122189E-02  0.120287E-02  0.119424E-02  0.119536E-02  0.120516E-02  0.122213E-02
  0.124449E-02  0.127026E-02  0.129752E-02  0.132450E-02  0.134962E-02  0.137154E-02
  0.138920E-02  0.140189E-02  0.153714E-02  0.153932E-02  0.153525E-02  0.152609E-02
  0.151340E-02  0.149903E-02  0.148497E-02  0.147321E-02  0.146568E-02  0.146410E-02
  0.146989E-02  0.148415E-02  0.150758E-02  0.154056E-02  0.158308E-02  0.163488E-02
  0.169538E-02  0.176364E-02  0.183819E-02  0.191699E-02  0.199734E-02  0.207607E-02
  0.214973E-02  0.221474E-02  0.226770E-02  0.230554E-02  0.232579E-02  0.232675E-02
  0.230771E-02  0.226906E-02  0.221241E-02  0.214048E-02  0.205682E-02  0.196543E-02
  0.187040E-02  0.177558E-02  0.168447E-02  0.160014E-02  0.152508E-02  0.146112E-02
  0.140937E-02  0.137037E-02  0.134421E-02  0.133055E-02  0.132860E-02  0.133704E-02
  0.135408E-02  0.137763E-02  0.140540E-02  0.143500E-02  0.146411E-02  0.149052E-02
  0.151232E-02  0.152812E-02  0.153714E-02  0.170339E-02  0.170130E-02  0.169108E-02
  0.167396E-02  0.165178E-02  0.162681E-02  0.160164E-02  0.157890E-02  0.156108E-02
  0.155042E-02  0.154893E-02  0.155823E-02  0.157959E-02  0.161382E-02  0.166126E-02
  0.172183E-02  0.179498E-02  0.187967E-02  0.197429E-02  0.207652E-02  0.218320E-02
  0.229046E-02  0.239375E-02  0.248819E-02  0.256887E-02  0.263135E-02  0.267204E-02
  0.268840E-02  0.267907E-02  0.264400E-02  0.258467E-02  0.250415E-02  0.240686E-02
  0.229798E-02  0.218286E-02  0.206652E-02  0.195351E-02  0.184782E-02  0.175275E-02
  0.167081E-02  0.160357E-02  0.155181E-02  0.151567E-02  0.149471E-02  0.148798E-02
  0.149390E-02  0.151040E-02  0.153497E-02  0.156489E-02  0.159732E-02  0.162937E-02
  0.165822E-02  0.168130E-02  0.169669E-02  0.170339E-02  0.189953E-02  0.189452E-02
  0.187924E-02  0.185507E-02  0.182412E-02  0.178914E-02  0.175329E-02  0.171982E-02
  0.169183E-02  0.167223E-02  0.166366E-02  0.166838E-02  0.168818E-02  0.172433E-02
  0.177761E-02  0.184829E-02  0.193602E-02  0.203980E-02  0.215786E-02  0.228756E-02
  0.242533E-02  0.256655E-02  0.270562E-02  0.283611E-02  0.295132E-02  0.304491E-02
  0.311164E-02  0.314771E-02  0.315086E-02  0.312050E-02  0.305792E-02  0.296656E-02
  0.285175E-02  0.272004E-02  0.257837E-02  0.243335E-02  0.229102E-02  0.215667E-02
  0.203474E-02  0.192858E-02  0.184035E-02  0.177111E-02  0.172101E-02  0.168951E-02
  0.167541E-02  0.167694E-02  0.169168E-02  0.171670E-02  0.174869E-02  0.178418E-02
  0.181967E-02  0.185174E-02  0.187724E-02  0.189365E-02  0.189953E-02  0.212409E-02
  0.211763E-02  0.209853E-02  0.206825E-02  0.202927E-02  0.198486E-02  0.193872E-02
  0.189468E-02  0.185655E-02  0.182803E-02  0.181255E-02  0.181307E-02  0.183194E-02
  0.187092E-02  0.193135E-02  0.201406E-02  0.211917E-02  0.224586E-02  0.239220E-02
  0.255522E-02  0.273082E-02  0.291365E-02  0.309697E-02  0.327270E-02  0.343191E-02
  0.356581E-02  0.366677E-02  0.372905E-02  0.374904E-02  0.372534E-02  0.365902E-02
  0.355391E-02  0.341643E-02  0.325483E-02  0.307809E-02  0.289502E-02  0.271369E-02
  0.254118E-02  0.238334E-02  0.224459E-02  0.212783E-02  0.203450E-02  0.196487E-02
  0.191825E-02  0.189318E-02  0.188755E-02  0.189860E-02  0.192290E-02  0.195647E-02
  0.199502E-02  0.203425E-02  0.207009E-02  0.209886E-02  0.211754E-02  0.212409E-02
  0.237530E-02  0.236886E-02  0.234726E-02  0.231192E-02  0.226575E-02  0.221257E-02
  0.215664E-02  0.210236E-02  0.205425E-02  0.201692E-02  0.199476E-02  0.199152E-02
  0.201023E-02  0.205324E-02  0.212258E-02  0.221986E-02  0.234591E-02  0.250030E-02
  0.268113E-02  0.288514E-02  0.310769E-02  0.334266E-02  0.358201E-02  0.381569E-02
  0.403210E-02  0.421925E-02  0.436627E-02  0.446453E-02  0.450826E-02  0.449471E-02
  0.442448E-02  0.430186E-02  0.413467E-02  0.393344E-02  0.370998E-02  0.347613E-02
  0.324281E-02  0.301948E-02  0.281380E-02  0.263147E-02  0.247619E-02  0.234993E-02
  0.225318E-02  0.218517E-02  0.214414E-02  0.212751E-02  0.213200E-02  0.215361E-02
  0.218764E-02  0.222887E-02  0.227197E-02  0.231203E-02  0.234478E-02  0.236675E-02
  0.237530E-02  0.265124E-02  0.264621E-02  0.262349E-02  0.258430E-02  0.253187E-02
  0.247069E-02  0.240561E-02  0.234161E-02  0.228394E-02  0.223813E-02  0.220962E-02
  0.220317E-02  0.222264E-02  0.227121E-02  0.235175E-02  0.246680E-02  0.261808E-02
  0.280586E-02  0.302864E-02  0.328319E-02  0.356455E-02  0.386574E-02  0.417714E-02
  0.448618E-02  0.477785E-02  0.503606E-02  0.524566E-02  0.539401E-02  0.547202E-02
  0.547465E-02  0.540145E-02  0.525708E-02  0.505122E-02  0.479749E-02  0.451165E-02
  0.420973E-02  0.390662E-02  0.361511E-02  0.334537E-02  0.310476E-02  0.289794E-02
  0.272736E-02  0.259364E-02  0.249595E-02  0.243220E-02  0.239928E-02  0.239319E-02
  0.240916E-02  0.244166E-02  0.248450E-02  0.253123E-02  0.257585E-02  0.261328E-02
  0.263949E-02  0.265124E-02  0.294987E-02  0.294764E-02  0.292533E-02  0.288370E-02
  0.282618E-02  0.275787E-02  0.268437E-02  0.261132E-02  0.254468E-02  0.249090E-02
  0.245650E-02  0.244740E-02  0.246863E-02  0.252450E-02  0.261894E-02  0.275555E-02
  0.293711E-02  0.316494E-02  0.343853E-02  0.375526E-02  0.411024E-02  0.449565E-02
  0.489988E-02  0.530711E-02  0.569785E-02  0.605076E-02  0.634511E-02  0.656291E-02
  0.669036E-02  0.671879E-02  0.664572E-02  0.647583E-02  0.622107E-02  0.589917E-02
  0.553121E-02  0.513887E-02  0.474240E-02  0.435923E-02  0.400322E-02  0.368428E-02
  0.340854E-02  0.317888E-02  0.299576E-02  0.285787E-02  0.276261E-02  0.270629E-02
  0.268410E-02  0.269030E-02  0.271829E-02  0.276081E-02  0.281028E-02  0.285949E-02
  0.290226E-02  0.293370E-02  0.294987E-02  0.326900E-02  0.327111E-02  0.325094E-02
  0.320866E-02  0.314759E-02  0.307331E-02  0.299223E-02  0.291086E-02  0.283595E-02
  0.277480E-02  0.273499E-02  0.272379E-02  0.274770E-02  0.281257E-02  0.292370E-02
  0.308594E-02  0.330340E-02  0.357899E-02  0.391385E-02  0.430670E-02  0.475314E-02
  0.524455E-02  0.576703E-02  0.630075E-02  0.682063E-02  0.729858E-02  0.770657E-02
  0.801947E-02  0.821706E-02  0.828544E-02  0.821878E-02  0.802112E-02  0.770685E-02
  0.729895E-02  0.682542E-02  0.631536E-02  0.579606E-02  0.529118E-02  0.481974E-02
  0.439565E-02  0.402754E-02  0.371921E-02  0.347065E-02  0.327943E-02  0.314175E-02
  0.305297E-02  0.300745E-02  0.299834E-02  0.301777E-02  0.305716E-02  0.310770E-02
  0.316094E-02  0.320943E-02  0.324710E-02  0.326900E-02  0.360655E-02  0.361472E-02
  0.359870E-02  0.355793E-02  0.349534E-02  0.341668E-02  0.332914E-02  0.324025E-02
  0.315775E-02  0.308984E-02  0.304514E-02  0.303234E-02  0.305975E-02  0.313508E-02
  0.326538E-02  0.345715E-02  0.371634E-02  0.404814E-02  0.445615E-02  0.494110E-02
  0.549948E-02  0.612196E-02  0.679217E-02  0.748587E-02  0.817145E-02  0.881237E-02
  0.937096E-02  0.981241E-02  0.101077E-01  0.102358E-01  0.101860E-01  0.996073E-02
  0.957678E-02  0.906331E-02  0.845709E-02  0.779694E-02  0.711942E-02  0.645629E-02
  0.583344E-02  0.527025E-02  0.477930E-02  0.436636E-02  0.403131E-02  0.377001E-02
  0.357651E-02  0.344436E-02  0.336659E-02  0.333519E-02  0.334086E-02  0.337345E-02
  0.342267E-02  0.347873E-02  0.353285E-02  0.357755E-02  0.360655E-02  0.396126E-02
  0.397739E-02  0.396774E-02  0.393095E-02  0.386929E-02  0.378833E-02  0.369577E-02
  0.360028E-02  0.351081E-02  0.343662E-02  0.338745E-02  0.337349E-02  0.340502E-02
  0.349192E-02  0.364336E-02  0.386801E-02  0.417441E-02  0.457090E-02  0.506445E-02
  0.565853E-02  0.635091E-02  0.713184E-02  0.798261E-02  0.887453E-02  0.976886E-02
  0.106188E-01  0.113743E-01  0.119871E-01  0.124162E-01  0.126309E-01  0.126138E-01
  0.123649E-01  0.119027E-01  0.112631E-01  0.104935E-01  0.964519E-02  0.876729E-02
  0.790253E-02  0.708562E-02  0.634282E-02  0.569185E-02  0.514164E-02  0.469292E-02
  0.434005E-02  0.407411E-02  0.388558E-02  0.376516E-02  0.370319E-02  0.368882E-02
  0.371016E-02  0.375512E-02  0.381231E-02  0.387153E-02  0.392380E-02  0.396126E-02
  0.433358E-02  0.435971E-02  0.435888E-02  0.432872E-02  0.427067E-02  0.418978E-02
  0.409396E-02  0.399287E-02  0.389690E-02  0.381662E-02  0.376304E-02  0.374799E-02
  0.378384E-02  0.388283E-02  0.405661E-02  0.431661E-02  0.467478E-02  0.514356E-02
  0.573419E-02  0.645373E-02  0.730202E-02  0.826954E-02  0.933584E-02  0.104681E-01
  0.116198E-01  0.127325E-01  0.137400E-01  0.145767E-01  0.151852E-01  0.155217E-01
  0.155607E-01  0.152979E-01  0.147530E-01  0.139683E-01  0.130027E-01  0.119232E-01
  0.107956E-01  0.967794E-02  0.861708E-02  0.764786E-02  0.679387E-02  0.606794E-02
  0.547252E-02  0.500125E-02  0.464222E-02  0.438174E-02  0.420674E-02  0.410486E-02
  0.406330E-02  0.406830E-02  0.410574E-02  0.416227E-02  0.422598E-02  0.428628E-02
  0.433358E-02  0.472604E-02  0.476450E-02  0.477520E-02  0.475448E-02  0.470283E-02
  0.462452E-02  0.452733E-02  0.442169E-02  0.431946E-02  0.423278E-02  0.417422E-02
  0.415736E-02  0.419678E-02  0.430726E-02  0.450330E-02  0.479969E-02  0.521257E-02
  0.575931E-02  0.645623E-02  0.731494E-02  0.833865E-02  0.951944E-02  0.108362E-01
  0.122524E-01  0.137132E-01  0.151465E-01  0.164670E-01  0.175873E-01  0.184287E-01
  0.189311E-01  0.190578E-01  0.187994E-01  0.181753E-01  0.172328E-01  0.160422E-01
  0.146879E-01  0.132568E-01  0.118281E-01  0.104657E-01  0.921655E-02  0.811126E-02
  0.716663E-02  0.638704E-02  0.576598E-02  0.528899E-02  0.493793E-02  0.469469E-02
  0.454270E-02  0.446628E-02  0.444951E-02  0.447607E-02  0.453031E-02  0.459820E-02
  0.466724E-02  0.472604E-02  0.514286E-02  0.519651E-02  0.522190E-02  0.521381E-02
  0.517152E-02  0.509841E-02  0.500181E-02  0.489262E-02  0.478406E-02  0.469008E-02
  0.462505E-02  0.460451E-02  0.464531E-02  0.476495E-02  0.498116E-02  0.531271E-02
  0.578063E-02  0.640783E-02  0.721643E-02  0.822361E-02  0.943755E-02  0.108540E-01
  0.124527E-01  0.141939E-01  0.160137E-01  0.178240E-01  0.195179E-01  0.209820E-01
  0.221128E-01  0.228300E-01  0.230839E-01  0.228584E-01  0.221708E-01  0.210708E-01
  0.196378E-01  0.179734E-01  0.161886E-01  0.143891E-01  0.126628E-01  0.110741E-01
  0.966409E-02  0.845417E-02  0.745013E-02  0.664501E-02  0.602210E-02  0.555901E-02
  0.523200E-02  0.501893E-02  0.489986E-02  0.485590E-02  0.486834E-02  0.491899E-02
  0.499127E-02  0.507039E-02  0.514286E-02  0.558931E-02  0.566189E-02  0.570604E-02
  0.571452E-02  0.568510E-02  0.562008E-02  0.552611E-02  0.541425E-02  0.529887E-02
  0.519586E-02  0.512174E-02  0.509418E-02  0.513242E-02  0.525678E-02  0.548853E-02
  0.585093E-02  0.637046E-02  0.707613E-02  0.799641E-02  0.915507E-02  0.105670E-01
  0.122338E-01  0.141382E-01  0.162373E-01  0.184576E-01  0.206928E-01  0.228112E-01
  0.246708E-01  0.261405E-01  0.271186E-01  0.275418E-01  0.273865E-01  0.266658E-01
  0.254281E-01  0.237568E-01  0.217672E-01  0.195941E-01  0.173735E-01  0.152239E-01
  0.132347E-01  0.114633E-01  0.993878E-02  0.866862E-02  0.764432E-02  0.684636E-02
  0.624823E-02  0.582061E-02  0.553498E-02  0.536564E-02  0.528953E-02  0.528499E-02
  0.533117E-02  0.540869E-02  0.550006E-02  0.558931E-02  0.607135E-02  0.616807E-02
  0.623647E-02  0.626678E-02  0.625480E-02  0.620142E-02  0.611237E-02  0.599851E-02
  0.587521E-02  0.576036E-02  0.567297E-02  0.563323E-02  0.566289E-02  0.578518E-02
  0.602502E-02  0.641040E-02  0.697358E-02  0.775002E-02  0.877507E-02  0.100801E-01
  0.116882E-01  0.136090E-01  0.158299E-01  0.183061E-01  0.209532E-01  0.236449E-01
  0.262213E-01  0.285092E-01  0.303490E-01  0.316189E-01  0.322456E-01  0.322007E-01
  0.314920E-01  0.301607E-01  0.282858E-01  0.259879E-01  0.234210E-01  0.207520E-01
  0.181350E-01  0.156920E-01  0.135050E-01  0.116169E-01  0.100393E-01  0.876181E-02
  0.776084E-02  0.700520E-02  0.646012E-02  0.609050E-02  0.586383E-02  0.575148E-02
  0.572793E-02  0.576949E-02  0.585396E-02  0.596087E-02  0.607135E-02  0.659586E-02
  0.672391E-02  0.682406E-02  0.688335E-02  0.689496E-02  0.685786E-02  0.677651E-02
  0.666127E-02  0.652820E-02  0.639731E-02  0.629052E-02  0.623102E-02  0.624348E-02
  0.635410E-02  0.659144E-02  0.698814E-02  0.758213E-02  0.841535E-02  0.953032E-02
  0.109666E-01  0.127571E-01  0.149208E-01  0.174517E-01  0.203046E-01  0.233839E-01
  0.265413E-01  0.295857E-01  0.323088E-01  0.345217E-01  0.360874E-01  0.369312E-01
  0.370286E-01  0.363851E-01  0.350288E-01  0.330212E-01  0.304735E-01  0.275482E-01
  0.244389E-01  0.213381E-01  0.184075E-01  0.157626E-01  0.134683E-01  0.115460E-01
  0.998495E-02  0.875659E-02  0.782385E-02  0.714624E-02  0.668228E-02  0.639228E-02
  0.624092E-02  0.619779E-02  0.623597E-02  0.633048E-02  0.645783E-02  0.659586E-02
  0.717038E-02  0.733942E-02  0.748124E-02  0.757891E-02  0.762219E-02  0.760747E-02
  0.753746E-02  0.742162E-02  0.727644E-02  0.712398E-02  0.698951E-02  0.689990E-02
  0.688326E-02  0.696915E-02  0.718971E-02  0.758190E-02  0.818885E-02  0.905852E-02
  0.102404E-01  0.117823E-01  0.137274E-01  0.161057E-01  0.189192E-01  0.221241E-01
  0.256153E-01  0.292221E-01  0.327186E-01  0.358570E-01  0.384174E-01  0.402523E-01
  0.412984E-01  0.415501E-01  0.410202E-01  0.397216E-01  0.376839E-01  0.349879E-01
  0.317858E-01  0.282881E-01  0.247248E-01  0.213030E-01  0.181800E-01  0.154519E-01
  0.131573E-01  0.112895E-01  0.981542E-02  0.869111E-02  0.786964E-02  0.730339E-02
  0.694579E-02  0.675446E-02  0.669325E-02  0.673141E-02  0.684119E-02  0.699609E-02
  0.717038E-02  0.780161E-02  0.802401E-02  0.822001E-02  0.836786E-02  0.845303E-02
  0.846855E-02  0.841475E-02  0.829972E-02  0.814003E-02  0.795970E-02  0.778756E-02
  0.765485E-02  0.759390E-02  0.763808E-02  0.782330E-02  0.819050E-02  0.878736E-02
  0.966700E-02  0.108849E-01  0.124968E-01  0.145552E-01  0.171016E-01  0.201478E-01
  0.236540E-01  0.275092E-01  0.315220E-01  0.354313E-01  0.389458E-01  0.418103E-01
  0.438687E-01  0.450794E-01  0.454731E-01  0.450857E-01  0.439206E-01  0.419665E-01
  0.392520E-01  0.358942E-01  0.321031E-01  0.281396E-01  0.242593E-01  0.206683E-01
  0.175022E-01  0.148245E-01  0.126385E-01  0.109094E-01  0.958633E-02  0.861522E-02
  0.794252E-02  0.751566E-02  0.728565E-02  0.721032E-02  0.725453E-02  0.738749E-02
  0.757971E-02  0.780161E-02  0.849258E-02  0.878326E-02  0.904858E-02  0.926095E-02
  0.940057E-02  0.945622E-02  0.942515E-02  0.931353E-02  0.913758E-02  0.892302E-02
  0.870244E-02  0.851192E-02  0.838875E-02  0.837078E-02  0.849791E-02  0.881495E-02
  0.937349E-02  0.102309E-01  0.114473E-01  0.130845E-01  0.152033E-01  0.178553E-01
  0.210636E-01  0.247956E-01  0.289397E-01  0.332901E-01  0.375545E-01  0.413979E-01
  0.445252E-01  0.467663E-01  0.481027E-01  0.486116E-01  0.483688E-01  0.473828E-01
  0.456040E-01  0.429966E-01  0.396196E-01  0.356589E-01  0.313935E-01  0.271240E-01
  0.231091E-01  0.195297E-01  0.164808E-01  0.139819E-01  0.120007E-01  0.104809E-01
  0.936154E-02  0.858347E-02  0.808926E-02  0.782458E-02  0.774161E-02  0.780059E-02
  0.796732E-02  0.820917E-02  0.849258E-02  0.923947E-02  0.961546E-02  0.996764E-02
  0.102615E-01  0.104708E-01  0.105790E-01  0.105795E-01  0.104757E-01  0.102830E-01
  0.100287E-01  0.974900E-02  0.948536E-02  0.928065E-02  0.917784E-02  0.922115E-02
  0.945911E-02  0.994678E-02  0.107449E-01  0.119170E-01  0.135286E-01  0.156462E-01
  0.183299E-01  0.216134E-01  0.254752E-01  0.298098E-01  0.344073E-01  0.389550E-01
  0.430808E-01  0.464476E-01  0.488600E-01  0.503096E-01  0.509152E-01  0.508010E-01
  0.499981E-01  0.484357E-01  0.460189E-01  0.427378E-01  0.387341E-01  0.342849E-01
  0.297252E-01  0.253628E-01  0.214254E-01  0.180433E-01  0.152569E-01  0.130414E-01
  0.113382E-01  0.100806E-01  0.920465E-02  0.864956E-02  0.835731E-02  0.827559E-02
  0.836015E-02  0.857320E-02  0.887883E-02  0.923947E-02  0.100297E-01  0.105091E-01
  0.109674E-01  0.113623E-01  0.116594E-01  0.118357E-01  0.118793E-01  0.117904E-01
  0.115828E-01  0.112846E-01  0.109362E-01  0.105846E-01  0.102789E-01  0.100679E-01
  0.100004E-01  0.101285E-01  0.105104E-01  0.112093E-01  0.122910E-01  0.138227E-01
  0.158733E-01  0.185083E-01  0.217709E-01  0.256530E-01  0.300623E-01  0.347973E-01
  0.395419E-01  0.439025E-01  0.475040E-01  0.501133E-01  0.517067E-01  0.524220E-01
  0.524237E-01  0.517778E-01  0.504169E-01  0.482104E-01  0.450889E-01  0.411414E-01
  0.366249E-01  0.318901E-01  0.272822E-01  0.230700E-01  0.194185E-01  0.163917E-01
  0.139762E-01  0.121151E-01  0.107386E-01  0.977952E-02  0.917514E-02  0.886578E-02
  0.879621E-02  0.891848E-02  0.919124E-02  0.957543E-02  0.100297E-01  0.108416E-01
  0.114422E-01  0.120265E-01  0.125433E-01  0.129490E-01  0.132120E-01  0.133139E-01
  0.132501E-01  0.130322E-01  0.126890E-01  0.122642E-01  0.118113E-01  0.113862E-01
  0.110443E-01  0.108395E-01  0.108276E-01  0.110689E-01  0.116286E-01  0.125735E-01
  0.139709E-01  0.158890E-01  0.183949E-01  0.215389E-01  0.253264E-01  0.296840E-01
  0.344312E-01  0.392680E-01  0.438013E-01  0.476323E-01  0.504833E-01  0.522872E-01
  0.531642E-01  0.532939E-01  0.527758E-01  0.515678E-01  0.495368E-01  0.465814E-01
  0.427469E-01  0.382597E-01  0.334660E-01  0.287292E-01  0.243470E-01  0.205125E-01
  0.173123E-01  0.147472E-01  0.127660E-01  0.112991E-01  0.102784E-01  0.964125E-02
  0.932829E-02  0.928326E-02  0.945568E-02  0.980125E-02  0.102781E-01  0.108416E-01
  0.116455E-01  0.123830E-01  0.131119E-01  0.137715E-01  0.143075E-01  0.146780E-01
  0.148563E-01  0.148316E-01  0.146119E-01  0.142258E-01  0.137206E-01  0.131557E-01
  0.125953E-01  0.121021E-01  0.117359E-01  0.115560E-01  0.116248E-01  0.120083E-01
  0.127734E-01  0.139858E-01  0.157109E-01  0.180135E-01  0.209472E-01  0.245292E-01
  0.287076E-01  0.333317E-01  0.381347E-01  0.427487E-01  0.467733E-01  0.498927E-01
  0.519768E-01  0.530901E-01  0.533906E-01  0.529942E-01  0.518940E-01  0.499846E-01
  0.471678E-01  0.434682E-01  0.390826E-01  0.343373E-01  0.295927E-01  0.251574E-01
  0.212419E-01  0.179511E-01  0.153005E-01  0.132474E-01  0.117264E-01  0.106714E-01
  0.100219E-01  0.972098E-02  0.971332E-02  0.994761E-02  0.103776E-01  0.109592E-01
  0.116455E-01  0.124047E-01  0.132912E-01  0.141798E-01  0.150007E-01  0.156877E-01
  0.161868E-01  0.164612E-01  0.164924E-01  0.162835E-01  0.158615E-01  0.152763E-01
  0.145939E-01  0.138866E-01  0.132256E-01  0.126778E-01  0.123067E-01  0.121763E-01
  0.123524E-01  0.129010E-01  0.138854E-01  0.153663E-01  0.174033E-01  0.200486E-01
  0.233276E-01  0.272090E-01  0.315752E-01  0.362036E-01  0.407708E-01  0.449006E-01
  0.482583E-01  0.506503E-01  0.520603E-01  0.525886E-01  0.523391E-01  0.513344E-01
  0.495141E-01  0.468132E-01  0.432615E-01  0.390364E-01  0.344365E-01  0.298016E-01
  0.254330E-01  0.215458E-01  0.182563E-01  0.155928E-01  0.135235E-01  0.119901E-01
  0.109317E-01  0.102925E-01  0.100198E-01  0.100614E-01  0.103672E-01  0.108903E-01
  0.115856E-01  0.124047E-01  0.130770E-01  0.141193E-01  0.151774E-01  0.161729E-01
  0.170277E-01  0.176746E-01  0.180646E-01  0.181701E-01  0.179878E-01  0.175419E-01
  0.168837E-01  0.160846E-01  0.152255E-01  0.143868E-01  0.136435E-01  0.130644E-01
  0.127152E-01  0.126613E-01  0.129663E-01  0.136904E-01  0.148889E-01  0.166138E-01
  0.189123E-01  0.218126E-01  0.252997E-01  0.292879E-01  0.336014E-01  0.379720E-01
  0.420678E-01  0.455614E-01  0.482142E-01  0.499271E-01  0.507212E-01  0.506605E-01
  0.497784E-01  0.480599E-01  0.454872E-01  0.421144E-01  0.381113E-01  0.337479E-01
  0.293325E-01  0.251452E-01  0.213938E-01  0.181984E-01  0.155971E-01  0.135697E-01
  0.120678E-01  0.110382E-01  0.104320E-01  0.102025E-01  0.103029E-01  0.106862E-01
  0.113070E-01  0.121202E-01  0.130770E-01  0.136175E-01  0.148150E-01  0.160446E-01
  0.172207E-01  0.182537E-01  0.190627E-01  0.195854E-01  0.197836E-01  0.196464E-01
  0.191934E-01  0.184758E-01  0.175691E-01  0.165621E-01  0.155445E-01  0.146003E-01
  0.138050E-01  0.132270E-01  0.129306E-01  0.129767E-01  0.134213E-01  0.143141E-01
  0.156991E-01  0.176151E-01  0.200882E-01  0.231137E-01  0.266323E-01  0.305115E-01
  0.345390E-01  0.384379E-01  0.419106E-01  0.447019E-01  0.466508E-01  0.476998E-01
  0.478574E-01  0.471466E-01  0.455825E-01  0.431919E-01  0.400579E-01  0.363493E-01
  0.323099E-01  0.282126E-01  0.243087E-01  0.207902E-01  0.177744E-01  0.153060E-01
  0.133760E-01  0.119477E-01  0.109777E-01  0.104252E-01  0.102514E-01  0.104162E-01
  0.108782E-01  0.115955E-01  0.125247E-01  0.136175E-01  0.139825E-01  0.153259E-01
  0.167193E-01  0.180720E-01  0.192844E-01  0.202625E-01  0.209302E-01  0.212377E-01
  0.211649E-01  0.207258E-01  0.199692E-01  0.189731E-01  0.178323E-01  0.166454E-01
  0.155057E-01  0.144966E-01  0.136905E-01  0.131510E-01  0.129357E-01  0.130960E-01
  0.136758E-01  0.147114E-01  0.162325E-01  0.182588E-01  0.207894E-01  0.237843E-01
  0.271471E-01  0.307156E-01  0.342683E-01  0.375505E-01  0.403169E-01  0.423761E-01
  0.436131E-01  0.439823E-01  0.434826E-01  0.421388E-01  0.400057E-01  0.371873E-01
  0.338506E-01  0.302147E-01  0.265182E-01  0.229809E-01  0.197746E-01  0.170094E-01
  0.147337E-01  0.129489E-01  0.116306E-01  0.107464E-01  0.102649E-01  0.101553E-01
  0.103857E-01  0.109221E-01  0.117280E-01  0.127637E-01  0.139825E-01  0.141358E-01
  0.156056E-01  0.171442E-01  0.186578E-01  0.200395E-01  0.211837E-01  0.220014E-01
  0.224304E-01  0.224408E-01  0.220393E-01  0.212704E-01  0.202117E-01  0.189619E-01
  0.176271E-01  0.163095E-01  0.151009E-01  0.140790E-01  0.133080E-01  0.128422E-01
  0.127276E-01  0.130026E-01  0.136967E-01  0.148310E-01  0.164173E-01  0.184532E-01
  0.209103E-01  0.237192E-01  0.267596E-01  0.298597E-01  0.328106E-01  0.353950E-01
  0.374193E-01  0.387405E-01  0.392750E-01  0.389948E-01  0.379184E-01  0.361083E-01
  0.336742E-01  0.307744E-01  0.276034E-01  0.243671E-01  0.212548E-01  0.184170E-01
  0.159537E-01  0.139149E-01  0.123114E-01  0.111307E-01  0.103520E-01  0.995301E-02
  0.991148E-02  0.102041E-01  0.108050E-01  0.116852E-01  0.128100E-01  0.141358E-01
  0.140543E-01  0.156211E-01  0.172753E-01  0.189219E-01  0.204502E-01  0.217462E-01
  0.227093E-01  0.232655E-01  0.233746E-01  0.230347E-01  0.222841E-01  0.211970E-01
  0.198732E-01  0.184235E-01  0.169577E-01  0.155760E-01  0.143624E-01  0.133831E-01
  0.126896E-01  0.123227E-01  0.123151E-01  0.126904E-01  0.134629E-01  0.146369E-01
  0.162060E-01  0.181465E-01  0.204077E-01  0.229011E-01  0.254965E-01  0.280286E-01
  0.303150E-01  0.321800E-01  0.334773E-01  0.341063E-01  0.340189E-01  0.332200E-01
  0.317642E-01  0.297522E-01  0.273250E-01  0.246508E-01  0.219048E-01  0.192476E-01
  0.168084E-01  0.146761E-01  0.129006E-01  0.115006E-01  0.104748E-01  0.981300E-02
  0.950181E-02  0.952705E-02  0.987370E-02  0.105248E-01  0.114592E-01  0.126488E-01
  0.140543E-01  0.137313E-01  0.153578E-01  0.170883E-01  0.188296E-01  0.204703E-01
  0.218919E-01  0.229854E-01  0.236662E-01  0.238838E-01  0.236270E-01  0.229259E-01
  0.218491E-01  0.204935E-01  0.189716E-01  0.173986E-01  0.158816E-01  0.145111E-01
  0.133566E-01  0.124681E-01  0.118821E-01  0.116254E-01  0.117166E-01  0.121646E-01
  0.129685E-01  0.141176E-01  0.155890E-01  0.173429E-01  0.193136E-01  0.214036E-01
  0.234855E-01  0.254125E-01  0.270361E-01  0.282236E-01  0.288742E-01  0.289302E-01
  0.283831E-01  0.272720E-01  0.256798E-01  0.237238E-01  0.215442E-01  0.192866E-01
  0.170850E-01  0.150482E-01  0.132540E-01  0.117507E-01  0.105628E-01  0.969853E-02
  0.915686E-02  0.893236E-02  0.901815E-02  0.940702E-02  0.100903E-01  0.110551E-01
  0.122801E-01  0.137313E-01  0.131774E-01  0.148212E-01  0.165827E-01  0.183729E-01
  0.200830E-01  0.215944E-01  0.227935E-01  0.235873E-01  0.239154E-01  0.237572E-01
  0.231340E-01  0.221060E-01  0.207642E-01  0.192191E-01  0.175879E-01  0.159826E-01
  0.144990E-01  0.132102E-01  0.121668E-01  0.114020E-01  0.109380E-01  0.107882E-01
  0.109577E-01  0.114422E-01  0.122280E-01  0.132924E-01  0.146013E-01  0.161038E-01
  0.177266E-01  0.193729E-01  0.209288E-01  0.222750E-01  0.233001E-01  0.239138E-01
  0.240581E-01  0.237149E-01  0.229076E-01  0.216979E-01  0.201777E-01  0.184587E-01
  0.166586E-01  0.148865E-01  0.132327E-01  0.117641E-01  0.105263E-01  0.954718E-02
  0.884186E-02  0.841645E-02  0.827210E-02  0.840836E-02  0.882494E-02  0.952068E-02
  0.104900E-01  0.117184E-01  0.131774E-01  0.124195E-01  0.140369E-01  0.157821E-01
  0.175720E-01  0.193038E-01  0.208627E-01  0.221345E-01  0.230210E-01  0.234534E-01
  0.234017E-01  0.228778E-01  0.219325E-01  0.206486E-01  0.191309E-01  0.174948E-01
  0.158538E-01  0.143069E-01  0.129306E-01  0.117768E-01  0.108777E-01  0.102520E-01
  0.990941E-02  0.985139E-02  0.100712E-01  0.105541E-01  0.112778E-01  0.122122E-01
  0.133161E-01  0.145330E-01  0.157896E-01  0.169991E-01  0.180692E-01  0.189117E-01
  0.194514E-01  0.196357E-01  0.194423E-01  0.188817E-01  0.179959E-01  0.168527E-01
  0.155376E-01  0.141422E-01  0.127538E-01  0.114459E-01  0.102753E-01  0.928386E-02
  0.850057E-02  0.794429E-02  0.762590E-02  0.755151E-02  0.772591E-02  0.815463E-02
  0.884277E-02  0.979103E-02  0.109908E-01  0.124195E-01  0.114973E-01  0.130475E-01
  0.147310E-01  0.164727E-01  0.181781E-01  0.197393E-01  0.210458E-01  0.219976E-01
  0.225199E-01  0.225739E-01  0.221621E-01  0.213258E-01  0.201378E-01  0.186947E-01
  0.171062E-01  0.154834E-01  0.139258E-01  0.125115E-01  0.112941E-01  0.103063E-01
  0.956560E-02  0.907914E-02  0.884566E-02  0.885645E-02  0.909616E-02  0.954386E-02
  0.101731E-01  0.109501E-01  0.118303E-01  0.127577E-01  0.136664E-01  0.144867E-01
  0.151509E-01  0.155999E-01  0.157893E-01  0.156962E-01  0.153224E-01  0.146943E-01
  0.138593E-01  0.128799E-01  0.118256E-01  0.107641E-01  0.975459E-02  0.884496E-02
  0.807231E-02  0.746461E-02  0.704189E-02  0.681754E-02  0.680089E-02  0.700062E-02
  0.742663E-02  0.808870E-02  0.899244E-02  0.101343E-01  0.114973E-01  0.104598E-01
  0.119080E-01  0.134904E-01  0.151411E-01  0.167753E-01  0.182948E-01  0.195958E-01
  0.205807E-01  0.211714E-01  0.213221E-01  0.210264E-01  0.203157E-01  0.192528E-01
  0.179239E-01  0.164298E-01  0.148759E-01  0.133585E-01  0.119553E-01  0.107207E-01
  0.968891E-02  0.887787E-02  0.829405E-02  0.793468E-02  0.778948E-02  0.784267E-02
  0.807469E-02  0.846271E-02  0.897913E-02  0.958907E-02  0.102493E-01  0.109098E-01
  0.115181E-01  0.120233E-01  0.123800E-01  0.125528E-01  0.125207E-01  0.122803E-01
  0.118468E-01  0.112519E-01  0.105396E-01  0.976101E-02  0.896773E-02  0.820655E-02
  0.751692E-02  0.693093E-02  0.647404E-02  0.616564E-02  0.601995E-02  0.604814E-02
  0.626124E-02  0.667177E-02  0.729248E-02  0.813241E-02  0.919214E-02  0.104598E-01
  0.935967E-02  0.106794E-01  0.121300E-01  0.136549E-01  0.151803E-01  0.166186E-01
  0.178755E-01  0.188592E-01  0.194921E-01  0.197239E-01  0.195401E-01  0.189625E-01
  0.180434E-01  0.168578E-01  0.154958E-01  0.140534E-01  0.126210E-01  0.112736E-01
  0.100653E-01  0.903118E-02  0.819075E-02  0.755131E-02  0.711008E-02  0.685632E-02
  0.677407E-02  0.684487E-02  0.704887E-02  0.736373E-02  0.776236E-02  0.821175E-02
  0.867413E-02  0.910991E-02  0.948088E-02  0.975279E-02  0.989794E-02  0.989829E-02
  0.974818E-02  0.945544E-02  0.904039E-02  0.853335E-02  0.797085E-02  0.739120E-02
  0.683053E-02  0.632056E-02  0.588813E-02  0.555544E-02  0.534035E-02  0.525698E-02
  0.531731E-02  0.553336E-02  0.591857E-02  0.648681E-02  0.724906E-02  0.820910E-02
  0.935967E-02  0.824750E-02  0.942209E-02  0.107203E-01  0.120948E-01  0.134828E-01
  0.148081E-01  0.159874E-01  0.169372E-01  0.175843E-01  0.178771E-01  0.177946E-01
  0.173492E-01  0.165824E-01  0.155576E-01  0.143530E-01  0.130537E-01  0.117417E-01
  0.104869E-01  0.934195E-02  0.834220E-02  0.750839E-02  0.684929E-02  0.636339E-02
  0.604082E-02  0.586639E-02  0.582283E-02  0.589261E-02  0.605731E-02  0.629589E-02
  0.658337E-02  0.689148E-02  0.719060E-02  0.745214E-02  0.765028E-02  0.776371E-02