
     Program POST-PROC v.6.5 starts on 11Aug2023 at 14:29:36 

     This program is part of the open-source Quantum ESPRESSO suite
     for quantum simulation of materials; please cite
         "P. Giannozzi et al., J. Phys.:Condens. Matter 21 395502 (2009);
         "P. Giannozzi et al., J. Phys.:Condens. Matter 29 465901 (2017);
          URL http://www.quantum-espresso.org", 
     in publications or presentations arising from this work. More details at
     http://www.quantum-espresso.org/quote

     Serial version

     Reading xml data from directory:

     /projectsn/mp1009_1/Valeria/cWT-KEDF/Phases/Transition_Btin_hd/0.5/si_0.5_6_4_Btin_hd.save/

     Program POST-PROC v.6.5 starts on 11Aug2023 at 14:29:36 

     This program is part of the open-source Quantum ESPRESSO suite
     for quantum simulation of materials; please cite
         "P. Giannozzi et al., J. Phys.:Condens. Matter 21 395502 (2009);
         "P. Giannozzi et al., J. Phys.:Condens. Matter 29 465901 (2017);
          URL http://www.quantum-espresso.org", 
     in publications or presentations arising from this work. More details at
     http://www.quantum-espresso.org/quote

     Serial version

     Reading xml data from directory:

     /projectsn/mp1009_1/Valeria/cWT-KEDF/Phases/Transition_Btin_hd/0.5/si_0.5_6_4_Btin_hd.save/

     Program POST-PROC v.6.5 starts on 11Aug2023 at 14:29:36 

     This program is part of the open-source Quantum ESPRESSO suite
     for quantum simulation of materials; please cite
         "P. Giannozzi et al., J. Phys.:Condens. Matter 21 395502 (2009);
         "P. Giannozzi et al., J. Phys.:Condens. Matter 29 465901 (2017);
          URL http://www.quantum-espresso.org", 
     in publications or presentations arising from this work. More details at
     http://www.quantum-espresso.org/quote

     Serial version

     Reading xml data from directory:

     /projectsn/mp1009_1/Valeria/cWT-KEDF/Phases/Transition_Btin_hd/0.5/si_0.5_6_4_Btin_hd.save/

     Program POST-PROC v.6.5 starts on 11Aug2023 at 14:29:36 

     This program is part of the open-source Quantum ESPRESSO suite
     for quantum simulation of materials; please cite
         "P. Giannozzi et al., J. Phys.:Condens. Matter 21 395502 (2009);
         "P. Giannozzi et al., J. Phys.:Condens. Matter 29 465901 (2017);
          URL http://www.quantum-espresso.org", 
     in publications or presentations arising from this work. More details at
     http://www.quantum-espresso.org/quote

     Serial version

     Reading xml data from directory:

     /projectsn/mp1009_1/Valeria/cWT-KEDF/Phases/Transition_Btin_hd/0.5/si_0.5_6_4_Btin_hd.save/

     Program POST-PROC v.6.5 starts on 11Aug2023 at 14:29:36 

     This program is part of the open-source Quantum ESPRESSO suite
     for quantum simulation of materials; please cite
         "P. Giannozzi et al., J. Phys.:Condens. Matter 21 395502 (2009);
         "P. Giannozzi et al., J. Phys.:Condens. Matter 29 465901 (2017);
          URL http://www.quantum-espresso.org", 
     in publications or presentations arising from this work. More details at
     http://www.quantum-espresso.org/quote

     Serial version

     Reading xml data from directory:

     /projectsn/mp1009_1/Valeria/cWT-KEDF/Phases/Transition_Btin_hd/0.5/si_0.5_6_4_Btin_hd.save/

     Program POST-PROC v.6.5 starts on 11Aug2023 at 14:29:36 

     This program is part of the open-source Quantum ESPRESSO suite
     for quantum simulation of materials; please cite
         "P. Giannozzi et al., J. Phys.:Condens. Matter 21 395502 (2009);
         "P. Giannozzi et al., J. Phys.:Condens. Matter 29 465901 (2017);
          URL http://www.quantum-espresso.org", 
     in publications or presentations arising from this work. More details at
     http://www.quantum-espresso.org/quote

     Serial version

     Reading xml data from directory:

     /projectsn/mp1009_1/Valeria/cWT-KEDF/Phases/Transition_Btin_hd/0.5/si_0.5_6_4_Btin_hd.save/

     Program POST-PROC v.6.5 starts on 11Aug2023 at 14:29:36 

     This program is part of the open-source Quantum ESPRESSO suite
     for quantum simulation of materials; please cite
         "P. Giannozzi et al., J. Phys.:Condens. Matter 21 395502 (2009);
         "P. Giannozzi et al., J. Phys.:Condens. Matter 29 465901 (2017);
          URL http://www.quantum-espresso.org", 
     in publications or presentations arising from this work. More details at
     http://www.quantum-espresso.org/quote

     Serial version

     Program POST-PROC v.6.5 starts on 11Aug2023 at 14:29:36 

     This program is part of the open-source Quantum ESPRESSO suite
     for quantum simulation of materials; please cite
         "P. Giannozzi et al., J. Phys.:Condens. Matter 21 395502 (2009);
         "P. Giannozzi et al., J. Phys.:Condens. Matter 29 465901 (2017);
          URL http://www.quantum-espresso.org", 
     in publications or presentations arising from this work. More details at
     http://www.quantum-espresso.org/quote

     Serial version

     Reading xml data from directory:

     /projectsn/mp1009_1/Valeria/cWT-KEDF/Phases/Transition_Btin_hd/0.5/si_0.5_6_4_Btin_hd.save/

     Reading xml data from directory:

     /projectsn/mp1009_1/Valeria/cWT-KEDF/Phases/Transition_Btin_hd/0.5/si_0.5_6_4_Btin_hd.save/

     Program POST-PROC v.6.5 starts on 11Aug2023 at 14:29:37 

     This program is part of the open-source Quantum ESPRESSO suite
     for quantum simulation of materials; please cite
         "P. Giannozzi et al., J. Phys.:Condens. Matter 21 395502 (2009);
         "P. Giannozzi et al., J. Phys.:Condens. Matter 29 465901 (2017);
          URL http://www.quantum-espresso.org", 
     in publications or presentations arising from this work. More details at
     http://www.quantum-espresso.org/quote

     Serial version

     Reading xml data from directory:

     /projectsn/mp1009_1/Valeria/cWT-KEDF/Phases/Transition_Btin_hd/0.5/si_0.5_6_4_Btin_hd.save/

     Program POST-PROC v.6.5 starts on 11Aug2023 at 14:29:37 

     This program is part of the open-source Quantum ESPRESSO suite
     for quantum simulation of materials; please cite
         "P. Giannozzi et al., J. Phys.:Condens. Matter 21 395502 (2009);
         "P. Giannozzi et al., J. Phys.:Condens. Matter 29 465901 (2017);
          URL http://www.quantum-espresso.org", 
     in publications or presentations arising from this work. More details at
     http://www.quantum-espresso.org/quote

     Serial version

     Reading xml data from directory:

     /projectsn/mp1009_1/Valeria/cWT-KEDF/Phases/Transition_Btin_hd/0.5/si_0.5_6_4_Btin_hd.save/

     Program POST-PROC v.6.5 starts on 11Aug2023 at 14:29:37 

     This program is part of the open-source Quantum ESPRESSO suite
     for quantum simulation of materials; please cite
         "P. Giannozzi et al., J. Phys.:Condens. Matter 21 395502 (2009);
         "P. Giannozzi et al., J. Phys.:Condens. Matter 29 465901 (2017);
          URL http://www.quantum-espresso.org", 
     in publications or presentations arising from this work. More details at
     http://www.quantum-espresso.org/quote

     Serial version

     Reading xml data from directory:

     /projectsn/mp1009_1/Valeria/cWT-KEDF/Phases/Transition_Btin_hd/0.5/si_0.5_6_4_Btin_hd.save/

     Program POST-PROC v.6.5 starts on 11Aug2023 at 14:29:37 

     This program is part of the open-source Quantum ESPRESSO suite
     for quantum simulation of materials; please cite
         "P. Giannozzi et al., J. Phys.:Condens. Matter 21 395502 (2009);
         "P. Giannozzi et al., J. Phys.:Condens. Matter 29 465901 (2017);
          URL http://www.quantum-espresso.org", 
     in publications or presentations arising from this work. More details at
     http://www.quantum-espresso.org/quote

     Serial version

     Reading xml data from directory:

     /projectsn/mp1009_1/Valeria/cWT-KEDF/Phases/Transition_Btin_hd/0.5/si_0.5_6_4_Btin_hd.save/

     Program POST-PROC v.6.5 starts on 11Aug2023 at 14:29:37 

     This program is part of the open-source Quantum ESPRESSO suite
     for quantum simulation of materials; please cite
         "P. Giannozzi et al., J. Phys.:Condens. Matter 21 395502 (2009);
         "P. Giannozzi et al., J. Phys.:Condens. Matter 29 465901 (2017);
          URL http://www.quantum-espresso.org", 
     in publications or presentations arising from this work. More details at
     http://www.quantum-espresso.org/quote

     Serial version

     Reading xml data from directory:

     /projectsn/mp1009_1/Valeria/cWT-KEDF/Phases/Transition_Btin_hd/0.5/si_0.5_6_4_Btin_hd.save/

     Program POST-PROC v.6.5 starts on 11Aug2023 at 14:29:37 

     This program is part of the open-source Quantum ESPRESSO suite
     for quantum simulation of materials; please cite
         "P. Giannozzi et al., J. Phys.:Condens. Matter 21 395502 (2009);
         "P. Giannozzi et al., J. Phys.:Condens. Matter 29 465901 (2017);
          URL http://www.quantum-espresso.org", 
     in publications or presentations arising from this work. More details at
     http://www.quantum-espresso.org/quote

     Serial version

     Reading xml data from directory:

     /projectsn/mp1009_1/Valeria/cWT-KEDF/Phases/Transition_Btin_hd/0.5/si_0.5_6_4_Btin_hd.save/

     Program POST-PROC v.6.5 starts on 11Aug2023 at 14:29:37 

     This program is part of the open-source Quantum ESPRESSO suite
     for quantum simulation of materials; please cite
         "P. Giannozzi et al., J. Phys.:Condens. Matter 21 395502 (2009);
         "P. Giannozzi et al., J. Phys.:Condens. Matter 29 465901 (2017);
          URL http://www.quantum-espresso.org", 
     in publications or presentations arising from this work. More details at
     http://www.quantum-espresso.org/quote

     Serial version

     Program POST-PROC v.6.5 starts on 11Aug2023 at 14:29:37 

     This program is part of the open-source Quantum ESPRESSO suite
     for quantum simulation of materials; please cite
         "P. Giannozzi et al., J. Phys.:Condens. Matter 21 395502 (2009);
         "P. Giannozzi et al., J. Phys.:Condens. Matter 29 465901 (2017);
          URL http://www.quantum-espresso.org", 
     in publications or presentations arising from this work. More details at
     http://www.quantum-espresso.org/quote

     Serial version

     Reading xml data from directory:

     /projectsn/mp1009_1/Valeria/cWT-KEDF/Phases/Transition_Btin_hd/0.5/si_0.5_6_4_Btin_hd.save/

     Reading xml data from directory:

     /projectsn/mp1009_1/Valeria/cWT-KEDF/Phases/Transition_Btin_hd/0.5/si_0.5_6_4_Btin_hd.save/

     Program POST-PROC v.6.5 starts on 11Aug2023 at 14:29:37 

     This program is part of the open-source Quantum ESPRESSO suite
     for quantum simulation of materials; please cite
         "P. Giannozzi et al., J. Phys.:Condens. Matter 21 395502 (2009);
         "P. Giannozzi et al., J. Phys.:Condens. Matter 29 465901 (2017);
          URL http://www.quantum-espresso.org", 
     in publications or presentations arising from this work. More details at
     http://www.quantum-espresso.org/quote

     Serial version

     Program POST-PROC v.6.5 starts on 11Aug2023 at 14:29:37 

     This program is part of the open-source Quantum ESPRESSO suite
     for quantum simulation of materials; please cite
         "P. Giannozzi et al., J. Phys.:Condens. Matter 21 395502 (2009);
         "P. Giannozzi et al., J. Phys.:Condens. Matter 29 465901 (2017);
          URL http://www.quantum-espresso.org", 
     in publications or presentations arising from this work. More details at
     http://www.quantum-espresso.org/quote

     Serial version

     Reading xml data from directory:

     /projectsn/mp1009_1/Valeria/cWT-KEDF/Phases/Transition_Btin_hd/0.5/si_0.5_6_4_Btin_hd.save/

     Reading xml data from directory:

     /projectsn/mp1009_1/Valeria/cWT-KEDF/Phases/Transition_Btin_hd/0.5/si_0.5_6_4_Btin_hd.save/

     Program POST-PROC v.6.5 starts on 11Aug2023 at 14:29:37 

     This program is part of the open-source Quantum ESPRESSO suite
     for quantum simulation of materials; please cite
         "P. Giannozzi et al., J. Phys.:Condens. Matter 21 395502 (2009);
         "P. Giannozzi et al., J. Phys.:Condens. Matter 29 465901 (2017);
          URL http://www.quantum-espresso.org", 
     in publications or presentations arising from this work. More details at
     http://www.quantum-espresso.org/quote

     Serial version

     Reading xml data from directory:

     /projectsn/mp1009_1/Valeria/cWT-KEDF/Phases/Transition_Btin_hd/0.5/si_0.5_6_4_Btin_hd.save/

     Program POST-PROC v.6.5 starts on 11Aug2023 at 14:29:37 

     This program is part of the open-source Quantum ESPRESSO suite
     for quantum simulation of materials; please cite
         "P. Giannozzi et al., J. Phys.:Condens. Matter 21 395502 (2009);
         "P. Giannozzi et al., J. Phys.:Condens. Matter 29 465901 (2017);
          URL http://www.quantum-espresso.org", 
     in publications or presentations arising from this work. More details at
     http://www.quantum-espresso.org/quote

     Serial version

     Reading xml data from directory:

     /projectsn/mp1009_1/Valeria/cWT-KEDF/Phases/Transition_Btin_hd/0.5/si_0.5_6_4_Btin_hd.save/

     IMPORTANT: XC functional enforced from input :
     Exchange-correlation= PZ
                           (   1   1   0   0   0   0   0)
     Any further DFT definition will be discarded
     Please, verify this is what you really want


     G-vector sticks info
     --------------------
     sticks:   dense  smooth     PW     G-vecs:    dense   smooth      PW
     Sum        1013    1013    305                26043    26043    4313


     Calling punch_plot, plot_num =   0
     Writing data to file  tmp.pp
     Reading data from file  tmp.pp

     IMPORTANT: XC functional enforced from input :
     Exchange-correlation= PZ
                           (   1   1   0   0   0   0   0)
     Any further DFT definition will be discarded
     Please, verify this is what you really want


     IMPORTANT: XC functional enforced from input :
     Exchange-correlation= PZ
                           (   1   1   0   0   0   0   0)
     Any further DFT definition will be discarded
     Please, verify this is what you really want


     G-vector sticks info
     --------------------
     sticks:   dense  smooth     PW     G-vecs:    dense   smooth      PW
     Sum        1013    1013    305                26043    26043    4313


     G-vector sticks info
     --------------------
     sticks:   dense  smooth     PW     G-vecs:    dense   smooth      PW
     Sum        1013    1013    305                26043    26043    4313


     Writing data to be plotted to file si_0.5_6_4_Btin_hd.xsf
     Plot Type: 3D                     Output format: XCrySDen     

     POST-PROC    :      3.02s CPU      3.27s WALL


   This run was terminated on:  14:29:39  11Aug2023            

=------------------------------------------------------------------------------=
   JOB DONE.
=------------------------------------------------------------------------------=

     IMPORTANT: XC functional enforced from input :
     Exchange-correlation= PZ
                           (   1   1   0   0   0   0   0)
     Any further DFT definition will be discarded
     Please, verify this is what you really want


     G-vector sticks info
     --------------------
     sticks:   dense  smooth     PW     G-vecs:    dense   smooth      PW
     Sum        1013    1013    305                26043    26043    4313


     IMPORTANT: XC functional enforced from input :
     Exchange-correlation= PZ
                           (   1   1   0   0   0   0   0)
     Any further DFT definition will be discarded
     Please, verify this is what you really want


     G-vector sticks info
     --------------------
     sticks:   dense  smooth     PW     G-vecs:    dense   smooth      PW
     Sum        1013    1013    305                26043    26043    4313


     IMPORTANT: XC functional enforced from input :
     Exchange-correlation= PZ
                           (   1   1   0   0   0   0   0)
     Any further DFT definition will be discarded
     Please, verify this is what you really want


     IMPORTANT: XC functional enforced from input :
     Exchange-correlation= PZ
                           (   1   1   0   0   0   0   0)
     Any further DFT definition will be discarded
     Please, verify this is what you really want


     G-vector sticks info
     --------------------
     sticks:   dense  smooth     PW     G-vecs:    dense   smooth      PW
     Sum        1013    1013    305                26043    26043    4313


     G-vector sticks info
     --------------------
     sticks:   dense  smooth     PW     G-vecs:    dense   smooth      PW
     Sum        1013    1013    305                26043    26043    4313


     IMPORTANT: XC functional enforced from input :
     Exchange-correlation= PZ
                           (   1   1   0   0   0   0   0)
     Any further DFT definition will be discarded
     Please, verify this is what you really want


     G-vector sticks info
     --------------------
     sticks:   dense  smooth     PW     G-vecs:    dense   smooth      PW
     Sum        1013    1013    305                26043    26043    4313


     Calling punch_plot, plot_num =   0
     Writing data to file  tmp.pp

     IMPORTANT: XC functional enforced from input :
     Exchange-correlation= PZ
                           (   1   1   0   0   0   0   0)
     Any further DFT definition will be discarded
     Please, verify this is what you really want


     Calling punch_plot, plot_num =   0
     Writing data to file  tmp.pp

     G-vector sticks info
     --------------------
     sticks:   dense  smooth     PW     G-vecs:    dense   smooth      PW
     Sum        1013    1013    305                26043    26043    4313

     Reading data from file  tmp.pp
     Reading data from file  tmp.pp

     IMPORTANT: XC functional enforced from input :
     Exchange-correlation= PZ
                           (   1   1   0   0   0   0   0)
     Any further DFT definition will be discarded
     Please, verify this is what you really want


     G-vector sticks info
     --------------------
     sticks:   dense  smooth     PW     G-vecs:    dense   smooth      PW
     Sum        1013    1013    305                26043    26043    4313


     Writing data to be plotted to file si_0.5_6_4_Btin_hd.xsf

     IMPORTANT: XC functional enforced from input :
     Exchange-correlation= PZ
                           (   1   1   0   0   0   0   0)
     Any further DFT definition will be discarded
     Please, verify this is what you really want


     G-vector sticks info
     --------------------
     sticks:   dense  smooth     PW     G-vecs:    dense   smooth      PW
     Sum        1013    1013    305                26043    26043    4313

     Plot Type: 3D                     Output format: XCrySDen     

     POST-PROC    :      3.46s CPU      3.60s WALL


   This run was terminated on:  14:29:40  11Aug2023            

=------------------------------------------------------------------------------=
   JOB DONE.
=------------------------------------------------------------------------------=

     IMPORTANT: XC functional enforced from input :
     Exchange-correlation= PZ
                           (   1   1   0   0   0   0   0)
     Any further DFT definition will be discarded
     Please, verify this is what you really want


     G-vector sticks info
     --------------------
     sticks:   dense  smooth     PW     G-vecs:    dense   smooth      PW
     Sum        1013    1013    305                26043    26043    4313


     IMPORTANT: XC functional enforced from input :
     Exchange-correlation= PZ
                           (   1   1   0   0   0   0   0)
     Any further DFT definition will be discarded
     Please, verify this is what you really want


     G-vector sticks info
     --------------------
     sticks:   dense  smooth     PW     G-vecs:    dense   smooth      PW
     Sum        1013    1013    305                26043    26043    4313


     Calling punch_plot, plot_num =   0
     Writing data to file  tmp.pp

     Calling punch_plot, plot_num =   0

     Calling punch_plot, plot_num =   0
     Writing data to file  tmp.pp
     Writing data to file  tmp.pp

     Calling punch_plot, plot_num =   0
     Writing data to file  tmp.pp

     Calling punch_plot, plot_num =   0
     Writing data to file  tmp.pp
     Reading data from file  tmp.pp
     Reading data from file  tmp.pp
     Reading data from file  tmp.pp

     IMPORTANT: XC functional enforced from input :
     Exchange-correlation= PZ
                           (   1   1   0   0   0   0   0)
     Any further DFT definition will be discarded
     Please, verify this is what you really want


     G-vector sticks info
     --------------------
     sticks:   dense  smooth     PW     G-vecs:    dense   smooth      PW
     Sum        1013    1013    305                26043    26043    4313

     Reading data from file  tmp.pp
     Reading data from file  tmp.pp

     Writing data to be plotted to file si_0.5_6_4_Btin_hd.xsf

     Calling punch_plot, plot_num =   0
     Writing data to file  tmp.pp

     IMPORTANT: XC functional enforced from input :
     Exchange-correlation= PZ
                           (   1   1   0   0   0   0   0)
     Any further DFT definition will be discarded
     Please, verify this is what you really want


     G-vector sticks info
     --------------------
     sticks:   dense  smooth     PW     G-vecs:    dense   smooth      PW
     Sum        1013    1013    305                26043    26043    4313


     IMPORTANT: XC functional enforced from input :
     Exchange-correlation= PZ
                           (   1   1   0   0   0   0   0)
     Any further DFT definition will be discarded
     Please, verify this is what you really want


     G-vector sticks info
     --------------------
     sticks:   dense  smooth     PW     G-vecs:    dense   smooth      PW
     Sum        1013    1013    305                26043    26043    4313


     IMPORTANT: XC functional enforced from input :
     Exchange-correlation= PZ
                           (   1   1   0   0   0   0   0)
     Any further DFT definition will be discarded
     Please, verify this is what you really want


     G-vector sticks info
     --------------------
     sticks:   dense  smooth     PW     G-vecs:    dense   smooth      PW
     Sum        1013    1013    305                26043    26043    4313


     IMPORTANT: XC functional enforced from input :
     Exchange-correlation= PZ
                           (   1   1   0   0   0   0   0)
     Any further DFT definition will be discarded
     Please, verify this is what you really want

     Plot Type: 3D                     Output format: XCrySDen     

     POST-PROC    :      3.62s CPU      3.71s WALL


   This run was terminated on:  14:29:40  11Aug2023            

=------------------------------------------------------------------------------=
   JOB DONE.
=------------------------------------------------------------------------------=
     Reading data from file  tmp.pp

     G-vector sticks info
     --------------------
     sticks:   dense  smooth     PW     G-vecs:    dense   smooth      PW
     Sum        1013    1013    305                26043    26043    4313


     IMPORTANT: XC functional enforced from input :
     Exchange-correlation= PZ
                           (   1   1   0   0   0   0   0)
     Any further DFT definition will be discarded
     Please, verify this is what you really want


     G-vector sticks info
     --------------------
     sticks:   dense  smooth     PW     G-vecs:    dense   smooth      PW
     Sum        1013    1013    305                26043    26043    4313


     IMPORTANT: XC functional enforced from input :
     Exchange-correlation= PZ
                           (   1   1   0   0   0   0   0)
     Any further DFT definition will be discarded
     Please, verify this is what you really want


     G-vector sticks info
     --------------------
     sticks:   dense  smooth     PW     G-vecs:    dense   smooth      PW
     Sum        1013    1013    305                26043    26043    4313


     Calling punch_plot, plot_num =   0
     Writing data to file  tmp.pp
     Reading data from file  tmp.pp

     Calling punch_plot, plot_num =   0
     Writing data to file  tmp.pp
     Reading data from file  tmp.pp

     Writing data to be plotted to file si_0.5_6_4_Btin_hd.xsf

     Calling punch_plot, plot_num =   0
     Writing data to file  tmp.pp

     Calling punch_plot, plot_num =   0
     Writing data to file  tmp.pp
     Plot Type: 3D                     Output format: XCrySDen     

     POST-PROC    :      3.29s CPU      3.45s WALL


   This run was terminated on:  14:29:40  11Aug2023            

=------------------------------------------------------------------------------=
   JOB DONE.
=------------------------------------------------------------------------------=
     Reading data from file  tmp.pp
     Reading data from file  tmp.pp

     Writing data to be plotted to file si_0.5_6_4_Btin_hd.xsf

     Writing data to be plotted to file si_0.5_6_4_Btin_hd.xsf

     Calling punch_plot, plot_num =   0
     Writing data to file  tmp.pp
     Plot Type: 3D                     Output format: XCrySDen     

     POST-PROC    :      3.61s CPU      3.73s WALL


   This run was terminated on:  14:29:40  11Aug2023            

=------------------------------------------------------------------------------=
   JOB DONE.
=------------------------------------------------------------------------------=
     Plot Type: 3D                     Output format: XCrySDen     

     POST-PROC    :      3.54s CPU      3.67s WALL


   This run was terminated on:  14:29:40  11Aug2023            

=------------------------------------------------------------------------------=
   JOB DONE.
=------------------------------------------------------------------------------=
     Reading data from file  tmp.pp

     Calling punch_plot, plot_num =   0
     Writing data to file  tmp.pp

     Calling punch_plot, plot_num =   0
     Writing data to file  tmp.pp

     Calling punch_plot, plot_num =   0
     Writing data to file  tmp.pp

     Calling punch_plot, plot_num =   0
     Writing data to file  tmp.pp

     Calling punch_plot, plot_num =   0
     Writing data to file  tmp.pp

     Calling punch_plot, plot_num =   0
     Writing data to file  tmp.pp
     Reading data from file  tmp.pp
     Reading data from file  tmp.pp
     Reading data from file  tmp.pp
     Reading data from file  tmp.pp
     Reading data from file  tmp.pp

     Writing data to be plotted to file si_0.5_6_4_Btin_hd.xsf
     Reading data from file  tmp.pp

     Writing data to be plotted to file si_0.5_6_4_Btin_hd.xsf

     Writing data to be plotted to file si_0.5_6_4_Btin_hd.xsf

     Writing data to be plotted to file si_0.5_6_4_Btin_hd.xsf

     Writing data to be plotted to file si_0.5_6_4_Btin_hd.xsf

     Writing data to be plotted to file si_0.5_6_4_Btin_hd.xsf
     Plot Type: 3D                     Output format: XCrySDen     

     POST-PROC    :      3.52s CPU      3.64s WALL


   This run was terminated on:  14:29:40  11Aug2023            

=------------------------------------------------------------------------------=
   JOB DONE.
=------------------------------------------------------------------------------=
     Plot Type: 3D                     Output format: XCrySDen     

     POST-PROC    :      3.53s CPU      3.64s WALL


   This run was terminated on:  14:29:40  11Aug2023            

=------------------------------------------------------------------------------=
   JOB DONE.
=------------------------------------------------------------------------------=
     Plot Type: 3D                     Output format: XCrySDen     

     POST-PROC    :      3.56s CPU      3.70s WALL


   This run was terminated on:  14:29:40  11Aug2023            

=------------------------------------------------------------------------------=
   JOB DONE.
=------------------------------------------------------------------------------=
     Plot Type: 3D                     Output format: XCrySDen     

     POST-PROC    :      3.53s CPU      3.64s WALL


   This run was terminated on:  14:29:40  11Aug2023            

=------------------------------------------------------------------------------=
   JOB DONE.
=------------------------------------------------------------------------------=
     Plot Type: 3D                     Output format: XCrySDen     

     POST-PROC    :      3.55s CPU      3.64s WALL


   This run was terminated on:  14:29:40  11Aug2023            

=------------------------------------------------------------------------------=
   JOB DONE.
=------------------------------------------------------------------------------=
     Plot Type: 3D                     Output format: XCrySDen     

     POST-PROC    :      3.56s CPU      3.65s WALL


   This run was terminated on:  14:29:40  11Aug2023            

=------------------------------------------------------------------------------=
   JOB DONE.
=------------------------------------------------------------------------------=
