 CRYSTAL
 PRIMVEC
    5.229505075    0.000009666   -0.000000000
   -1.155157960    4.919984080   -0.000000000
   -0.000000000   -0.000000000    5.406821732
 PRIMCOORD
           4           1
Si       -0.111449952    1.198660172    1.826581360
Si        2.618717985    2.080149577    0.751558327
Si        0.111461455    2.928681177    4.273306410
Si        2.610792328    0.713324150    3.158059436
BEGIN_BLOCK_DATAGRID_3D
3D_PWSCF
BEGIN_DATAGRID_3D_UNKNOWN
          51          49          55
  0.000000  0.000000  0.000000
    5.229505    0.000010   -0.000000
   -1.155158    4.919984   -0.000000
   -0.000000   -0.000000    5.406822
  0.227826E-02  0.230590E-02  0.232885E-02  0.234785E-02  0.236410E-02  0.237935E-02
  0.239565E-02  0.241492E-02  0.243858E-02  0.246753E-02  0.250229E-02  0.254319E-02
  0.259042E-02  0.264390E-02  0.270307E-02  0.276682E-02  0.283349E-02  0.290099E-02
  0.296688E-02  0.302827E-02  0.308167E-02  0.312321E-02  0.314911E-02  0.315630E-02
  0.314282E-02  0.310780E-02  0.305138E-02  0.297476E-02  0.288037E-02  0.277192E-02
  0.265422E-02  0.253256E-02  0.241212E-02  0.229752E-02  0.219269E-02  0.210095E-02
  0.202510E-02  0.196712E-02  0.192794E-02  0.190726E-02  0.190373E-02  0.191542E-02
  0.194012E-02  0.197544E-02  0.201862E-02  0.206656E-02  0.211588E-02  0.216349E-02
  0.220708E-02  0.224541E-02  0.227826E-02  0.246008E-02  0.247458E-02  0.248062E-02
  0.247970E-02  0.247396E-02  0.246611E-02  0.245915E-02  0.245610E-02  0.245976E-02
  0.247254E-02  0.249633E-02  0.253249E-02  0.258179E-02  0.264442E-02  0.271994E-02
  0.280710E-02  0.290374E-02  0.300680E-02  0.311252E-02  0.321649E-02  0.331369E-02
  0.339853E-02  0.346522E-02  0.350853E-02  0.352455E-02  0.351109E-02  0.346772E-02
  0.339561E-02  0.329756E-02  0.317809E-02  0.304315E-02  0.289961E-02  0.275441E-02
  0.261393E-02  0.248371E-02  0.236836E-02  0.227153E-02  0.219576E-02  0.214225E-02
  0.211081E-02  0.210006E-02  0.210782E-02  0.213140E-02  0.216768E-02  0.221302E-02
  0.226333E-02  0.231432E-02  0.236204E-02  0.240338E-02  0.243636E-02  0.246008E-02
  0.270264E-02  0.270760E-02  0.270009E-02  0.268214E-02  0.265682E-02  0.262787E-02
  0.259934E-02  0.257541E-02  0.256024E-02  0.255767E-02  0.257096E-02  0.260254E-02
  0.265394E-02  0.272584E-02  0.281811E-02  0.292964E-02  0.305809E-02  0.319966E-02
  0.334919E-02  0.350053E-02  0.364681E-02  0.378058E-02  0.389401E-02  0.397947E-02
  0.403054E-02  0.404297E-02  0.401506E-02  0.394769E-02  0.384411E-02  0.370979E-02
  0.355212E-02  0.337982E-02  0.320195E-02  0.302711E-02  0.286287E-02  0.271554E-02
  0.259000E-02  0.248953E-02  0.241575E-02  0.236864E-02  0.234683E-02  0.234790E-02
  0.236867E-02  0.240527E-02  0.245311E-02  0.250698E-02  0.256148E-02  0.261169E-02
  0.265361E-02  0.268448E-02  0.270264E-02  0.300255E-02  0.300100E-02  0.298286E-02
  0.295041E-02  0.290745E-02  0.285884E-02  0.280988E-02  0.276609E-02  0.273298E-02
  0.271580E-02  0.271914E-02  0.274663E-02  0.280079E-02  0.288304E-02  0.299380E-02
  0.313233E-02  0.329636E-02  0.348167E-02  0.368187E-02  0.388888E-02  0.409353E-02
  0.428601E-02  0.445604E-02  0.459322E-02  0.468800E-02  0.473315E-02  0.472485E-02
  0.466318E-02  0.455180E-02  0.439748E-02  0.420955E-02  0.399911E-02  0.377796E-02
  0.355748E-02  0.334785E-02  0.315747E-02  0.299277E-02  0.285809E-02  0.275569E-02
  0.268593E-02  0.264752E-02  0.263776E-02  0.265289E-02  0.268815E-02  0.273795E-02
  0.279594E-02  0.285549E-02  0.291039E-02  0.295550E-02  0.298703E-02  0.300255E-02
  0.335642E-02  0.335082E-02  0.332450E-02  0.327980E-02  0.322104E-02  0.315409E-02
  0.308570E-02  0.302290E-02  0.297265E-02  0.294161E-02  0.293578E-02  0.296015E-02
  0.301849E-02  0.311322E-02  0.324553E-02  0.341524E-02  0.362048E-02  0.385700E-02
  0.411764E-02  0.439244E-02  0.466954E-02  0.493594E-02  0.517800E-02  0.538168E-02
  0.553341E-02  0.562190E-02  0.564014E-02  0.558660E-02  0.546515E-02  0.528426E-02
  0.505587E-02  0.479432E-02  0.451505E-02  0.423321E-02  0.396245E-02  0.371395E-02
  0.349614E-02  0.331460E-02  0.317241E-02  0.307044E-02  0.300758E-02  0.298090E-02
  0.298589E-02  0.301679E-02  0.306686E-02  0.312858E-02  0.319404E-02  0.325551E-02
  0.330625E-02  0.334102E-02  0.335642E-02  0.376020E-02  0.375289E-02  0.372064E-02
  0.366586E-02  0.359320E-02  0.350942E-02  0.342268E-02  0.334169E-02  0.327505E-02
  0.323095E-02  0.321694E-02  0.323962E-02  0.330425E-02  0.341454E-02  0.357272E-02
  0.377954E-02  0.403388E-02  0.433194E-02  0.466622E-02  0.502523E-02  0.539410E-02
  0.575577E-02  0.609190E-02  0.638336E-02  0.661120E-02  0.675872E-02  0.681439E-02
  0.677405E-02  0.664138E-02  0.642674E-02  0.614542E-02  0.581594E-02  0.545858E-02
  0.509363E-02  0.473963E-02  0.441187E-02  0.412164E-02  0.387620E-02  0.367946E-02
  0.353266E-02  0.343475E-02  0.338254E-02  0.337074E-02  0.339243E-02  0.343954E-02
  0.350327E-02  0.357438E-02  0.364351E-02  0.370193E-02  0.374245E-02  0.376020E-02
  0.420874E-02  0.420237E-02  0.416672E-02  0.410428E-02  0.401997E-02  0.392120E-02
  0.381746E-02  0.371921E-02  0.363692E-02  0.358060E-02  0.355959E-02  0.358231E-02
  0.365577E-02  0.378533E-02  0.397481E-02  0.422645E-02  0.454047E-02  0.491391E-02
  0.533927E-02  0.580364E-02  0.628901E-02  0.677347E-02  0.723256E-02  0.764025E-02
  0.797026E-02  0.819870E-02  0.830790E-02  0.828979E-02  0.814712E-02  0.789216E-02
  0.754411E-02  0.712671E-02  0.666637E-02  0.619015E-02  0.572339E-02  0.528740E-02
  0.489796E-02  0.456505E-02  0.429373E-02  0.408539E-02  0.393857E-02  0.384938E-02
  0.381160E-02  0.381702E-02  0.385610E-02  0.391854E-02  0.399360E-02  0.407023E-02
  0.413755E-02  0.418600E-02  0.420874E-02  0.469635E-02  0.469394E-02  0.465796E-02
  0.459078E-02  0.449752E-02  0.438609E-02  0.426708E-02  0.415275E-02  0.405571E-02
  0.398813E-02  0.396147E-02  0.398617E-02  0.407123E-02  0.422415E-02  0.445109E-02
  0.475678E-02  0.514355E-02  0.560972E-02  0.614784E-02  0.674353E-02  0.737548E-02
  0.801639E-02  0.863439E-02  0.919457E-02  0.966096E-02  0.100000E-01  0.101857E-01
  0.102041E-01  0.100561E-01  0.975558E-02  0.932607E-02  0.879779E-02  0.820490E-02
  0.758320E-02  0.696696E-02  0.638570E-02  0.586173E-02  0.540948E-02  0.503624E-02
  0.474375E-02  0.452972E-02  0.438879E-02  0.431313E-02  0.429290E-02  0.431688E-02
  0.437308E-02  0.444903E-02  0.453175E-02  0.460813E-02  0.466607E-02  0.469635E-02
  0.521840E-02  0.522310E-02  0.519024E-02  0.512171E-02  0.502261E-02  0.490124E-02
  0.476910E-02  0.464016E-02  0.452940E-02  0.445163E-02  0.442077E-02  0.444949E-02
  0.454906E-02  0.472965E-02  0.500072E-02  0.537057E-02  0.584469E-02  0.642325E-02
  0.709902E-02  0.785619E-02  0.867007E-02  0.950760E-02  0.103284E-01  0.110865E-01
  0.117334E-01  0.122227E-01  0.125168E-01  0.125935E-01  0.124497E-01  0.121000E-01
  0.115731E-01  0.109072E-01  0.101466E-01  0.933850E-02  0.852877E-02  0.775753E-02
  0.705567E-02  0.644379E-02  0.593292E-02  0.552618E-02  0.522059E-02  0.500874E-02
  0.488017E-02  0.482254E-02  0.482245E-02  0.486597E-02  0.493858E-02  0.502511E-02
  0.510994E-02  0.517830E-02  0.521840E-02  0.577253E-02  0.578752E-02  0.576147E-02
  0.569526E-02  0.559372E-02  0.546538E-02  0.532250E-02  0.518063E-02  0.505725E-02
  0.497018E-02  0.493626E-02  0.497073E-02  0.508751E-02  0.530003E-02  0.562193E-02
  0.606619E-02  0.664242E-02  0.735353E-02  0.819324E-02  0.914490E-02  0.101808E-01
  0.112620E-01  0.123382E-01  0.133498E-01  0.142325E-01  0.149231E-01  0.153687E-01
  0.155350E-01  0.154118E-01  0.150132E-01  0.143730E-01  0.135392E-01  0.125694E-01
  0.115259E-01  0.104701E-01  0.945582E-02  0.852488E-02  0.770554E-02  0.701372E-02
  0.645497E-02  0.602647E-02  0.571885E-02  0.551833E-02  0.540890E-02  0.537400E-02
  0.539706E-02  0.546121E-02  0.554869E-02  0.564103E-02  0.572051E-02  0.577253E-02
  0.635856E-02  0.638726E-02  0.637206E-02  0.631225E-02  0.621199E-02  0.607988E-02
  0.592887E-02  0.577589E-02  0.564088E-02  0.554492E-02  0.550821E-02  0.554913E-02
  0.568480E-02  0.593265E-02  0.631127E-02  0.683912E-02  0.753089E-02  0.839338E-02
  0.942273E-02  0.106029E-01  0.119042E-01  0.132813E-01  0.146727E-01  0.160022E-01
  0.171856E-01  0.181388E-01  0.187895E-01  0.190870E-01  0.190106E-01  0.185707E-01
  0.178057E-01  0.167747E-01  0.155512E-01  0.142170E-01  0.128537E-01  0.115339E-01
  0.103140E-01  0.923195E-02  0.830933E-02  0.755454E-02  0.696543E-02  0.653127E-02
  0.623502E-02  0.605622E-02  0.597379E-02  0.596741E-02  0.601712E-02  0.610220E-02
  0.620095E-02  0.629233E-02  0.635856E-02  0.697786E-02  0.702432E-02  0.702474E-02
  0.697615E-02  0.688152E-02  0.674929E-02  0.659297E-02  0.643080E-02  0.628496E-02
  0.617980E-02  0.613929E-02  0.618560E-02  0.633988E-02  0.662435E-02  0.706330E-02
  0.768129E-02  0.849891E-02  0.952838E-02  0.107703E-01  0.122113E-01  0.138209E-01
  0.155475E-01  0.173160E-01  0.190304E-01  0.205824E-01  0.218635E-01  0.227783E-01
  0.232567E-01  0.232634E-01  0.228023E-01  0.219133E-01  0.206659E-01  0.191510E-01
  0.174725E-01  0.157372E-01  0.140422E-01  0.124646E-01  0.110565E-01  0.984707E-02
  0.884738E-02  0.805555E-02  0.745956E-02  0.703948E-02  0.677032E-02  0.662549E-02
  0.657943E-02  0.660789E-02  0.668661E-02  0.679043E-02  0.689464E-02  0.697786E-02
  0.763379E-02  0.770312E-02  0.772511E-02  0.769374E-02  0.761007E-02  0.748193E-02
  0.732330E-02  0.715363E-02  0.699723E-02  0.688157E-02  0.683460E-02  0.688297E-02
  0.705279E-02  0.737195E-02  0.787103E-02  0.858119E-02  0.952986E-02  0.107363E-01
  0.122079E-01  0.139365E-01  0.158918E-01  0.180154E-01  0.202164E-01  0.223755E-01
  0.243567E-01  0.260236E-01  0.272564E-01  0.279648E-01  0.280981E-01  0.276503E-01
  0.266589E-01  0.251993E-01  0.233767E-01  0.213169E-01  0.191542E-01  0.170164E-01
  0.150089E-01  0.132052E-01  0.116469E-01  0.103494E-01  0.931030E-02  0.851512E-02
  0.794071E-02  0.755767E-02  0.733357E-02  0.723642E-02  0.723626E-02  0.730437E-02
  0.741181E-02  0.753010E-02  0.763379E-02  0.833367E-02  0.843247E-02  0.848353E-02
  0.847685E-02  0.841063E-02  0.829142E-02  0.813337E-02  0.795719E-02  0.778924E-02
  0.766006E-02  0.760172E-02  0.764595E-02  0.782472E-02  0.817237E-02  0.872626E-02
  0.952451E-02  0.106021E-01  0.119870E-01  0.136959E-01  0.157276E-01  0.180535E-01
  0.206072E-01  0.232802E-01  0.259260E-01  0.283765E-01  0.304652E-01  0.320486E-01
  0.330208E-01  0.333207E-01  0.329334E-01  0.318886E-01  0.302575E-01  0.281495E-01
  0.257059E-01  0.230877E-01  0.204572E-01  0.179558E-01  0.156883E-01  0.137168E-01
  0.120661E-01  0.107342E-01  0.970271E-02  0.894366E-02  0.842269E-02  0.810159E-02
  0.794148E-02  0.790557E-02  0.795952E-02  0.807006E-02  0.820471E-02  0.833367E-02
  0.908976E-02  0.922676E-02  0.931641E-02  0.934362E-02  0.930267E-02  0.919788E-02
  0.904313E-02  0.886029E-02  0.867793E-02  0.852970E-02  0.845198E-02  0.848209E-02
  0.865862E-02  0.902308E-02  0.961998E-02  0.104945E-01  0.116897E-01  0.132432E-01
  0.151830E-01  0.175170E-01  0.202187E-01  0.232139E-01  0.263737E-01  0.295204E-01
  0.324490E-01  0.349592E-01  0.368870E-01  0.381221E-01  0.386077E-01  0.383295E-01
  0.373066E-01  0.355911E-01  0.332758E-01  0.305001E-01  0.274444E-01  0.243068E-01
  0.212725E-01  0.184874E-01  0.160452E-01  0.139884E-01  0.123197E-01  0.110171E-01
  0.100456E-01  0.936468E-02  0.892997E-02  0.869598E-02  0.861870E-02  0.865714E-02
  0.877275E-02  0.892848E-02  0.908976E-02  0.991721E-02  0.101040E-01  0.102443E-01
  0.103167E-01  0.103106E-01  0.102268E-01  0.100782E-01  0.988772E-02  0.968623E-02
  0.951073E-02  0.940208E-02  0.940354E-02  0.956096E-02  0.992365E-02  0.105437E-01
  0.114735E-01  0.127638E-01  0.144628E-01  0.166101E-01  0.192241E-01  0.222822E-01
  0.257024E-01  0.293340E-01  0.329638E-01  0.363429E-01  0.392321E-01  0.414502E-01
  0.428981E-01  0.435478E-01  0.434079E-01  0.424935E-01  0.408224E-01  0.384401E-01
  0.354531E-01  0.320410E-01  0.284343E-01  0.248687E-01  0.215423E-01  0.185916E-01
  0.160873E-01  0.140446E-01  0.124408E-01  0.112340E-01  0.103754E-01  0.981398E-02
  0.949801E-02  0.937663E-02  0.940166E-02  0.952809E-02  0.971329E-02  0.991721E-02
  0.108292E-01  0.110808E-01  0.112867E-01  0.114186E-01  0.114593E-01  0.114049E-01
  0.112665E-01  0.110673E-01  0.108410E-01  0.106279E-01  0.104736E-01  0.104275E-01
  0.105430E-01  0.108777E-01  0.114918E-01  0.124449E-01  0.137957E-01  0.156017E-01
  0.179147E-01  0.207639E-01  0.241320E-01  0.279311E-01  0.319891E-01  0.360541E-01
  0.398260E-01  0.430198E-01  0.454371E-01  0.470044E-01  0.477505E-01  0.477383E-01
  0.469985E-01  0.455109E-01  0.432444E-01  0.402300E-01  0.366116E-01  0.326363E-01
  0.285929E-01  0.247430E-01  0.212779E-01  0.183073E-01  0.158680E-01  0.139429E-01
  0.124854E-01  0.114380E-01  0.107425E-01  0.103411E-01  0.101768E-01  0.101944E-01
  0.103415E-01  0.105686E-01  0.108292E-01  0.118318E-01  0.121667E-01  0.124570E-01
  0.126662E-01  0.127690E-01  0.127555E-01  0.126332E-01  0.124255E-01  0.121683E-01
  0.119062E-01  0.116895E-01  0.115735E-01  0.116193E-01  0.118931E-01  0.124633E-01
  0.133972E-01  0.147608E-01  0.166205E-01  0.190386E-01  0.220559E-01  0.256617E-01
  0.297655E-01  0.341777E-01  0.386086E-01  0.427035E-01  0.461239E-01  0.486485E-01
  0.502340E-01  0.509844E-01  0.510465E-01  0.504963E-01  0.492903E-01  0.473096E-01
  0.444735E-01  0.408453E-01  0.366572E-01  0.322427E-01  0.279336E-01  0.239875E-01
  0.205629E-01  0.177270E-01  0.154762E-01  0.137638E-01  0.125259E-01  0.116966E-01
  0.112125E-01  0.110113E-01  0.110311E-01  0.112121E-01  0.114969E-01  0.118318E-01
  0.129210E-01  0.133612E-01  0.137585E-01  0.140668E-01  0.142514E-01  0.142940E-01
  0.141969E-01  0.139826E-01  0.136893E-01  0.133661E-01  0.130686E-01  0.128583E-01
  0.128035E-01  0.129787E-01  0.134607E-01  0.143245E-01  0.156427E-01  0.174891E-01
  0.199356E-01  0.230335E-01  0.267816E-01  0.310918E-01  0.357643E-01  0.404803E-01
  0.448353E-01  0.484334E-01  0.510193E-01  0.525672E-01  0.532537E-01  0.533215E-01
  0.529190E-01  0.520103E-01  0.504064E-01  0.479052E-01  0.444543E-01  0.402314E-01
  0.355896E-01  0.309265E-01  0.265715E-01  0.227398E-01  0.195355E-01  0.169757E-01
  0.150201E-01  0.136016E-01  0.126484E-01  0.120916E-01  0.118644E-01  0.118996E-01
  0.121302E-01  0.124913E-01  0.129210E-01  0.140811E-01  0.146515E-01  0.151820E-01
  0.156155E-01  0.159058E-01  0.160240E-01  0.159649E-01  0.157484E-01  0.154150E-01
  0.150186E-01  0.146211E-01  0.142907E-01  0.141028E-01  0.141398E-01  0.144865E-01
  0.152247E-01  0.164330E-01  0.181905E-01  0.205763E-01  0.236519E-01  0.274276E-01
  0.318248E-01  0.366453E-01  0.415576E-01  0.461236E-01  0.498959E-01  0.525714E-01
  0.541133E-01  0.547404E-01  0.547771E-01  0.544539E-01  0.537756E-01  0.525250E-01
  0.504047E-01  0.472431E-01  0.431328E-01  0.384125E-01  0.335245E-01  0.288639E-01
  0.247037E-01  0.211885E-01  0.183605E-01  0.161914E-01  0.146161E-01  0.135592E-01
  0.129475E-01  0.127107E-01  0.127777E-01  0.130759E-01  0.135336E-01  0.140811E-01
  0.152828E-01  0.160105E-01  0.167027E-01  0.172902E-01  0.177134E-01  0.179305E-01
  0.179264E-01  0.177162E-01  0.173415E-01  0.168614E-01  0.163451E-01  0.158684E-01
  0.155146E-01  0.153737E-01  0.155379E-01  0.160954E-01  0.171286E-01  0.187194E-01
  0.209508E-01  0.238926E-01  0.275687E-01  0.319168E-01  0.367547E-01  0.417605E-01
  0.464893E-01  0.504603E-01  0.533164E-01  0.549727E-01  0.556386E-01  0.556771E-01
  0.553867E-01  0.548332E-01  0.538185E-01  0.520046E-01  0.491330E-01  0.452088E-01
  0.405278E-01  0.355451E-01  0.307007E-01  0.263158E-01  0.225730E-01  0.195407E-01
  0.172065E-01  0.155117E-01  0.143811E-01  0.137394E-01  0.135141E-01  0.136321E-01
  0.140174E-01  0.145933E-01  0.152828E-01  0.164816E-01  0.173927E-01  0.182750E-01
  0.190457E-01  0.196303E-01  0.199723E-01  0.200441E-01  0.198537E-01  0.194417E-01
  0.188719E-01  0.182213E-01  0.175747E-01  0.170241E-01  0.166679E-01  0.166054E-01
  0.169303E-01  0.177276E-01  0.190788E-01  0.210665E-01  0.237654E-01  0.272126E-01
  0.313674E-01  0.360763E-01  0.410494E-01  0.458668E-01  0.500449E-01  0.531806E-01
  0.551129E-01  0.559835E-01  0.561324E-01  0.558869E-01  0.553725E-01  0.544468E-01
  0.527917E-01  0.501198E-01  0.463765E-01  0.418050E-01  0.368414E-01  0.319402E-01
  0.274505E-01  0.235832E-01  0.204294E-01  0.179939E-01  0.162284E-01  0.150617E-01
  0.144195E-01  0.142298E-01  0.144193E-01  0.149116E-01  0.156265E-01  0.164816E-01
  0.176167E-01  0.187331E-01  0.198294E-01  0.208089E-01  0.215816E-01  0.220749E-01
  0.222470E-01  0.220957E-01  0.216580E-01  0.210008E-01  0.202082E-01  0.193749E-01
  0.186028E-01  0.179993E-01  0.176716E-01  0.177187E-01  0.182275E-01  0.192768E-01
  0.209447E-01  0.233055E-01  0.264063E-01  0.302294E-01  0.346572E-01  0.394481E-01
  0.442340E-01  0.485637E-01  0.520148E-01  0.543460E-01  0.555884E-01  0.559955E-01
  0.558686E-01  0.553688E-01  0.544247E-01  0.527861E-01  0.501977E-01  0.465898E-01
  0.421628E-01  0.373137E-01  0.324794E-01  0.280118E-01  0.241342E-01  0.209541E-01
  0.184917E-01  0.167115E-01  0.155505E-01  0.149392E-01  0.148089E-01  0.150893E-01
  0.157054E-01  0.165767E-01  0.176167E-01  0.186142E-01  0.199487E-01  0.212745E-01
  0.224809E-01  0.234625E-01  0.241308E-01  0.244285E-01  0.243409E-01  0.238981E-01
  0.231668E-01  0.222367E-01  0.212119E-01  0.202049E-01  0.193330E-01  0.187116E-01
  0.184459E-01  0.186251E-01  0.193250E-01  0.206161E-01  0.225670E-01  0.252288E-01
  0.286034E-01  0.326099E-01  0.370605E-01  0.416539E-01  0.459992E-01  0.496908E-01
  0.524307E-01  0.541313E-01  0.549175E-01  0.550106E-01  0.545677E-01  0.535795E-01
  0.518873E-01  0.493119E-01  0.458110E-01  0.415616E-01  0.369139E-01  0.322644E-01
  0.279442E-01  0.241731E-01  0.210656E-01  0.186548E-01  0.169185E-01  0.158054E-01
  0.152549E-01  0.152049E-01  0.155906E-01  0.163414E-01  0.173788E-01  0.186142E-01
  0.193953E-01  0.209476E-01  0.225058E-01  0.239458E-01  0.251476E-01  0.260080E-01
  0.264542E-01  0.264575E-01  0.260378E-01  0.252575E-01  0.242089E-01  0.230035E-01
  0.217642E-01  0.206184E-01  0.196902E-01  0.190916E-01  0.189153E-01  0.192353E-01
  0.201147E-01  0.216121E-01  0.237759E-01  0.266205E-01  0.300958E-01  0.340646E-01
  0.382934E-01  0.424638E-01  0.462176E-01  0.492402E-01  0.513527E-01  0.525477E-01
  0.529345E-01  0.526265E-01  0.516492E-01  0.499314E-01  0.473854E-01  0.440202E-01
  0.400069E-01  0.356505E-01  0.312962E-01  0.272394E-01  0.236840E-01  0.207436E-01
  0.184596E-01  0.168234E-01  0.157977E-01  0.153337E-01  0.153791E-01  0.158772E-01
  0.167643E-01  0.179662E-01  0.193953E-01  0.198861E-01  0.216409E-01  0.234195E-01
  0.250860E-01  0.265074E-01  0.275669E-01  0.281779E-01  0.282973E-01  0.279324E-01
  0.271373E-01  0.260026E-01  0.246442E-01  0.231935E-01  0.217877E-01  0.205595E-01
  0.196273E-01  0.190887E-01  0.190181E-01  0.194731E-01  0.205019E-01  0.221446E-01
  0.244190E-01  0.272969E-01  0.306823E-01  0.344009E-01  0.382049E-01  0.417974E-01
  0.448845E-01  0.472417E-01  0.487614E-01  0.494439E-01  0.493359E-01  0.484658E-01
  0.468235E-01  0.444007E-01  0.412582E-01  0.375681E-01  0.335958E-01  0.296346E-01
  0.259394E-01  0.226919E-01  0.199990E-01  0.179071E-01  0.164197E-01  0.155145E-01
  0.151566E-01  0.153054E-01  0.159142E-01  0.169281E-01  0.182801E-01  0.198861E-01
  0.200288E-01  0.219547E-01  0.239262E-01  0.257980E-01  0.274253E-01  0.286791E-01
  0.294613E-01  0.297155E-01  0.294352E-01  0.286633E-01  0.274844E-01  0.260147E-01
  0.243913E-01  0.227592E-01  0.212589E-01  0.200151E-01  0.191296E-01  0.186796E-01
  0.187200E-01  0.192910E-01  0.204219E-01  0.221269E-01  0.243890E-01  0.271420E-01
  0.302586E-01  0.335513E-01  0.367847E-01  0.397059E-01  0.420877E-01  0.437697E-01
  0.446731E-01  0.447804E-01  0.441007E-01  0.426520E-01  0.404751E-01  0.376656E-01
  0.343930E-01  0.308874E-01  0.273956E-01  0.241342E-01  0.212615E-01  0.188755E-01
  0.170247E-01  0.157227E-01  0.149616E-01  0.147212E-01  0.149733E-01  0.156820E-01
  0.168026E-01  0.182771E-01  0.200288E-01  0.197903E-01  0.218415E-01  0.239632E-01
  0.260047E-01  0.278112E-01  0.292433E-01  0.301922E-01  0.305904E-01  0.304184E-01
  0.297063E-01  0.285291E-01  0.269991E-01  0.252551E-01  0.234477E-01  0.217233E-01
  0.202115E-01  0.190180E-01  0.182224E-01  0.178798E-01  0.180257E-01  0.186807E-01
  0.198513E-01  0.215231E-01  0.236477E-01  0.261331E-01  0.288394E-01  0.315857E-01
  0.341660E-01  0.363761E-01  0.380438E-01  0.390507E-01  0.393346E-01  0.388793E-01
  0.377052E-01  0.358710E-01  0.334830E-01  0.306991E-01  0.277158E-01  0.247393E-01
  0.219522E-01  0.194919E-01  0.174465E-01  0.158650E-01  0.147692E-01  0.141640E-01
  0.140430E-01  0.143900E-01  0.151799E-01  0.163780E-01  0.179372E-01  0.197903E-01
  0.191680E-01  0.212870E-01  0.235026E-01  0.256642E-01  0.276108E-01  0.291938E-01
  0.302951E-01  0.308373E-01  0.307895E-01  0.301687E-01  0.290384E-01  0.275032E-01
  0.256996E-01  0.237801E-01  0.218947E-01  0.201765E-01  0.187335E-01  0.176468E-01
  0.169726E-01  0.167446E-01  0.169783E-01  0.176737E-01  0.188136E-01  0.203586E-01
  0.222393E-01  0.243526E-01  0.265623E-01  0.287072E-01  0.306170E-01  0.321326E-01
  0.331270E-01  0.335174E-01  0.332682E-01  0.323899E-01  0.309375E-01  0.290092E-01
  0.267415E-01  0.242977E-01  0.218473E-01  0.195430E-01  0.175028E-01  0.158060E-01
  0.145008E-01  0.136153E-01  0.131651E-01  0.131553E-01  0.135810E-01  0.144267E-01
  0.156674E-01  0.172664E-01  0.191680E-01  0.181911E-01  0.203140E-01  0.225570E-01
  0.247766E-01  0.268115E-01  0.285072E-01  0.297374E-01  0.304154E-01  0.304999E-01
  0.299955E-01  0.289533E-01  0.274680E-01  0.256693E-01  0.237074E-01  0.217331E-01
  0.198812E-01  0.182605E-01  0.169526E-01  0.160135E-01  0.154768E-01  0.153563E-01
  0.156487E-01  0.163344E-01  0.173770E-01  0.187206E-01  0.202872E-01  0.219756E-01
  0.236639E-01  0.252168E-01  0.265001E-01  0.273964E-01  0.278204E-01  0.277271E-01
  0.271156E-01  0.260276E-01  0.245430E-01  0.227723E-01  0.208454E-01  0.188982E-01
  0.170554E-01  0.154172E-01  0.140546E-01  0.130146E-01  0.123293E-01  0.120218E-01
  0.121068E-01  0.125885E-01  0.134603E-01  0.147058E-01  0.162975E-01  0.181911E-01
  0.169172E-01  0.189803E-01  0.211808E-01  0.233884E-01  0.254491E-01  0.272083E-01
  0.285338E-01  0.293309E-01  0.295479E-01  0.291778E-01  0.282590E-01  0.268742E-01
  0.251435E-01  0.232103E-01  0.212221E-01  0.193128E-01  0.175917E-01  0.161395E-01
  0.150113E-01  0.142400E-01  0.138394E-01  0.138064E-01  0.141216E-01  0.147507E-01
  0.156454E-01  0.167439E-01  0.179699E-01  0.192326E-01  0.204291E-01  0.214522E-01
  0.222029E-01  0.226038E-01  0.226089E-01  0.222090E-01  0.214315E-01  0.203358E-01
  0.190059E-01  0.175409E-01  0.160456E-01  0.146194E-01  0.133455E-01  0.122866E-01
  0.114875E-01  0.109822E-01  0.107979E-01  0.109556E-01  0.114671E-01  0.123338E-01
  0.135466E-01  0.150861E-01  0.169172E-01  0.154242E-01  0.173710E-01  0.194640E-01
  0.215900E-01  0.236093E-01  0.253741E-01  0.267516E-01  0.276409E-01  0.279811E-01
  0.277536E-01  0.269842E-01  0.257426E-01  0.241364E-01  0.222984E-01  0.203683E-01
  0.184764E-01  0.167303E-01  0.152102E-01  0.139697E-01  0.130404E-01  0.124364E-01
  0.121560E-01  0.121826E-01  0.124857E-01  0.130229E-01  0.137429E-01  0.145862E-01
  0.154847E-01  0.163616E-01  0.171349E-01  0.177260E-01  0.180699E-01  0.181248E-01
  0.178773E-01  0.173427E-01  0.165623E-01  0.155965E-01  0.145182E-01  0.134056E-01
  0.123354E-01  0.113753E-01  0.105796E-01  0.998970E-02  0.963851E-02  0.955435E-02
  0.976131E-02  0.102767E-01  0.111087E-01  0.122550E-01  0.137026E-01  0.154242E-01
  0.137999E-01  0.155865E-01  0.175192E-01  0.195034E-01  0.214179E-01  0.231284E-01
  0.245077E-01  0.254528E-01  0.258955E-01  0.258070E-01  0.252005E-01  0.241323E-01
  0.226955E-01  0.210091E-01  0.192012E-01  0.173942E-01  0.156921E-01  0.141739E-01
  0.128922E-01  0.118778E-01  0.111443E-01  0.106916E-01  0.105065E-01  0.105635E-01
  0.108269E-01  0.112536E-01  0.117958E-01  0.124013E-01  0.130128E-01  0.135690E-01
  0.140097E-01  0.142833E-01  0.143545E-01  0.142083E-01  0.138518E-01  0.133116E-01
  0.126294E-01  0.118570E-01  0.110515E-01  0.102709E-01  0.956908E-02  0.899182E-02
  0.857574E-02  0.835074E-02  0.834334E-02  0.857785E-02  0.907474E-02  0.984745E-02
  0.108998E-01  0.122244E-01  0.137999E-01  0.121312E-01  0.137284E-01  0.154648E-01
  0.172630E-01  0.190215E-01  0.206240E-01  0.219546E-01  0.229135E-01  0.234286E-01
  0.234630E-01  0.230188E-01  0.221386E-01  0.209006E-01  0.194074E-01  0.177723E-01
  0.161063E-01  0.145068E-01  0.130501E-01  0.117883E-01  0.107521E-01  0.995516E-02
  0.939827E-02  0.907119E-02  0.895337E-02  0.901558E-02  0.922268E-02  0.953627E-02
  0.991572E-02  0.103179E-01  0.106973E-01  0.110087E-01  0.112126E-01  0.112801E-01
  0.111970E-01  0.109646E-01  0.105990E-01  0.101278E-01  0.958703E-02  0.901777E-02
  0.846325E-02  0.796551E-02  0.756201E-02  0.728386E-02  0.715685E-02  0.720409E-02
  0.744807E-02  0.790991E-02  0.860639E-02  0.954607E-02  0.107264E-01  0.121312E-01
  0.104961E-01  0.118891E-01  0.134100E-01  0.149960E-01  0.165645E-01  0.180183E-01
  0.192567E-01  0.201880E-01  0.207409E-01  0.208732E-01  0.205780E-01  0.198854E-01
  0.188582E-01  0.175819E-01  0.161531E-01  0.146688E-01  0.132168E-01  0.118687E-01
  0.106756E-01  0.966848E-02  0.886199E-02  0.825812E-02  0.784880E-02  0.761739E-02
  0.754042E-02  0.758987E-02  0.773542E-02  0.794567E-02  0.818811E-02  0.842910E-02
  0.863524E-02  0.877651E-02  0.883008E-02  0.878310E-02  0.863371E-02  0.839061E-02
  0.807148E-02  0.770081E-02  0.730777E-02  0.692416E-02  0.658204E-02  0.631109E-02
  0.613692E-02  0.608111E-02  0.616319E-02  0.640267E-02  0.681933E-02  0.743082E-02
  0.824859E-02  0.927408E-02  0.104961E-01  0.895751E-02  0.101441E-01  0.114449E-01
  0.128095E-01  0.141713E-01  0.154517E-01  0.165665E-01  0.174358E-01  0.179930E-01
  0.181946E-01  0.180268E-01  0.175089E-01  0.166889E-01  0.156355E-01  0.144281E-01
  0.131484E-01  0.118728E-01  0.106663E-01  0.957736E-02  0.863732E-02  0.786199E-02
  0.725502E-02  0.681048E-02  0.651499E-02  0.634974E-02  0.629267E-02  0.632020E-02
  0.640831E-02  0.653267E-02  0.666862E-02  0.679173E-02  0.687968E-02  0.691470E-02
  0.688569E-02  0.678924E-02  0.662946E-02  0.641710E-02  0.616833E-02  0.590348E-02
  0.564547E-02  0.541811E-02  0.524420E-02  0.514423E-02  0.513617E-02  0.523646E-02
  0.546153E-02  0.582846E-02  0.635358E-02  0.704912E-02  0.791932E-02  0.895751E-02
  0.756058E-02  0.854898E-02  0.963676E-02  0.107839E-01  0.119377E-01  0.130353E-01
  0.140091E-01  0.147923E-01  0.153265E-01  0.155695E-01  0.155038E-01  0.151391E-01
  0.145104E-01  0.136708E-01  0.126830E-01  0.116137E-01  0.105272E-01  0.948053E-02
  0.851838E-02  0.767107E-02  0.695527E-02  0.637628E-02  0.593047E-02  0.560763E-02
  0.539311E-02  0.526978E-02  0.521949E-02  0.522390E-02  0.526478E-02  0.532410E-02
  0.538423E-02  0.542884E-02  0.544438E-02  0.542169E-02  0.535692E-02  0.525152E-02
  0.511171E-02  0.494779E-02  0.477350E-02  0.460498E-02  0.445944E-02  0.435386E-02
  0.430425E-02  0.432542E-02  0.443135E-02  0.463576E-02  0.495258E-02  0.539538E-02
  0.597534E-02  0.669806E-02  0.756058E-02  0.633287E-02  0.713881E-02  0.802907E-02
  0.897274E-02  0.992848E-02  0.108472E-01  0.116755E-01  0.123598E-01  0.128510E-01
  0.131115E-01  0.131216E-01  0.128841E-01  0.124227E-01  0.117764E-01  0.109934E-01
  0.101263E-01  0.922765E-02  0.834602E-02  0.752108E-02  0.678107E-02  0.614253E-02
  0.561190E-02  0.518771E-02  0.486290E-02  0.462681E-02  0.446672E-02  0.436893E-02
  0.431944E-02  0.430446E-02  0.431065E-02  0.432530E-02  0.433659E-02  0.433438E-02
  0.431139E-02  0.426397E-02  0.419225E-02  0.409966E-02  0.399255E-02  0.387994E-02
  0.377294E-02  0.368377E-02  0.362476E-02  0.360799E-02  0.364536E-02  0.374864E-02
  0.392928E-02  0.419831E-02  0.456616E-02  0.504181E-02  0.563086E-02  0.633287E-02
  0.528580E-02  0.593019E-02  0.664407E-02  0.740452E-02  0.818002E-02  0.893269E-02
  0.962115E-02  0.102033E-01  0.106397E-01  0.108983E-01  0.109599E-01  0.108222E-01
  0.104997E-01  0.100197E-01  0.941812E-02  0.873528E-02  0.801309E-02  0.729138E-02
  0.660411E-02  0.597644E-02  0.542393E-02  0.495348E-02  0.456537E-02  0.425543E-02
  0.401662E-02  0.384019E-02  0.371622E-02  0.363422E-02  0.358366E-02  0.355458E-02
  0.353773E-02  0.352460E-02  0.350770E-02  0.348135E-02  0.344240E-02  0.339040E-02
  0.332719E-02  0.325661E-02  0.318446E-02  0.311830E-02  0.306671E-02  0.303851E-02
  0.304250E-02  0.308776E-02  0.318379E-02  0.333999E-02  0.356511E-02  0.386689E-02
  0.425186E-02  0.472457E-02  0.528580E-02  0.441746E-02  0.492404E-02  0.548596E-02
  0.608713E-02  0.670440E-02  0.730923E-02  0.786987E-02  0.835379E-02  0.873010E-02
  0.897287E-02  0.906495E-02  0.900107E-02  0.878858E-02  0.844562E-02  0.799799E-02
  0.747611E-02  0.691237E-02  0.633834E-02  0.578177E-02  0.526403E-02  0.479904E-02
  0.439377E-02  0.404987E-02  0.376550E-02  0.353665E-02  0.335780E-02  0.322219E-02
  0.312217E-02  0.304987E-02  0.299787E-02  0.295949E-02  0.292867E-02  0.290001E-02
  0.286917E-02  0.283355E-02  0.279244E-02  0.274682E-02  0.269899E-02  0.265264E-02
  0.261282E-02  0.258554E-02  0.257703E-02  0.259351E-02  0.264152E-02  0.272823E-02
  0.286111E-02  0.304708E-02  0.329198E-02  0.360031E-02  0.397519E-02  0.441746E-02
  0.371627E-02  0.410926E-02  0.454474E-02  0.501197E-02  0.549474E-02  0.597212E-02
  0.642021E-02  0.681412E-02  0.713021E-02  0.734834E-02  0.745424E-02  0.744152E-02
  0.731269E-02  0.707872E-02  0.675744E-02  0.637121E-02  0.594450E-02  0.550141E-02
  0.506351E-02  0.464801E-02  0.426680E-02  0.392665E-02  0.363025E-02  0.337759E-02
  0.316691E-02  0.299507E-02  0.285769E-02  0.274944E-02  0.266464E-02  0.259795E-02