#     DFTpy    
  CRYSTAL 
    
  PRIMVEC    
  4.661518575704347    -2.5611291999999994e-10    4.8544356e-10    
  -2.5611291999999994e-10    4.66151857543348    2.3391018e-10    
  8.870868999999999e-10    4.2751239999999994e-10    8.539992373864951    
  PRIMCOORD    
  4    1    
  Si    2.330759287763362    2.33075928899943    2.624290547530281    
  Si    8.643056810145277e-10    -7.999033876848747e-10    1.6457056365314617    
  Si    1.3256417634111048e-10    6.04118078740996e-10    6.894286732489538    
  Si    2.3307592884621764    2.330759287228746    5.91570183189797    
  BEGIN_BLOCK_DATAGRID_3D    
  3d_datagrid_density    
  BEGIN_DATAGRID_3D#0    
  21    21    37    
  0.0    0.0    0.0    
  4.661518575704347    -2.5611291999999994e-10    4.8544356e-10    
  -2.5611291999999994e-10    4.66151857543348    2.3391018e-10    
  8.870868999999999e-10    4.2751239999999994e-10    8.539992373864951    
  0.10923601590760543    0.10349531303352591    0.08867986462179052    0.0700300202042272    0.05244361184264574    
  0.03854385756525194    0.028728609510218404    0.022375487336320568    0.018601919915898588    0.01663957186459745    
  0.016031114480544395    0.016639576605239986    0.018601921080320556    0.022375494842481705    0.028728603675931205    
  0.03854385192338208    0.05244361876585484    0.0700300198606963    0.08867986260336787    0.10349533927182963    
  0.10923601590760543    0.10349531362457476    0.09818114766622231    0.08441208835338923    0.06702038786450874    
  0.05054157389584184    0.03745489049348392    0.028158045733537796    0.022093530674011697    0.018469259675732957    
  0.016576046225884912    0.015986792226817283    0.016576047683880338    0.018469264324721735    0.02209353158041153    
  0.02815804567121062    0.03745487881650964    0.05054156766976467    0.0670203818991942    0.08441208207513608    
  0.0981811725281158    0.10349531362457476    0.08867985340994326    0.0844120960790369    0.0733103045940783    
  0.059134673149745694    0.04551206027967075    0.03451725090130736    0.02656693956455579    0.02127752041689615    
  0.018071896044600612    0.016380205166795024    0.015849865895122116    0.01638020565216239    0.018071892099460706    
  0.02127752511464513    0.026566933337921938    0.034517246030439944    0.04551204943896502    0.0591346806373477    
  0.07331029184608281    0.08441209490785992    0.08867985340994326    0.07003002410308508    0.06702038879212992    
  0.05913468149468504    0.048928998270513654    0.03888720544497976    0.030545404287213265    0.024333439579876503    
  0.020088582733676127    0.017461930813624175    0.01605811608223921    0.015612686809553343    0.01605812021520103    
  0.017461934730789618    0.020088582249031994    0.02433343696347361    0.03054539507247576    0.03888720616968814    
  0.048928995608207744    0.05913468133057587    0.06702038918123449    0.07003002410308508    0.052443611316945374    
  0.05054157229506063    0.045512053662744224    0.03888721080371186    0.032172294280581194    0.02637661267110618    
  0.021911859701667712    0.01876261840693413    0.016754750560564538    0.015654404100873813    0.01530217613104667    
  0.015654408567714422    0.01675475623861629    0.018762624663542078    0.021911854182320455    0.026376607458766552    
  0.032172285381802876    0.03888719518504642    0.04551205128852455    0.05054157419825415    0.052443611316945374    
  0.03854385226679492    0.037454884633474336    0.03451725450917955    0.030545409835082478    0.026376613032200985    
  0.02263700176966423    0.0196577235608173    0.01748413801546722    0.016039081731002262    0.015227885180245346    
  0.01496989787193597    0.015227891222844365    0.01603908490634175    0.017484143283308225    0.019657716215081403    
  0.022636993501054515    0.026376615156555223    0.030545395689023626    0.03451725034256282    0.03745489081297318    
  0.03854385226679492    0.028728603527450745    0.02815803679723704    0.026566927021902564    0.024333439951286177    
  0.02191185584113855    0.019657721233554772    0.017794077856846738    0.016376103081152636    0.015388394476642277    
  0.01482601042594454    0.014649840089894315    0.014826017674291713    0.015388394725840415    0.016376109795311736    
  0.017794071495686115    0.01965771395397819    0.021911853294487513    0.02433343480039344    0.02656692944417005    
  0.02815804464498772    0.028728603527450745    0.022375479163030048    0.02209352955973254    0.02127751602672374    
  0.020088582400316045    0.018762619887998117    0.017484136916301407    0.01637611112697796    0.015500594564794143    
  0.01486603865828528    0.01448762464993829    0.014365823802158518    0.014487627942287628    0.014866039635610435    
  0.01550059968509081    0.016376104830080732    0.017484131939378034    0.0187626185583669    0.020088579089756708    
  0.021277517916139105    0.022093529605291276    0.022375479163030048    0.01860191646887281    0.018469258329487672    
  0.018071893151029472    0.017461934664021152    0.016754758895361953    0.016039082338322845    0.01538840065561587    
  0.014866035312677859    0.014480332740880258    0.01423183010868303    0.014145510936537592    0.014231832438013991    
  0.014480329805713047    0.014866038292573127    0.015388398192911126    0.016039075343864628    0.016754757371124796    
  0.017461930784366978    0.018071893040628218    0.018469264655901728    0.01860191646887281    0.016639570512374566    
  0.016576045291369187    0.016380198326978682    0.016058121542697614    0.015654404064407358    0.015227888443433727    
  0.0148260134045363    0.01448762265850639    0.014231827809926276    0.014067044913058803    0.014010042277445692    
  0.014067043487454736    0.014231829001924526    0.014487625729421156    0.014826009896151349    0.015227886369855202    
  0.015654408632178343    0.016058120635471504    0.016380202821618096    0.016576048941252072    0.016639570512374566    
  0.016031116988260218    0.0159867852859719    0.015849868776528053    0.015612694383531541    0.015302180147936287    
  0.014969899361844624    0.014649848310180244    0.014365825011815722    0.014145518933208173    0.014010036273026324    
  0.013963154245633267    0.014010038186364081    0.014145516041674694    0.014365829128082678    0.014649843211432772    
  0.014969898422779224    0.015302183247211842    0.015612689636219928    0.015849871366379106    0.01598679098840211    
  0.016031116988260218    0.01663957144553177    0.01657604421832127    0.016380198851998595    0.01605812092239784    
  0.01565440162123555    0.015227894508252881    0.014826012461594443    0.01448762102872564    0.01423182213840574    
  0.014067042864054486    0.014010030701303489    0.014067045593476117    0.014231827582713363    0.01448762544956617    
  0.014826011687178538    0.015227888182140747    0.01565440928906079    0.016058122221919855    0.016380207748214425    
  0.01657605047453251    0.01663957144553177    0.018601914433266045    0.018469257069302063    0.018071892609879823    
  0.017461931554683383    0.016754763980086997    0.016039081321136493    0.015388403980385334    0.01486603223007208    
  0.014480328909044656    0.014231826520706752    0.014145514978211161    0.014231830568568447    0.014480327903818627    
  0.014866037952000907    0.015388400024752835    0.0160390829564882    0.016754759469547624    0.017461933312175975    
  0.018071898157158123    0.01846926376908522    0.018601914433266045    0.022375481745226616    0.022093528435923514    
  0.02127751766155653    0.020088580274482827    0.01876261617156616    0.017484139773482035    0.016376108258982586    
  0.015500596333566118    0.014866031291011461    0.014487631114416527    0.014365819173609322    0.014487627172252293    
  0.01486603902873349    0.01550059965109195    0.016376106236990345    0.017484136097965747    0.018762622555351195    
  0.02008858230656908    0.021277519705391542    0.02209352860413499    0.022375481745226616    0.028728603000415857    
  0.028158038505750476    0.0265669286282942    0.024333440960333838    0.021911856217609157    0.019657717359685564    
  0.017794080072421718    0.0163761065387795    0.015388395590722371    0.014826014883818836    0.01464984154106624    
  0.014826013834934907    0.015388400466669842    0.016376114377050152    0.017794075347715935    0.019657715354362323    
  0.021911860060389587    0.024333435500548294    0.026566931738764447    0.02815804865661266    0.028728603000415857    
  0.03854385231682954    0.03745488369730857    0.03451724804823199    0.030545411415140358    0.02637661247890191    
  0.022637005599960684    0.019657724594360677    0.017484136544467854    0.016039080242801273    0.015227892738304966    
  0.01496990294907654    0.015227895886164475    0.016039086034469033    0.017484144092404248    0.01965772278425595    
  0.022636996975227138    0.026376621412683862    0.03054540336657857    0.03451725056168411    0.037454891226808576    
  0.03854385231682954    0.052443605766866    0.05054156733179194    0.045512048540472055    0.03888721043630667    
  0.032172289682483826    0.02637660357396005    0.021911857181868142    0.01876262080644848    0.01675475498180001    
  0.015654405867984802    0.015302178508206143    0.015654408936185783    0.016754753697228335    0.018762624892292815    
  0.02191185748151869    0.026376603485757797    0.032172293931245786    0.03888720119212748    0.04551205336435931    
  0.050541576714912766    0.052443605766866    0.07003000665596884    0.06702038603112163    0.05913468573387068    
  0.048928989113134744    0.03888720838920452    0.030545401198136014    0.024333437893715237    0.020088579633443272    
  0.017461932530981123    0.016058119618828984    0.015612688377359952    0.016058123076560304    0.01746193399006884    
  0.020088582548509305    0.024333440185168264    0.030545393963228966    0.03888721086753265    0.04892899236189792    
  0.059134692655312064    0.06702038197102438    0.07003000665596884    0.08867984018765744    0.08441210242301962    
  0.07331028721184199    0.05913466640720165    0.04551205270941023    0.034517244045465315    0.026566930288119746    
  0.02127752032582503    0.018071892662743214    0.01638020576566657    0.01584986515094141    0.016380204209337737    
  0.01807189186950968    0.02127752380148847    0.02656693127130024    0.03451724783422168    0.04551205719019526    
  0.05913468822973499    0.07331030068936167    0.0844121056566365    0.08867984018765744    0.10349531439871955    
  0.09818116064564188    0.08441207450231275    0.06702038700156572    0.0505415738974887    0.037454878968212084    
  0.028158042117794244    0.022093530941692252    0.01846926382527551    0.016576047704751594    0.01598679001579896    
  0.01657604682735921    0.018469265073079638    0.022093530520512654    0.028158039991977166    0.03745487647691488    
  0.05054157250121101    0.06702038625871591    0.08441210180012579    0.09818116921229855    0.10349531439871955    
  0.10923601590760543    0.10349531303352591    0.08867986462179052    0.0700300202042272    0.05244361184264574    
  0.03854385756525194    0.028728609510218404    0.022375487336320568    0.018601919915898588    0.01663957186459745    
  0.016031114480544395    0.016639576605239986    0.018601921080320556    0.022375494842481705    0.028728603675931205    
  0.03854385192338208    0.05244361876585484    0.0700300198606963    0.08867986260336787    0.10349533927182963    
  0.10923601590760543    0.12882686600728155    0.12168462112953611    0.10326960959543925    0.08026372620425767    
  0.05883765916373    0.042216025061430365    0.03078401424853794    0.023565340681221437    0.01933618019457141    
  0.01715887833408515    0.016493150872304543    0.017158880897477555    0.01933617965612692    0.023565344082040942    
  0.030784010277587096    0.04221601876342319    0.05883766972512081    0.08026371396869786    0.10326963552534099    
  0.12168464250501246    0.12882686600728155    0.1216846163082258    0.11506186321018842    0.09798735326225541    
  0.07659088156832425    0.056568680043640365    0.04093579448940509    0.030114880319616788    0.02323262046022695    
  0.01917776851609338    0.017080713671404783    0.0164386504004396    0.017080716624584245    0.019177766765030406    
  0.023232622555360172    0.030114873880199584    0.04093578762671338    0.056568683547047104    0.07659088322775323    
  0.09798736060807388    0.11506187503073373    0.1216846163082258    0.10326961668040835    0.09798737478215358    
  0.08429424819401843    0.06697746097171474    0.050539151391199924    0.03748527055913598    0.028275305272302927    
  0.02230572263141282    0.018730971943841053    0.016865362976638633    0.016291286377967194    0.016865362227683    
  0.018730970590307497    0.02230572681228101    0.028275306691215436    0.0374852559875361    0.0505391404809752    
  0.06697744680854045    0.08429425960431863    0.0979873559240108    0.10326961668040835    0.08026371613035425    
  0.07659088595064074    0.06697746151476036    0.054612742876298435    0.042615768543323156    0.03283320147624747    
  0.0257283739270078    0.02098570471643484    0.01808336809346262    0.016547403624431068    0.016071918062424327    
  0.016547402949752703    0.018083370220349202    0.020985708137019558    0.02572837117123777    0.03283319823208814    
  0.0426157657580579    0.05461274329784837    0.06697746356238918    0.07659089081159402    0.08026371613035425    
  0.05883766539007271    0.05656868648134906    0.05053913942728863    0.04261577551974278    0.03470841208294881    
  0.0280387917418722    0.023012381151481548    0.01953962237136183    0.017352539842522052    0.016172197371061115    
  0.015800688511545254    0.016172202424918063    0.01735254364720056    0.01953962551125202    0.023012378329663935    
  0.028038781718342943    0.03470841084249413    0.04261575890477356    0.05053914142305607    0.05656868685930328    
  0.05883766539007271    0.04221602550086465    0.04093579526582414    0.03748527117041133    0.03283321528066087    
  0.028038791718795638    0.023833639227357085    0.020541409165521822    0.018180605794441536    0.01664724314870561    
  0.015801286672725724    0.015531489071460671    0.01580128992956717    0.016647243439053286    0.018180618259261642    
  0.020541398812326528    0.02383363130870284    0.028038792351714897    0.03283320363222848    0.037485265815605906    
  0.040935802911457105    0.04221602550086465    0.030784001269367155    0.030114879931626856    0.028275296944866513    
  0.025728377859270783    0.023012379212918026    0.020541405792777724    0.018533022575517994    0.017043335241517403    
  0.016045796538861047    0.015484542675489214    0.015305459635857324    0.015484543402895515    0.01604579737089623    
  0.017043336040125975    0.01853301706163779    0.020541392499288033    0.023012377325203254    0.025728369880693245    
  0.028275297387586922    0.03011488186224201    0.030784001269367155    0.023565332843211478    0.023232617641938413    
  0.022305723576599268    0.02098570146474093    0.01953962692950077    0.018180608847753393    0.017043340586809532    
  0.016181660519537743    0.015588293796471846    0.015246258386550698    0.015135939633089613    0.0152462584781301    
  0.015588287612518197    0.016181663397299623    0.017043333242992353    0.01818059971848788    0.01953962151467192    
  0.020985699367672802    0.0223057176710958    0.023232619352006066    0.023565332843211478    0.019336172210513033    
  0.019177770005329168    0.01873096992390445    0.018083373072500707    0.017352545622166662    0.016647247672695608    
  0.016045801309109983    0.015588294141044774    0.015273340020132078    0.015087006310379097    0.015025080492612234    
  0.015087005185437907    0.01527333513456569    0.015588296160211621    0.016045795666618352    0.01664723878368924    
  0.01735254544157663    0.018083369858196637    0.018730969995267212    0.019177774874072785    0.019336172210513033    
  0.017158878714585782    0.017080707603055377    0.01686536248315558    0.016547404200709753    0.016172199365922343    
  0.015801286994573862    0.015484545114522137    0.015246253297307989    0.015087000938578465    0.01499523312209172    
  0.014965051695769706    0.014995235110746595    0.015087001082606294    0.015246256217227406    0.01548453976328375    
  0.015801281355427108    0.01617219940464003    0.016547403879509332    0.016865366725089467    0.017080711743477455    
  0.017158878714585782    0.01649315243325532    0.01643864904526572    0.01629128454200918    0.0160719292165315    
  0.015800685261172277    0.01553149790255616    0.015305465581091346    0.015135940606121742    0.015025081396637    
  0.014965051644137561    0.014945072805054341    0.014965054530017131    0.015025081618300748    0.015135950398077037    
  0.01530546109539772    0.015531486828809081    0.01580069552772409    0.01607192302163722    0.01629128667121516    
  0.016438655912391936    0.01649315243325532    0.017158879782009428    0.017080707203889073    0.016865362900604888    
  0.016547400570184802    0.01617220040587762    0.01580128428600496    0.015484542936810442    0.015246258497276344    
  0.015087004769287007    0.014995230716922573    0.01496505204308248    0.014995230428727564    0.015087005355285527    
  0.015246258255487909    0.015484544976566409    0.015801285643119833    0.01617220343892128    0.01654740558627225    
  0.016865368191645844    0.017080713990824076    0.017158879782009428    0.01933617162289392    0.019177766349655602    
  0.018730966933027244    0.018083370633074317    0.01735254561240463    0.016647244827924037    0.016045803362891537    
  0.015588294013165147    0.015273338435940333    0.015087001599721601    0.015025080318054176    0.015087003761228198    
  0.015273333053281596    0.015588295465195964    0.016045800840317512    0.016647247307649764    0.01735254551157729    
  0.018083374667746836    0.018730972076932514    0.019177773054586914    0.01933617162289392    0.023565338989278636    
  0.02323261260632427    0.022305724379412348    0.02098570159072804    0.01953962338028931    0.018180607793212483    
  0.01704333643100935    0.016181663600354394    0.015588295564821842    0.015246261671043957    0.015135941257039825    
  0.01524625959828458    0.015588301151070858    0.01618166319855697    0.017043338047523435    0.01818060693422871    
  0.01953962738092922    0.020985703806060546    0.022305726688828832    0.02323261755125453    0.023565338989278636    
  0.03078400842191063    0.030114877159800924    0.02827529147944954    0.025728375212791785    0.023012377152770176    
  0.020541403906647084    0.0185330252269138    0.017043340377544274    0.016045796783011143    0.015484542684506861    
  0.015305457671458265    0.015484543715376909    0.016045801277678025    0.01704334087958732    0.018533021131461686    
  0.020541400296582288    0.023012382026282502    0.025728374538815497    0.02827530357821317    0.030114887975686573    
  0.03078400842191063    0.04221602140758863    0.04093579044836046    0.037485269370475215    0.032833205223374407    
  0.028038796352899163    0.023833633482407194    0.020541410116547015    0.018180609137096012    0.01664724724355601    
  0.01580128730197378    0.015531492083934341    0.01580129236041383    0.01664724673568978    0.018180612507724077    
  0.020541404938591246    0.023833632498510865    0.028038801670488032    0.03283320085934932    0.037485274019400834    
  0.04093580246133522    0.04221602140758863    0.058837650174259404    0.056568682566985884    0.05053913307108681    
  0.04261576948604668    0.03470840722809034    0.02803879227314454    0.023012373526899308    0.019539620948407513    
  0.01735254111462287    0.016172201862465613    0.015800689569594396    0.016172203198836544    0.017352541298654264    
  0.01953962207802494    0.02301237879252519    0.028038785435481918    0.034708415231696446    0.04261576164924446    
  0.05053914083059359    0.056568691712943486    0.058837650174259404    0.08026371096743093    0.07659087780226355    
  0.06697745228226026    0.05461273663268284    0.04261576295996837    0.03283320003719671    0.02572837519917273    
  0.020985701092049665    0.018083368249262776    0.01654739931767199    0.016071916708555033    0.016547405443083925    
  0.018083365891434215    0.020985708825098294    0.025728373735483957    0.03283319359306721    0.0426157637993276    
  0.05461274773692723    0.06697746182058648    0.07659088960895447    0.08026371096743093    0.10326960119969333    
  0.09798737883958124    0.08429424794311663    0.06697746070055238    0.050539139508410026    0.03748526460105327    
  0.028275299251578966    0.022305719924652873    0.018730966905999152    0.0168653635900322    0.01629128712332905    
  0.016865364900209633    0.01873097123232301    0.022305723193294765    0.02827530077434615    0.03748526114459186    
  0.05053914633708808    0.06697746116747123    0.08429426352107353    0.09798737191577188    0.10326960119969333    
  0.12168461835188306    0.11506186927922676    0.09798735274649105    0.0765908761953362    0.05656868764490118    
  0.04093578587416182    0.030114877450881324    0.023232618718321732    0.019177767811153993    0.017080712926836144    
  0.01643864996446738    0.017080716455698294    0.019177770939460694    0.02323262252439522    0.030114874461652192    
  0.0409357876905241    0.056568694988903205    0.07659087846604953    0.09798737871520803    0.11506187210150905    
  0.12168461835188306    0.12882686600728155    0.12168462112953611    0.10326960959543925    0.08026372620425767    
  0.05883765916373    0.042216025061430365    0.03078401424853794    0.023565340681221437    0.01933618019457141    
  0.01715887833408515    0.016493150872304543    0.017158880897477555    0.01933617965612692    0.023565344082040942    
  0.030784010277587096    0.04221601876342319    0.05883766972512081    0.08026371396869786    0.10326963552534099    
  0.12168464250501246    0.12882686600728155    0.1948435028334457    0.18294672191170067    0.15219345406383164    
  0.11412144509919325    0.07964246914954716    0.053959862539071264    0.03718733550696107    0.027141624620551683    
  0.021498890905456303    0.018681199228972042    0.017835950696299428    0.018681201539136282    0.0214988913342927    
  0.027141630423468146    0.037187321855745636    0.05395985390077993    0.07964246745829963    0.11412144513161193    
  0.15219348702530236    0.18294676191060244    0.1948435028334457    0.18294673046973664    0.17191759425366485    
  0.1434256280810868    0.1081475807355312    0.07606979889807623    0.05201970563875343    0.0362025405514298    
  0.026674994429527345    0.021287770256212556    0.018587693217631263    0.017776285020224266    0.01858769301914236    
  0.021287767329313378    0.026674996133636664    0.03620254278428575    0.05201968606542756    0.07606981772097182    
  0.10814759088817015    0.1434256245012881    0.1719176195728543    0.18294673046973664    0.15219345295096423    
  0.14342562748162055    0.12077745533244502    0.09259484336672413    0.06665847016327327    0.04685347707681662    
  0.033570058784611695    0.02541710953949615    0.02072716290999217    0.018349234851749774    0.017633541064362178    
  0.018349238254015694    0.020727162944105697    0.025417109285250934    0.033570056509137525    0.04685346379204348    
  0.06665845951462804    0.09259483450575218    0.1207774675796242    0.14342563384729154    0.15219345295096423    
  0.11412144355870943    0.1081475985469605    0.09259483835820194    0.07295248896418674    0.05449008580552808    
  0.04002729277029798    0.030029882831752435    0.02370744822026326    0.019976189689868213    0.01805331408991327    
  0.01747091182427212    0.018053315882753912    0.01997619470791845    0.023707451624785592    0.030029883314317603    
  0.04002728921254451    0.054490090329645566    0.07295248850625878    0.0925948399523765    0.10814760074149701    
  0.11412144355870943    0.07964246316568879    0.07606980987120839    0.06665845925154207    0.054490096107220234    
  0.0427275302786041    0.03321775491122367    0.02639348455601288    0.02191438497686006    0.019207265953352665    
  0.01778805438114829    0.017355310867230172    0.017788059370034304    0.01920726831624652    0.02191439208542034    
  0.02639347587760524    0.033217751116744784    0.042727524898154665    0.05449008879364851    0.06665846071136564    
  0.07606980993880347    0.07964246316568879    0.053959869083155705    0.05201970691678504    0.04685347542076597    
  0.04002730739916072    0.033217756605711135    0.027513076208426544    0.023248293230667426    0.0203549355784028    
  0.01858251700473653    0.017645905462202884    0.017353383329620203    0.017645910851239514    0.018582521638562596    
  0.02035493957900117    0.023248281248764418    0.027513070557446423    0.03321776779174969    0.04002729366046352    
  0.046853470844014644    0.05201971383395529    0.053959869083155705    0.03718732172138282    0.03620253959345902    
  0.03357005035342791    0.03002988499140448    0.02639348546584531    0.023248282712019282    0.020841298740418644    
  0.019191240420564026    0.018194942997312422    0.01767137673087784    0.01750435270588373    0.01767137780548859    
  0.018194940888332168    0.01919124323261638    0.020841292951643914    0.02324827317352133    0.026393479796409866    
  0.030029883548383526    0.033570050986317455    0.03620254645241956    0.03718732172138282    0.02714161585266009    
  0.026674995522648508    0.02541710576379785    0.023707450335560352    0.021914389381455048    0.020354939886410423    
  0.01919124286684227    0.018435873195664386    0.01802432634889527    0.017836786334702988    0.017782095579387303    
  0.017836784756373812    0.018024324129072674    0.01843587575813399    0.01919123944776612    0.020354929696294214    
  0.02191438631900399    0.023707447098758102    0.02541710314605395    0.026674997033882205    0.02714161585266009    
  0.021498888503679824    0.021287767655032434    0.02072716730580165    0.01997619376281233    0.019207275725349634    
  0.018582520125338835    0.018194949267389175    0.018024321059481895    0.018008863809827358    0.01806845184519208    
  0.018103546893061172    0.018068453963560008    0.01800885628278399    0.018024323082917165    0.01819494484108217    
  0.01858251783743557    0.01920727271818662    0.019976196230812135    0.020727162448909122    0.02128777232436081    
  0.021498888503679824    0.018681197160292304    0.01858769340789027    0.018349233293166258    0.01805332133197173    
  0.017788056471424264    0.01764591517299239    0.01767137591282514    0.017836787443621004    0.018068444490093646    
  0.018269037122914195    0.018345310515050388    0.018269036239295055    0.018068446585545704    0.017836784693287873    
  0.017671372776672228    0.017645904835376005    0.017788058350338615    0.018053319726948385    0.018349236406739078    
  0.018587695903278703    0.018681197160292304    0.01783595788254752    0.017776278998552036    0.017633547492563892    
  0.017470919501278798    0.017355315720132946    0.017353387379801223    0.01750436184137728    0.01778210020362909    
  0.018103553610262373    0.01834530788870221    0.01843224004321249    0.018345313927015473    0.018103549549549004    
  0.01778210681600579    0.017504357814622225    0.0173533769727941    0.01735531978621132    0.017470913561369896    
  0.017633545538396394    0.017776287836578586    0.01783595788254752    0.018681196851249218    0.018587694647893633    
  0.018349231897737867    0.018053321248969544    0.017788055280130322    0.017645909191884506    0.017671373502142994    
  0.017836784467782873    0.018068446963428235    0.01826903705598332    0.018345306456549713    0.01826904585289749    
  0.018068449166700005    0.017836785161049588    0.017671376109193723    0.01764590575055889    0.017788058822835545    
  0.018053320861567898    0.018349239862682228    0.01858770022488692    0.018681196851249218    0.02149888697679735    
  0.02128776403407243    0.020727163218741473    0.019976192353166274    0.019207276834913682    0.018582518256986768    
  0.018194953703716668    0.018024320192840847    0.018008860258983427    0.01806845112559626    0.018103548132040966    
  0.018068451441097155    0.018008856275999238    0.018024325588569347    0.018194946431015307    0.018582517337008636    
  0.019207273537787277    0.01997619591350596    0.020727168496278505    0.021287772007431052    0.02149888697679735    
  0.0271416169771983    0.02667499600503845    0.025417105301840565    0.02370745282193176    0.021914384894446408    
  0.02035493720878292    0.019191241164336258    0.018435873924885056    0.018024324632571    0.017836784110220133    
  0.01778209380731611    0.017836782577372565    0.018024325523142645    0.018435877183424397    0.019191248827066062    
  0.020354936903397798    0.02191439219953244    0.023707451366110088    0.025417107086338497    0.026674996066931154    
  0.0271416169771983    0.037187330854906706    0.03620253688733047    0.03357005383153802    0.030029886721599074    
  0.026393483238664413    0.023248281389911092    0.020841302898301096    0.019191240781519306    0.018194944614084798    
  0.01767137310939976    0.017504352989179496    0.017671372192172203    0.01819494850202613    0.019191246900079718    
  0.020841295033949582    0.023248279589450735    0.026393482855492527    0.03002988523814441    0.033570060545420534    
  0.03620254414383547    0.037187330854906706    0.05395986278493395    0.05201970419524168    0.04685347604074927    
  0.04002730852188403    0.033217756141257784    0.02751308223746904    0.023248284276156182    0.0203549365284787    