#     DFTpy    
  CRYSTAL 
    
  PRIMVEC    
  3.1459509599581064    -1.7284468e-10    3.276146193103448e-10    
  -1.7284468e-10    3.145950959775304    1.5786056482758622e-10    
  5.986744103448276e-10    2.8851822068965515e-10    5.76344312916009    
  PRIMCOORD    
  4    1    
  Si    1.5729754799191165    1.5729754807533103    1.771072931091865    
  Si    5.832998930984743e-10    -5.39836276417871e-10    1.1106486315507895    
  Si    8.946449339276915e-11    4.0770530437200216e-10    4.652794494340231    
  Si    1.57297548039073    1.5729754795583164    3.9923702018227685    
  BEGIN_BLOCK_DATAGRID_3D    
  3d_datagrid_density    
  BEGIN_DATAGRID_3D#0    
  15    15    25    
  0.0    0.0    0.0    
  3.1459509599581064    -1.7284468e-10    3.276146193103448e-10    
  -1.7284468e-10    3.145950959775304    1.5786056482758622e-10    
  5.986744103448276e-10    2.8851822068965515e-10    5.76344312916009    
  0.5967730391776144    0.5556524074824989    0.45137010298965763    0.3279798885138654    0.22482037793206364    
  0.15658756445322716    0.12005577652709538    0.10878112175855842    0.12005575061824121    0.1565875690547708    
  0.22482037099280616    0.32797990486970846    0.4513701258893284    0.555652407554671    0.5967730391776144    
  0.555652375099541    0.5181151120251446    0.4233797429916457    0.31136544478039    0.2167712575370747    
  0.1532465180741096    0.11891067898678831    0.10826644191845917    0.11891070231218913    0.15324654332327417    
  0.21677122995049428    0.3113654756722878    0.4233797367397104    0.5181150925608736    0.555652375099541    
  0.4513701214290699    0.4233798000909824    0.3525872660851945    0.26816090612167903    0.19498417854644015    
  0.14409197876037383    0.11592020937015383    0.10712132721822333    0.11592020112398119    0.1440919959555181    
  0.19498416686091286    0.2681608828146503    0.35258724447390033    0.4233797746353442    0.4513701214290699    
  0.3279799263692213    0.3113655063461275    0.26816084295426135    0.21493623596133715    0.167031229815581    
  0.13216419709228738    0.11226808921197987    0.10600460309784737    0.11226807955031116    0.13216418008438935    
  0.1670312239737096    0.2149362024896321    0.2681608442431373    0.31136546826743255    0.3279799263692213    
  0.22482035920677387    0.21677127548916386    0.19498412351049463    0.1670312425337426    0.14089268370354469    
  0.12095957054788864    0.10914627540420475    0.10538318443853209    0.10914626746447936    0.12095956924004155    
  0.1408926757195129    0.1670312125525726    0.19498416045214362    0.2167712599745966    0.22482035920677387    
  0.15658757216295563    0.1532465611247641    0.14409198347494956    0.13216423851423012    0.12095958713834572    
  0.11235107265471693    0.1071586400962288    0.10547150431011433    0.1071586432587761    0.11235107998395798    
  0.1209595869326777    0.13216422418462537    0.14409197341831778    0.1532465823997198    0.15658757216295563    
  0.12005576136103599    0.11891069956547103    0.11592019696433521    0.11226808161475305    0.10914627646795878    
  0.10715860940458422    0.10612418918522905    0.10577824886719236    0.10612417415917144    0.1071586316994319    
  0.10914627291226979    0.11226810240742553    0.11592016648709973    0.11891070778287421    0.12005576136103599    
  0.1087810989905157    0.10826645531069667    0.10712129964704213    0.10600460730293136    0.10538319684500291    
  0.10547146108081738    0.10577826314308181    0.10583831128821952    0.1057782416528831    0.10547147425179629    
  0.10538318148110137    0.10600462162352357    0.10712129560658107    0.1082664558282682    0.1087810989905157    
  0.12005576739288025    0.11891069151924022    0.11592017712156073    0.1122680919962093    0.10914626459826418    
  0.10715862478481199    0.1061241718461244    0.10577825414022707    0.1061241597503195    0.1071586348596105    
  0.10914628514083718    0.11226809879837649    0.11592018510321765    0.11891070510869359    0.12005576739288025    
  0.15658757448047997    0.15324656577830725    0.14409199653708638    0.13216422432395694    0.12095960584577586    
  0.1123510691719631    0.10715865436929563    0.10547150266886172    0.10715864405417706    0.11235108239129193    
  0.12095960013480916    0.13216422251973273    0.14409198376130575    0.1532465587707236    0.15658757448047997    
  0.22482036509955264    0.21677127308549818    0.1949841324809833    0.16703123653499802    0.14089267360220617    
  0.12095959273525779    0.10914629022296507    0.1053831748801919    0.10914627881482708    0.12095955522931535    
  0.1408926540531074    0.1670312033766416    0.19498415880957523    0.21677125895525268    0.22482036509955264    
  0.3279799268795127    0.3113654815355361    0.26816081406152603    0.2149362193393325    0.16703122955936922    
  0.13216416837193953    0.11226810082157225    0.10600461901465186    0.11226808169636839    0.1321641821279543    
  0.16703124533762323    0.2149361937942034    0.2681608595974652    0.3113654466224735    0.3279799268795127    
  0.4513701496152832    0.42337979574338186    0.35258726168660465    0.268160887235064    0.19498416060750617    
  0.14409198181244873    0.11592020360268367    0.10712131515131476    0.11592021349765722    0.1440919929118497    
  0.19498415626590096    0.26816089727387815    0.3525872436582868    0.42337980708092987    0.4513701496152832    
  0.5556523429866848    0.5181151050842213    0.4233797423157593    0.3113654409056788    0.21677124922423185    
  0.15324650766155698    0.11891069576479334    0.1082664311428786    0.1189106985343307    0.1532465417705688    
  0.2167712619636151    0.3113654755795399    0.42337970942667724    0.5181150486476469    0.5556523429866848    
  0.5967730391776144    0.5556524074824989    0.45137010298965763    0.3279798885138654    0.22482037793206364    
  0.15658756445322716    0.12005577652709538    0.10878112175855842    0.12005575061824121    0.1565875690547708    
  0.22482037099280616    0.32797990486970846    0.4513701258893284    0.555652407554671    0.5967730391776144    
  0.5805264134303708    0.5484511118713982    0.45928942083361135    0.3422670779505342    0.23757554719443333    
  0.16597278140161428    0.1271997331103276    0.11520880324524194    0.12719971877467337    0.16597278392355577    
  0.23757553168969855    0.34226712610862176    0.45928941931354605    0.548451095270648    0.5805264134303708    
  0.548451034296616    0.5178783334203402    0.43435259584956026    0.3262719909944592    0.22954502812008862    
  0.16282959694340102    0.12638106134576665    0.1150527238039521    0.1263810428480195    0.16282960703455476    
  0.2295449995465932    0.3262719821795267    0.4343525856904302    0.5178783336237593    0.548451034296616    
  0.4592894223747008    0.4343526643344466    0.36799930378079987    0.2838174574558099    0.20802047709685595    
  0.15446160050269103    0.12447539869487258    0.1150146010405023    0.12447537186534159    0.1544616390377219    
  0.20802044335468556    0.2838174290125144    0.36799931468584046    0.4343526503606807    0.4592894223747008    
  0.34226709308067754    0.3262719974420143    0.2838174013344177    0.22984668277698625    0.18019383509817608    
  0.14368666725485502    0.12247309716843671    0.11565670600174487    0.1224730691298985    0.14368665191076826    
  0.18019382590818678    0.22984664294741558    0.2838174269595496    0.3262720106403822    0.34226709308067754    
  0.23757552384206618    0.22954507156076412    0.20802041887940131    0.18019382622454844    0.1537615646049408    
  0.13337356954128174    0.12103312143182615    0.11698800278575974    0.12103307368152358    0.13337358975302688    
  0.15376156853483675    0.18019381528215656    0.20802044312624263    0.2295450308967156    0.23757552384206618    
  0.16597277668625043    0.1628296260876732    0.1544616235754119    0.1436867212571817    0.13337358363636115    
  0.125313756911584    0.12039478636772201    0.1187851919346282    0.12039477582577246    0.1253137560575471    
  0.1333735808475703    0.1436867049161915    0.15446161502847158    0.1628296601700115    0.16597277668625043    
  0.12719972116259814    0.12638107580912858    0.12447536493046588    0.12247307235226641    0.12103310557515592    
  0.12039473839419591    0.12029590212105248    0.12029248797111058    0.12029588487756723    0.12039477326007988    
  0.12103308755983809    0.12247308881048324    0.12447533816032524    0.1263810787401556    0.12719972116259814    
  0.11520877604744775    0.11505271212884774    0.11501458807060011    0.11565669879691265    0.11698799304319565    
  0.11878517188281655    0.12029249034665127    0.12083172538710583    0.12029249374195208    0.11878517602756257    
  0.11698798830271678    0.11565672627817863    0.11501458355659026    0.11505271303134924    0.11520877604744775    
  0.12719971008919873    0.12638106071608585    0.12447536242699905    0.12247307691433672    0.12103308653031533    
  0.12039475084051338    0.1202959022415755    0.12029249614781827    0.12029587612436063    0.12039476590560931    
  0.12103310551089681    0.1224730796303797    0.12447534205703706    0.12638106961668027    0.12719971008919873    
  0.1659727964741251    0.16282963170588008    0.15446162436037236    0.1436867057299658    0.13337360201975698    
  0.12531371648783227    0.12039478725218604    0.1187852055110407    0.12039478416305381    0.12531374147165233    
  0.13337360092341682    0.14368669660225966    0.15446161262288635    0.16282965605578917    0.1659727964741251    
  0.23757554692566463    0.22954504579068993    0.20802041405612912    0.18019384993992055    0.15376157033600954    
  0.13337356810012158    0.12103310648047075    0.1169879705320973    0.12103310743711473    0.13337355588799457    
  0.15376154247103205    0.1801938290885151    0.20802043560960795    0.22954503497052642    0.23757554692566463    
  0.34226708720593807    0.3262719972063055    0.2838173836913171    0.22984668549913367    0.1801938476155455    
  0.14368665498198943    0.12247309445157968    0.11565671844587333    0.12247305815082216    0.14368667990695352    
  0.1801938611512717    0.22984662156803323    0.2838174047814732    0.3262720046487179    0.34226708720593807    
  0.4592894396761171    0.434352671834375    0.3679993297066178    0.2838174707027926    0.20802044485523036    
  0.154461633896697    0.12447540844429097    0.11501460208166885    0.12447538433438579    0.1544616216247399    
  0.20802043820218816    0.2838174539376028    0.36799931758900045    0.4343526630307625    0.4592894396761171    
  0.5484510914403884    0.5178783224391427    0.434352605849148    0.3262719986711873    0.22954503361585163    
  0.1628295876264254    0.12638105219411913    0.1150527002556402    0.12638104942602763    0.16282962277046978    
  0.22954504361111983    0.32627198037824334    0.43435256344052653    0.5178782691014022    0.5484510914403884    
  0.5805264134303708    0.5484511118713982    0.45928942083361135    0.3422670779505342    0.23757554719443333    
  0.16597278140161428    0.1271997331103276    0.11520880324524194    0.12719971877467337    0.16597278392355577    
  0.23757553168969855    0.34226712610862176    0.45928941931354605    0.548451095270648    0.5805264134303708    
  0.4448700136761559    0.45261388243724054    0.44132541245989376    0.3711927724903965    0.2727162790309696    
  0.19343109691669066    0.14829605275560662    0.13422219608672112    0.1482960334170418    0.19343109431093738    
  0.27271627713921076    0.37119283493271316    0.4413253893550176    0.4526138924560221    0.4448700136761559    
  0.45261384824905404    0.4545298882244    0.4327942558152408    0.35976762572189247    0.2658012126389424    
  0.19147030181277008    0.14895660777604613    0.13557519520745637    0.1489566039448395    0.1914703102973018    
  0.2658011991829642    0.3597676253997281    0.4327942289933244    0.454529963894954    0.45261384824905404    
  0.44132540530444475    0.4327942907973121    0.3957720385461777    0.3253080733126543    0.24694980513345682    
  0.18646367079603346    0.15111957864315168    0.13969314447763637    0.15111956376125688    0.18646370337655227    
  0.2469498037629021    0.3253080385843716    0.3957720365265111    0.4327942988910446    0.44132540530444475    
  0.37119280243307445    0.35976766243252206    0.3253079790933484    0.273843198194338    0.2210011878432604    
  0.17992247076924317    0.15482783302946884    0.14637516977575019    0.1548278208198903    0.17992245304225252    
  0.2210011642691357    0.27384319465675266    0.32530803791976604    0.3597676248190934    0.37119280243307445    
  0.2727162984518559    0.2658012365508911    0.2469497584194118    0.22100117720733367    0.19452637393131314    
  0.17313822892343597    0.15942792895428878    0.15465187867657693    0.1594278874565137    0.17313824234410616    
  0.19452636028821865    0.2210011603001959    0.24694979288430305    0.26580122006249135    0.2727162984518559    
  0.19343109418524684    0.19147030932255016    0.18646369594472917    0.17992252444017715    0.1731382441545431    
  0.1675074459450278    0.1639419392294091    0.16271705117548518    0.16394192667019938    0.1675074436551811    
  0.17313824020539403    0.1799225265473868    0.18646365072328863    0.19147036402461562    0.19343109418524684    
  0.14829606183597946    0.1489566076731625    0.1511195606605951    0.15482780460750664    0.15942791818499868    
  0.16394188945926813    0.1672584151052032    0.16847155187330395    0.16725841622765353    0.16394190949303064    
  0.1594279039454728    0.15482782203243586    0.15111954158400315    0.1489566074364471    0.14829606183597946    
  0.13422215617728672    0.13557518027586865    0.13969311175385873    0.14637517651401355    0.15465187831634866    
  0.1627170247628334    0.16847156217865725    0.17051163449656043    0.16847156204425381    0.16271701914164158    
  0.15465188273791475    0.14637520019972006    0.1396931126865892    0.13557519663486603    0.13422215617728672    
  0.14829602827042382    0.14895660749598025    0.151119551651137    0.15482781140539587    0.15942789384032016    
  0.1639419205198707    0.16725839177218715    0.16847156286023618    0.16725839002760806    0.16394191114864368    
  0.1594279156021203    0.15482784267322186    0.15111954357899224    0.14895661342585723    0.14829602827042382    
  0.1934311273266165    0.19147034712957942    0.18646367160674868    0.17992252627736527    0.17313826106633468    
  0.16750741827701807    0.16394195650795382    0.16271705291303584    0.16394194088956168    0.16750744540684498    
  0.17313824877249248    0.1799225159140342    0.18646369131123738    0.19147034662462425    0.1934311273266165    
  0.2727163084174145    0.2658012388482919    0.2469497737599319    0.22100119144843158    0.1945263614375787    
  0.1731382345569412    0.15942792884779805    0.1546518512674687    0.1594279183823462    0.17313820110626496    
  0.19452636674738025    0.22100116235470676    0.2469497783749243    0.2658012072253737    0.2727163084174145    
  0.3711928242771113    0.3597676559426087    0.32530798068867284    0.27384321980969734    0.22100117998732963    
  0.17992246611747845    0.15482783850670073    0.14637520788647132    0.15482780380700126    0.179922477650686    
  0.22100120000046877    0.2738431679026608    0.3253080053433024    0.3597676658733063    0.3711928242771113    
  0.44132540694079864    0.43279431672036345    0.3957720555560886    0.3253080708784969    0.2469498033279863    
  0.18646369899391796    0.1511195749071242    0.1396931447338591    0.15111958324913818    0.18646367815543957    
  0.24694980656283677    0.32530805223923326    0.39577204559469614    0.43279428726591895    0.44132540694079864    
  0.45261387294988314    0.45452991418598837    0.43279424810731154    0.35976761089698195    0.26580122564859354    
  0.19147027242026882    0.14895659621279914    0.13557517714549122    0.14895659083817697    0.19147031532803685    
  0.26580121440593574    0.3597676049798135    0.432794203409875    0.45452989268496335    0.45261387294988314    
  0.4448700136761559    0.45261388243724054    0.44132541245989376    0.3711927724903965    0.2727162790309696    
  0.19343109691669066    0.14829605275560662    0.13422219608672112    0.1482960334170418    0.19343109431093738    
  0.27271627713921076    0.37119283493271316    0.4413253893550176    0.4526138924560221    0.4448700136761559    
  0.19866144633223268    0.24497832267128353    0.34704755360860334    0.3851953482347973    0.32005381852192094    
  0.23505087628689103    0.18112591542769707    0.1639007908244209    0.1811258971323465    0.23505088991460668    
  0.3200538012425775    0.38519539417826804    0.3470475494159936    0.24497828967501709    0.19866144633223268    
  0.24497829129552315    0.2868081858739879    0.3697779634749146    0.3867663444293744    0.3174148025947368    
  0.2362414853900082    0.18511878549747632    0.16866975036039064    0.18511879816615454    0.23624151003745888    
  0.3174148066350826    0.38676635554063804    0.36977795722765167    0.2868081865105489    0.24497829129552315    
  0.34704756255388775    0.36977802758069733    0.4008781121170678    0.37792552138721874    0.3078537055735763    
  0.2393101557116287    0.19615676600151818    0.1818957878537177    0.19615674194621002    0.2393101861505975    
  0.30785368038070904    0.37792549876790915    0.4008781359156261    0.36977798952000485    0.34704756255388775    
  0.3851953794369383    0.38676639200560203    0.3779254357458482    0.34190458018483993    0.2895780192350537    
  0.24280128341472307    0.21226881660019878    0.20164790631644214    0.21226880887219246    0.24280126400922275    
  0.2895780172910178    0.34190451577191283    0.37792546813672456    0.3867663835289066    0.3851953794369383    
  0.3200538060266267    0.3174148605854658    0.30785363294604384    0.2895780218781388    0.26645975038575964    
  0.24535881401650167    0.2304660419685851    0.22491448921361673    0.23046601363334052    0.2453588153630459    
  0.26645972856973515    0.28957799122210837    0.30785365118880476    0.31741481289286105    0.3200538060266267    
  0.23505090274826235    0.23624153978822912    0.23931017987588235    0.24280133448513944    0.24535885543218025    
  0.24636584066848047    0.2460341713075661    0.24562341459976328    0.24603416375168236    0.24636585933082056    
  0.2453588421571952    0.24280131457767273    0.23931018805594945    0.23624157902352047    0.23505090274826235    
  0.1811258982193837    0.18511879105056903    0.19615673142612464    0.2122687978703383    0.23046603283045672    
  0.2460341026619446    0.2554671007358934    0.25844933728661035    0.25546710103139686    0.2460341470852008    
  0.23046601844280035    0.21226882504706737    0.19615669001156105    0.18511880213918713    0.1811258982193837    
  0.16390074891116593    0.16866975150731822    0.18189576480323025    0.20164791501294602    0.2249144805488635    
  0.2456233688792003    0.2584493686789212    0.26255214700880125    0.25844934150706234    0.24562339094563904    
  0.22491447093099792    0.20164794462498342    0.18189577452747593    0.16866976201515307    0.16390074891116593    
  0.18112590560689878    0.18511879950459018    0.19615671358369074    0.21226882131864422    0.23046600870753586    
  0.24603413267412325    0.2554670994794131    0.2584493558883577    0.25546707358310605    0.2460341588358209    
  0.2304660205953817    0.2122688372570898    0.19615668521533364    0.18511880225356023    0.18112590560689878    
  0.23505089286349376    0.23624153743244633    0.23931019388879246    0.242801337149516    0.2453588495231922    
  0.24636582474870722    0.24603417943987546    0.2456234126147852    0.24603415816618254    0.24636586971965874    
  0.24535884056910254    0.24280132307046706    0.23931018387703376    0.23624152721422123    0.23505089286349376    
  0.32005385091439803    0.31741481406235905    0.307853622292635    0.2895780139765918    0.2664597548842464    
  0.24535883786030516    0.23046603862487386    0.22491446775461582    0.23046602779179076    0.24535879811564448    
  0.2664597271522389    0.28957799602602    0.3078536634042442    0.3174148093845646    0.32005385091439803    
  0.3851953768097696    0.3867664031239882    0.3779254430199737    0.34190455227568256    0.289578003664755    
  0.2428012553952908    0.21226882516766488    0.20164793527651864    0.21226879097838755    0.2428012731020915    
  0.28957804994685693    0.34190452195750815    0.3779254599407066    0.38676635250565233    0.3851953768097696    
  0.3470475905600317    0.3697780102258436    0.4008781410100091    0.3779255127958082    0.30785367736646985    
  0.2393101928027682    0.1961567610463904    0.1818958038609207    0.19615674348476564    0.2393101884899071    
  0.3078536588511699    0.37792552261684015    0.4008781182266771    0.3697780223121942    0.3470475905600317    
  0.2449782734486591    0.28680817410426274    0.36977796148487585    0.38676634006792165    0.3174148010831222    
  0.23624146140866145    0.18511879190213243    0.16866974753408923    0.18511879540784204    0.23624149902175667    
  0.317414831719164    0.38676636230021505    0.36977793420733934    0.2868081638639496    0.2449782734486591    
  0.19866144633223268    0.24497832267128353    0.34704755360860334    0.3851953482347973    0.32005381852192094    
  0.23505087628689103    0.18112591542769707    0.1639007908244209    0.1811258971323465    0.23505088991460668    
  0.3200538012425775    0.38519539417826804    0.3470475494159936    0.24497828967501709    0.19866144633223268    
  0.06735725327169238    0.10982764764973671    0.25136957658037046    0.38421617042074746    0.36637553858517635    
  0.2813299669890519    0.21966394675488618    0.19932089394524416    0.21966393524436867    0.2813299805472272    
  0.36637554224339086    0.3842162529918464    0.25136958720276376    0.10982764162160942    0.06735725327169238    
  0.10982762425108082    0.15810049155383166    0.2961842767533843    0.40232990239959376    0.3711481277851432    
  0.2876696903739431    0.22864344101680767    0.2091473386332321    0.22864340767872168    0.28766967513094643    
  0.3711481430692272    0.40232989619778897    0.2961842620691369    0.15810050556496041    0.10982762425108082    
  0.25136961682592573    0.2961842979730751    0.3911827572864071    0.429540260253539    0.37830584713443    
  0.30446000890743513    0.25394503285025366    0.2369861389508279    0.2539450319620559    0.30446004974522956    
  0.3783058081911293    0.42954024669278357    0.39118276404490543    0.2961843110615816    0.25136961682592573    
  0.38421622038643366    0.402329936164992    0.4295402296913812    0.4208566342388713    0.37628439099389094    
  0.3264318730206795    0.2912549694033518    0.2787665182429351    0.2912549457527496    0.3264318505585337    
  0.3762844024079826    0.4208565712599454    0.429540255029801    0.4023299237652656    0.38421622038643366    
  0.36637557552766337    0.3711481905273739    0.3783057857289067    0.3762843751373907    0.3638025944491883    
  0.34658265022498275    0.33087785064649083    0.32427133060592217    0.3308777850984509    0.34658267151764566    
  0.3638025825393714    0.3762843624027596    0.378305823347628    0.3711481318530769    0.36637557552766337    
  0.2813299588698816    0.28766970490647525    0.30446004094030865    0.3264319338902833    0.3465826971252132    
  0.3570507722925123    0.3566283159688431    0.35438869704421394    0.35662830326926004    0.3570507598618872    
  0.3465826798112913    0.32643191756111406    0.30446001328994754    0.2876697348867279    0.2813299588698816    
  0.2196639555903932    0.22864340992004764    0.2539449909397838    0.2912549368461977    0.33087781439765046    
  0.3566282195709225    0.3623419524506574    0.3609740007160954    0.3623419416067447    0.3566282580292316    
  0.33087781457341325    0.2912549409382936    0.25394496094657254    0.2286434288584495    0.2196639555903932    
  0.19932084597256444    0.20914732279081874    0.2369860927827913    0.2787665380765925    0.32427132906851036    
  0.3543886662102555    0.36097403816884827    0.3592854144344265    0.3609740200380895    0.35438865676146925    
  0.32427130803591986    0.2787665792823913    0.23698607053784132    0.20914733356546836    0.19932084597256444    
  0.21966392656010705    0.22864342506077062    0.2539449843528164    0.29125492426571264    0.33087776034552296    
  0.35662826346539755    0.3623419583815623    0.3609740023748893    0.3623419195073661    0.35662828320394896    
  0.3308777993489459    0.2912549524877538    0.253944983032233    0.22864341729306026    0.21966392656010705    
  0.2813299959927974    0.2876697208262797    0.3044600383431646    0.3264319169390798    0.3465827335324141    
  0.35705071565075935    0.35662831538389195    0.3543887358640382    0.35662830812710206    0.35705073476334437    
  0.34658271886063097    0.3264319109434611    0.30446002779051123    0.28766974915509624    0.2813299959927974    
  0.36637556305618774    0.3711481720231952    0.3783057817731153    0.37628440108269173    0.36380258732948095    
  0.3465826746672483    0.33087784309588975    0.32427129659028764    0.3308778348208557    0.34658264103237174    
  0.3638025269088618    0.37628437985417956    0.3783057908517531    0.37114816121924277    0.36637556305618774    
  0.38421618231423804    0.4023299487152912    0.4295402033478427    0.4208566104695728    0.37628443009371343    
  0.32643185493106086    0.2912549889223764    0.2787665646969854    0.29125492089944094    0.3264318808599478    
  0.3762844403070047    0.4208565570267221    0.4295402313195998    0.4023299381969972    0.38421618231423804    
  0.25136959945130904    0.2961843071609324    0.3911827909260449    0.4295402718129799    0.37830582549471864    
  0.3044600330617464    0.25394505395396033    0.2369861181704052    0.25394503846669986    0.3044600193807987    
  0.3783057921526143    0.4295402656165999    0.3911827849702343    0.29618431664998424    0.25136959945130904    
  0.1098276404086228    0.1581004959869364    0.29618425820699285    0.40232987126748954    0.37114815297540066    
  0.28766965238880504    0.22864340940404018    0.20914728865910712    0.22864343034076223    0.2876696826468477    
  0.3711481444192945    0.4023299035835976    0.29618423955916817    0.15810047311104608    0.1098276404086228    
  0.06735725327169238    0.10982764764973671    0.25136957658037046    0.38421617042074746    0.36637553858517635    
  0.2813299669890519    0.21966394675488618    0.19932089394524416    0.21966393524436867    0.2813299805472272    
  0.36637554224339086    0.3842162529918464    0.25136958720276376    0.10982764162160942    0.06735725327169238    
  0.05624456360481692    0.09765530593029335    0.24669029950889082    0.40325704171395965    0.4003573633666688    
  0.3160887076020448    0.2514746325982771    0.22973371438938406    0.25147458335065936    0.316088699815049    
  0.40035736221519924    0.40325709285099676    0.24669028806520937    0.097655305692607    0.05624456360481692    
  0.09765527945869744    0.14708999037289974    0.2979702921510188    0.42932994892743825    0.41180059359768467    
  0.3283647111752234    0.26612066446928634    0.2451772813322385    0.26612066960140673    0.3283647260928919    
  0.4118006169200214    0.42932995568060867    0.2979703071558922    0.14709000925178387    0.09765527945869744    
  0.24669030584065108    0.29797034504821146    0.41363726111192195    0.47590581020777983    0.43583775771718636    
  0.36213143535510756    0.30876383070251884    0.290490710844049    0.30876379903046597    0.3621315006236284    
  0.4358377342836067    0.47590580198062354    0.4136372189847157    0.29797035919082226    0.24669030584065108    
  0.4032570818026889    0.4293300048707432    0.47590572559366867    0.4868223364455617    0.45428398716407076    
  0.4079121101740227    0.3712650239887975    0.3575279660459566    0.3712649987929565    0.40791205122461677    
  0.45428396455578307    0.48682232032416023    0.4759057817399076    0.42932999531662697    0.4032570818026889    
  0.40035736557809004    0.4118006391595873    0.4358377042770491    0.45428399532030683    0.4584318208061279    
  0.4462875525767303    0.4247390306210212    0.41364222455819544    0.4247389334151992    0.44628755028778777    
  0.45843175552201487    0.45428397109580815    0.43583771773386604    0.4118006246810295    0.40035736557809004    
  0.3160887012896619    0.32836473426314555    0.3621314901831183    0.40791216392182345    0.44628754388479935    
  0.4511107200632096    0.4241573207741385    0.4067940875440687    0.4241573060698712    0.4511107144298396    
  0.44628758920614586    0.4079121450930947    0.36213143504854167    0.3283647900550958    0.3160887012896619    
  0.25147460455022125    0.26612066637312926    0.30876379221823963    0.371264945769743    0.4247389628068978    
  0.4241572397560008    0.37578504861942624    0.3476524147900864    0.375785029202845    0.42415725773467666    
  0.42473897001735766    0.37126498416833403    0.3087637617408278    0.26612069201033745    0.25147460455022125    
  0.22973368555764914    0.24517727985182242    0.29049067377963683    0.35752799152073705    0.41364222134576706    
  0.40679404419906706    0.3476524299856694    0.3151308659110083    0.3476524230423827    0.4067940546933847    
  0.4136422464035098    0.3575280091351177    0.29049065183526823    0.2451772882958553    0.22973368555764914    
  0.2514745649419699    0.26612065774274546    0.3087637763512    0.37126497430769034    0.42473889973758955    
  0.42415725880389166    0.3757850165619613    0.3476524192468287    0.37578501727951175    0.42415727722056207    