#     DFTpy    
  CRYSTAL 
    
  PRIMVEC    
  1.6728796782890512    -2.897512597746115    0.0    
  1.6728796782890512    2.897512597746115    0.0    
  0.0    0.0    5.656144876827586    
  PRIMCOORD    
  2    1    
  Si    1.6728796782890512    0.9658375325820383    1.4140362192068965    
  Si    1.6728796782890516    -0.9658375325820383    4.242108657620689    
  BEGIN_BLOCK_DATAGRID_3D    
  3d_datagrid_density    
  BEGIN_DATAGRID_3D#0    
  15    15    25    
  0.0    0.0    0.0    
  1.6728796782890512    -2.897512597746115    0.0    
  1.6728796782890512    2.897512597746115    0.0    
  0.0    0.0    5.656144876827586    
  0.048086607373576465    0.04985262934229535    0.055005056154322725    0.06333608362242985    0.07426744282553153    
  0.08581441737078163    0.09491686095779722    0.09846402608394478    0.09491685323675482    0.08581444486956562    
  0.07426743641469624    0.06333610043905281    0.055005048740216646    0.049852636275099005    0.048086607373576465    
  0.049852622434603124    0.04985128414301087    0.05332117064714317    0.06013313348822629    0.06999511696262362    
  0.08166701255654278    0.09250251342339842    0.09925887446652544    0.0992578548006135    0.09250388093919748    
  0.08166623308140161    0.06999550059642609    0.060132979420401744    0.05332063813218014    0.049852622434603124    
  0.055005036644022356    0.053321153185400004    0.05500613542342958    0.06013139652219319    0.068658090820025    
  0.07983778395946686    0.09168243040824685    0.10105939048786818    0.10470515557114778    0.10106010667013349    
  0.09168126453162516    0.07983910533607555    0.06865717485988876    0.060132992826817847    0.055005036644022356    
  0.06333607313165257    0.06013314278452043    0.0601313968781848    0.06333775506783608    0.06999388359701478    
  0.07984033322081148    0.09157770541401782    0.10255807943104683    0.1092983086152358    0.10929899378449986    
  0.1025570081194566    0.09157966019445281    0.07983912213445854    0.06999554899949759    0.06333607313165257    
  0.07426740307698712    0.06999513010217723    0.06865808364442773    0.06999388593553331    0.0742681243503153    
  0.08166592520589872    0.09168216594484944    0.1025565018505221    0.11109800569088497    0.11431240127813584    
  0.11109777452142393    0.10255698684379098    0.09168125256440093    0.08166624574554669    0.07426740307698712    
  0.08581441030527259    0.0816670137703972    0.07983779844975317    0.07984032393914273    0.081665933669463    
  0.0858145667136475    0.09250311807082066    0.10105962257268213    0.10929988625251791    0.11431048154194905    
  0.11431236675958883    0.1092990052075006    0.101060085949712    0.09250389075140722    0.08581441030527259    
  0.09491686765689612    0.09250250657632247    0.09168242024124532    0.09157769707203682    0.09168216847389973    
  0.09250311309241431    0.09491628452867876    0.09925878080193118    0.10470420368916923    0.1092998737966973    
  0.11109798310800328    0.10929827024357142    0.10470516376975626    0.09925787170604032    0.09491686765689612    
  0.09846400500743072    0.09925888088653416    0.10105941422192082    0.1025580970995357    0.10255652540846946    
  0.1010596278692957    0.09925881160945019    0.09846434158823152    0.09925877817128158    0.10105964233397834    
  0.1025565305893708    0.10255810682918051    0.10105941776275984    0.09925888951394976    0.09846400500743072    
  0.09491683820899184    0.09925787277436923    0.10470517968105282    0.10929827892608997    0.11109798534415616    
  0.10929987362444658    0.10470422635404623    0.09925878131612553    0.09491629568581153    0.0925031220089862    
  0.09168215933318365    0.0915776813361543    0.09168241176049073    0.09250252001331814    0.09491683820899184    
  0.08581441863945412    0.09250389807828556    0.10106009521922821    0.10929899241524259    0.11431238092064451    
  0.11431047588329492    0.10929989006755376    0.1010596197423302    0.09250311640348169    0.08581459755561892    
  0.08166592567315542    0.07984029529523888    0.07983780914302546    0.0816670118922002    0.08581441863945412    
  0.07426740617927997    0.08166622445445877    0.09168126483650092    0.10255701210193388    0.11109781912277368    
  0.11431238568740876    0.11109799330267728    0.10255651458382367    0.09168215795863106    0.08166593877445215    
  0.07426812142014898    0.06999388431000454    0.06865807399285115    0.069995125241867    0.07426740617927997    
  0.06333607541938381    0.06999553813782504    0.0798391126406152    0.09157965664162286    0.10255700492617811    
  0.10929897219134212    0.10929829073417961    0.10255811583532361    0.09157771005183142    0.07984030952324822    
  0.06999387436028336    0.06333774553965321    0.060131401250515325    0.06013314348360724    0.06333607541938381    
  0.05500504352211278    0.060132983500214524    0.068657190369886    0.07983914580392933    0.09168125973763201    
  0.10106009676101951    0.10470516209533703    0.10105939907237219    0.09168241664749573    0.0798378248130944    
  0.068658084741721    0.06013137881360455    0.05500612754879198    0.05332115935964353    0.05500504352211278    
  0.04985264323240681    0.05332063161301143    0.0601329849917568    0.06999553260991859    0.0816662136915389    
  0.09250387991730484    0.09925784934779767    0.09925889674264099    0.09250247515865259    0.08166701486037982    
  0.06999512427714509    0.06013312582447167    0.05332114693558097    0.04985128254182805    0.04985264323240681    
  0.048086607373576465    0.04985262934229535    0.055005056154322725    0.06333608362242985    0.07426744282553153    
  0.08581441737078163    0.09491686095779722    0.09846402608394478    0.09491685323675482    0.08581444486956562    
  0.07426743641469624    0.06333610043905281    0.055005048740216646    0.049852636275099005    0.048086607373576465    
  0.049755172988633606    0.051691644977243004    0.057500338444414004    0.06709540758887805    0.07973751093498076    
  0.09315655470992829    0.10376073734285411    0.1078706721033121    0.10376128242629577    0.09315751680256733    
  0.07973690571229426    0.06709423613890123    0.05750077166209517    0.05169265904239277    0.049755172988633606    
  0.051692653850160704    0.05169177092599965    0.05466848292306809    0.06051016439422275    0.06893586892532404    
  0.0788528089311358    0.08804688896575324    0.09381032855246028    0.09381170047634786    0.0880453259487479    
  0.07885372868861386    0.06893530586056651    0.06051178861032617    0.05466666767354246    0.051692653850160704    
  0.0575007623813526    0.056496709252681    0.057500857392589935    0.0605112796153888    0.06547058017598957    
  0.07203333339972444    0.07900000828191028    0.0845255383342551    0.08670121574066919    0.08452581839431873    
  0.07899961482903751    0.0720339377628352    0.0654700532009806    0.06051178500802765    0.0575007623813526    
  0.06709421282677187    0.06630697271119937    0.0663060680062479    0.06709438615934704    0.06893483472113036    
  0.0720341580891602    0.07614974440539164    0.08019379939997626    0.08275118256307931    0.08275125779762112    
  0.08019344375683779    0.07615097569386148    0.07203395509698968    0.06893533158130104    0.06709421282677187    
  0.07973688634303688    0.08086693310960144    0.08138265956675333    0.08086752874591197    0.07973669255291153    
  0.07885329731257358    0.07900072030624103    0.08019334201028475    0.08155730294418415    0.08214637664180169    
  0.08155764494410661    0.08019347930511174    0.07899965220896799    0.07885373521838779    0.07973688634303688    
  0.09315751130617156    0.09838702913918598    0.10168428968711637    0.10168338694146875    0.09838822933517617    
  0.09315625127489843    0.08804623053247959    0.08452373283006272    0.08275221453385939    0.0821452787093354    
  0.08214637190680753    0.08275126511188739    0.08452577553200061    0.08804531026741595    0.09315751130617156    
  0.1037612707007576    0.11487195640986365    0.12374541682614083    0.1270983960947464    0.12374325221272993    
  0.11487284117272109    0.10376141240347019    0.09381137962359941    0.0867017257925196    0.08275221006852365    
  0.08155730583799109    0.08275116745509482    0.08670121736972583    0.09381169018740827    0.1037612707007576    
  0.10787063815873649    0.1250401902243071    0.1413728954367267    0.15134555591104293    0.15134676897771238    
  0.1413757045419929    0.1250388907821062    0.1078709059358383    0.09381140839011763    0.08452376256274126    
  0.08019336219111589    0.08019379774995612    0.08452556322197066    0.09381034295862252    0.10787063815873649    
  0.10376073794189428    0.12503917821405727    0.1481262775682647    0.1663171027325613    0.1731669347149101    
  0.16631629248148833    0.14812671493031132    0.12503885085043953    0.10376144619212699    0.08804622163048136    
  0.07900073215122785    0.0761497221237943    0.07899995896144481    0.08804690670611823    0.10376073794189428    
  0.09315655346516873    0.11487383439746664    0.14137372517293226    0.16631614411820297    0.18140851558770466    
  0.18140536605171523    0.16631625598967387    0.14137572508152402    0.11487284525675746    0.0931562671754531    
  0.07885327644953764    0.07203415280918486    0.07203334289276775    0.07885283232010838    0.09315655346516873    
  0.07973747473383229    0.09838663760579837    0.12374494400482992    0.15134675066305492    0.17316514158970614    
  0.18140852077197098    0.17316696133451231    0.15134670801183916    0.12374329592732289    0.09838823415893994    
  0.07973670552310311    0.06893481913211445    0.06547056236321015    0.06893587961043539    0.07973747473383229    
  0.06709540768875623    0.08086643913182182    0.1016850771556988    0.12709644314805182    0.1513467822505289    
  0.16631611515600275    0.16631712958537032    0.15134556793310153    0.1270983808098005    0.10168340778534579    
  0.08086753748111945    0.06709438323833532    0.060511280204688773    0.060510178849448225    0.06709540768875623    
  0.05750032372107345    0.06630589871526257    0.0813836883515809    0.10168511479845167    0.12374495605830743    
  0.14137375999943763    0.14812626096100778    0.14137287537931828    0.12374540915286095    0.10168431234392575    
  0.08138266243486923    0.06630606564550044    0.05750085622208387    0.05466848680871769    0.05750032372107345    
  0.051691665786246496    0.05649859185967987    0.06630590291773136    0.08086640597034708    0.09838661648742136    
  0.11487383753832286    0.12503916069347099    0.12504020479388975    0.11487195429737106    0.09838705762899935    
  0.0808669245348427    0.06630695181062701    0.05649671381053024    0.05169177066358384    0.051691665786246496    
  0.049755172988633606    0.051691644977243004    0.057500338444414004    0.06709540758887805    0.07973751093498076    
  0.09315655470992829    0.10376073734285411    0.1078706721033121    0.10376128242629577    0.09315751680256733    
  0.07973690571229426    0.06709423613890123    0.05750077166209517    0.05169265904239277    0.049755172988633606    
  0.05439475736225465    0.0569193563998507    0.06475377665209418    0.07807924855571916    0.09588756817640341    
  0.11512543047504495    0.13048527614394997    0.13638957829716092    0.1304861564938092    0.11512541100483481    
  0.0958869195805633    0.0780788940118414    0.06475426420058332    0.056919609552104844    0.05439475736225465    
  0.05691959825465272    0.056920839228225266    0.06010428632088562    0.06662119198866231    0.07617624345830655    
  0.0875076838590208    0.09807434051315063    0.10460162888338337    0.10460201692905714    0.09807313064161335    
  0.08750801864746205    0.07617636944400441    0.06662127487396828    0.06010484904650061    0.05691959825465272    
  0.06475424973404145    0.06416986066376082    0.06475355541995036    0.0666225089898021    0.06993131704664399    
  0.0746241274959079    0.07985308211374723    0.08405296894139516    0.08569102681182406    0.0840526842306715    
  0.07985405419081361    0.07462411450379486    0.06993180511005147    0.06662127030625617    0.06475424973404145    
  0.07807886301523408    0.07937073899923845    0.07937086617959188    0.0780777206066093    0.07617632865991442    
  0.07462405816566038    0.07408248825568078    0.07435924072500638    0.0748115565659597    0.07481250132306579    
  0.07435880186797185    0.07408270328883063    0.0746241267541324    0.07617641154330747    0.07807886301523408    
  0.0958868833447584    0.10257704976670654    0.10516313841392592    0.10257916646512634    0.09588571590509291    
  0.0875078287782911    0.07985422077285369    0.07435898954140822    0.07134105260970397    0.07043880389906448    
  0.07134141799093296    0.07435878017875824    0.07985407837960558    0.08750802615913499    0.0958868833447584    
  0.1151254027713375    0.1312497542611675    0.14118432830424446    0.14118124854440003    0.1312521841787125    
  0.11512570011895278    0.09807291805933765    0.0840517376031139    0.0748117914712528    0.07043969710104504    
  0.07043879072356264    0.07481248581170004    0.08405264825331579    0.09807311565364261    0.1151254027713375    
  0.13048616626030798    0.15878236845056723    0.18113643556783213    0.1895477985794034    0.18113153378890479    
  0.15878227821757526    0.13048701640870375    0.10460238633358122    0.0856917979418832    0.07481180175231919    
  0.07134105577613456    0.07481153979070958    0.08569104799950128    0.10460202864261114    0.13048616626030798    
  0.13638955310697115    0.1757497321359549    0.21281219450526379    0.234900551000107    0.23490442659170302    
  0.21282040581501113    0.17574760590596727    0.1363894228648828    0.10460242820305198    0.08405174445895937    
  0.07435899832638075    0.0743592270397176    0.08405300313976928    0.10460163664467179    0.13638955310697115    
  0.13048523075233115    0.17575036280202197    0.22466757236191146    0.26153849126242257    0.27472152447281906    
  0.2615357164573583    0.22467276970462077    0.17574755953152257    0.13048705611778252    0.09807291220921989    
  0.07985421176013957    0.07408246510455262    0.07985304400107025    0.09807438906848262    0.13048523075233115    
  0.11512543499532404    0.15878074594681002    0.21281701580602044    0.2615387910443692    0.28869328543667383    
  0.28868479296751426    0.2615357094517856    0.2128204113465462    0.15878232871188971    0.11512573759638901    
  0.08750785028357419    0.0746240263243507    0.07462414133265191    0.08750770486510195    0.11512543499532404    
  0.09588750952621873    0.1312506480633719    0.18113704732299046    0.23489929669789414    0.27471619888401827    
  0.2886932468811334    0.27472154947852884    0.2349043951127402    0.18113157169949545    0.13125215026544126    
  0.09588574084138529    0.07617630613873373    0.06993129089143416    0.07617627920115541    0.09588750952621873    
  0.0780792542906808    0.10257714844908578    0.14118334686977485    0.18954716394414492    0.23489930517300728    
  0.26153875362964335    0.2615384815124674    0.23490054986263587    0.18954778307408277    0.14118123242119685    
  0.10257915822746581    0.07807770464924939    0.06662252870044373    0.0666212139859709    0.0780792542906808    
  0.06475376561926935    0.07937025657476074    0.10516460065475178    0.14118337606332312    0.18113707914859115    
  0.21281701357945862    0.224667564929949    0.21281216814611897    0.18113638936993665    0.14118436118594066    
  0.10516313882700745    0.07937086605279906    0.06475354007206156    0.06010428241915495    0.06475376561926935    
  0.056919360238590865    0.0641719505871845    0.07937024948557447    0.10257711041132728    0.13125062976552457    
  0.15878076408192834    0.17575034339668105    0.17574975259015438    0.1587823587974663    0.13124974730109545    
  0.10257702640879938    0.07937070939672623    0.06416985477550088    0.056920851516932075    0.056919360238590865    
  0.05439475736225465    0.0569193563998507    0.06475377665209418    0.07807924855571916    0.09588756817640341    
  0.11512543047504495    0.13048527614394997    0.13638957829716092    0.1304861564938092    0.11512541100483481    
  0.0958869195805633    0.0780788940118414    0.06475426420058332    0.056919609552104844    0.05439475736225465    
  0.06111387266466389    0.06465222566123187    0.07572093070868674    0.09490193864398881    0.12111316599910175    
  0.14988558759401638    0.17292490292168047    0.1817219442560379    0.17293064117270554    0.1498858339140175    
  0.1211072813931489    0.0949035948354766    0.07572197525570423    0.06465215663897451    0.06111387266466389    
  0.06465215044492933    0.06465432062330992    0.06867769345644245    0.07708879514918598    0.08961677151375422    
  0.1047355063749653    0.11899129462767635    0.1277008484594191    0.12769921113476548    0.1189868573822299    
  0.10473518705485238    0.08962049190727107    0.07708747907004912    0.0686787252772784    0.06465215044492933    
  0.07572196620794101    0.0753596038844297    0.0757207611926351    0.07708886038331941    0.07990442810961149    
  0.08431316488543686    0.08958982382671311    0.09393731365580865    0.09561114005244    0.0939372685042201    
  0.08959348834013484    0.08431424984474911    0.079901666928766    0.077087475356525    0.07572196620794101    
  0.09490358492412734    0.09821735268594502    0.09821830587943683    0.09490119882414268    0.08961727460878509    
  0.08431478194517472    0.08046307354106323    0.07839015323570614    0.07765425016883025    0.07765546681156825    
  0.07839058744503652    0.08045965440703672    0.08431426770593947    0.08962053716960301    0.09490358492412734    
  0.12110723067859107    0.1341457059929369    0.13916003696955206    0.1341492972062217    0.12111134202047198    
  0.10473356934856826    0.08959020565248911    0.07839115474723474    0.07195146200848535    0.06991944767362163    
  0.07195114494859516    0.07839056744804433    0.08959349981266806    0.1047352154406201    0.12110723067859107    
  0.1498857905394944    0.17929022403055447    0.1973919208766121    0.19738703952406111    0.17928614166215923    
  0.1498886022217686    0.11898934356816869    0.0939366882938081    0.07765395222366007    0.06992082017968035    
  0.0699194498368456    0.07765546308875075    0.09393726798498557    0.11898685927699039    0.1498857905394944    
  0.17293062843210344    0.2221953227497751    0.2596199182284241    0.2730942105914335    0.25961978700006366    
  0.22219410065788595    0.17292770233671798    0.1277021151992705    0.09561120576755569    0.07765393994023755    
  0.07195143358962242    0.07765421821723974    0.09561111385175759    0.1276992037562534    0.17293062843210344    
  0.18172196586385866    0.24790757224022014    0.3038861333880333    0.3313557343255799    0.33135400324618275    
  0.30390450423285975    0.24791062040327633    0.18171837508826336    0.12770210200802737    0.09393671174889666    
  0.07839117010200736    0.07839016481879675    0.09393733506944428    0.12770083810001676    0.18172196586385866    
  0.17292486690112063    0.2479136435388989    0.3185720702324561    0.3545993693033478    0.36139745311615307    
  0.35459487872767753    0.31858165390587184    0.24791053933206766    0.17292770984044079    0.11898932638576724    
  0.08959016859113976    0.080463042580061    0.08958980402488327    0.11899127215890441    0.17292486690112063    
  0.14988561139675824    0.22219117385990722    0.30390057922000835    0.35460086978554106    0.36397769483105    
  0.36396994261247073    0.3545948578917864    0.30390444007758927    0.2221940964867131    0.14988861675349757    
  0.10473359002010346    0.0843147573889885    0.0843131860099613    0.10473552690848414    0.14988561139675824    
  0.12111312224585258    0.17928562431247472    0.25962888064623363    0.33133604230696073    0.36139874586153037    
  0.36397768441269585    0.36139747971728725    0.3313539325304514    0.2596197856045355    0.17928613267678561    
  0.12111133537832719    0.08961727005097277    0.07990441706259184    0.08961676802208979    0.12111312224585258    
  0.0949019326681791    0.13414878945799733    0.19738974253259967    0.2731011643686645    0.33133606466199683    
  0.35460084010987203    0.35459941443945875    0.33135580060895214    0.2730942001508033    0.19738703645105235    
  0.13414932700163018    0.09490118176636661    0.07708886871781521    0.07708880948969529    0.0949019326681791    
  0.07572090855710657    0.09821848835438378    0.13915813870743843    0.19738983666995355    0.2596289094179504    
  0.30390060887897635    0.3185720459341224    0.30388611206362    0.25961991953133795    0.19739192791336987    
  0.13916000279480348    0.09821828366416062    0.0757207632025885    0.06867768563546803    0.07572090855710657    
  0.06465224036178356    0.07536180568820733    0.09821848757312585    0.13414876218423696    0.17928559260341945    
  0.22219118546285696    0.24791362048360363    0.24790759912815846    0.22219530777934754    0.1792902404268917    
  0.13414569813671595    0.09821732326148513    0.07535960602767625    0.06465432150091231    0.06465224036178356    
  0.06111387266466389    0.06465222566123187    0.07572093070868674    0.09490193864398881    0.12111316599910175    
  0.14988558759401638    0.17292490292168047    0.1817219442560379    0.17293064117270554    0.1498858339140175    
  0.1211072813931489    0.0949035948354766    0.07572197525570423    0.06465215663897451    0.06111387266466389    
  0.06841585585283905    0.0731177148326592    0.08789002353849903    0.11398738941835684    0.15041298758271954    
  0.19040163511757116    0.2217862528771843    0.23355259860532757    0.22182028528910955    0.19040434654130228    
  0.15038261055926305    0.11399337046376794    0.08789352392866909    0.0731180506995951    0.06841585585283905    
  0.07311803653543368    0.07311871410694774    0.07830830118132075    0.0892322911502575    0.10574145521598517    
  0.1259891964048117    0.14519342170880586    0.1568403524458431    0.15684000970465986    0.1451676928702437    
  0.12598875780456975    0.10576316728386895    0.08922912939921705    0.07830523030013699    0.07311803653543368    
  0.08789350520135751    0.08758516611433328    0.08789051679576991    0.08922685551973837    0.0923133390981814    
  0.09736451980977598    0.1035886190735922    0.1088201338461918    0.11082868196981373    0.10881923132892832    
  0.10360677738729386    0.09736745427453503    0.09229198153337374    0.08922911822209052    0.08789350520135751    
  0.11399333049779196    0.11907211826886821    0.11907713530956494    0.11399113431311024    0.1057421479437103    
  0.0973683084208557    0.09097694499093649    0.08715386625223728    0.08557975377936539    0.08557887883116977    
  0.08715798686908575    0.0909590069096599    0.09736746355308501    0.10576322293501135    0.11399333049779196    
  0.15038256167898337    0.16967257347618392    0.176946475733809    0.16967449572100865    0.15041430375466855    
  0.12598277144869682    0.10358989889367046    0.08716156692585202    0.07765379651261446    0.07462031013227377    
  0.07765393780873156    0.08715800439853155    0.10360680065581201    0.12598878410646147    0.15038256167898337    
  0.19040430300479724    0.2325889307623991    0.25736822048574604    0.25735819592306897    0.23255100302280887    
  0.19040930990381028    0.14518994315082562    0.1088120739180803    0.0855796644345565    0.07462001632968153    
  0.07462031165190454    0.08557886311852009    0.10881919277463871    0.14516765560397094    0.19040430300479724    
  0.22182029598110323    0.28810972735515183    0.33044340244567894    0.3427270433676016    0.3304891239248714    
  0.28810375136383165    0.22179297664674266    0.1568525405970488    0.1108269487198452    0.08557965358452106    
  0.07765379619433664    0.08557972308449709    0.11082867550896477    0.15683998765844745    0.22182029598110323    
  0.23355258391342804    0.3176122919024973    0.36306109517705343    0.36423490555670224    0.36420399745491905    
  0.3630765014496907    0.3176646077539036    0.2335222385383484    0.15685256811899567    0.10881207467603468    
  0.08716159778846555    0.08715386123560004    0.1088201753998335    0.1568403758038534    0.23355258391342804    
  0.22178626721104194    0.31766117823509255    0.36695984950598987    0.3376832466548444    0.3096852457877723    
  0.33767648298109504    0.366957240073106    0.31766456623971956    0.22179301981015445    0.14518993128950583    
  0.10358989487580832    0.09097689867110902    0.10358857318931107    0.14519345556899124    0.22178626721104194    
  0.19040165583690016    0.2881032480969606    0.36308364613136623    0.3376680676777567    0.27178341807776507    
  0.2718161240702493    0.33767643706493894    0.36307652297442405    0.28810378706914164    0.19040934258463682    
  0.12598279075867586    0.09736828781336304    0.09736453381205967    0.12598924509700973    0.19040165583690016    
  0.15041293438908934    0.23255438783295893    0.33049743471492393    0.36415121290143115    0.30975232842901346    
  0.2717833962122129    0.30968526990551276    0.36420393285695846    0.3304891725553271    0.23255097108290484    
  0.150414328247449    0.10574211476020506    0.09231331789484311    0.10574150134065938    0.15041293438908934    
  0.11398737940797964    0.1696827370624096    0.25735846160191167    0.3427650952241468    0.3641512633321515    
  0.33766805979673686    0.3376832880529732    0.364234980331296    0.34272703024370554    0.257358209359515    
  0.1696745043227486    0.11399110487912852    0.08922686892012936    0.0892323288484259    0.11398737940797964    
  0.08789001366400559    0.11907744201371061    0.1769385167153109    0.257358503332342    0.33049746141701264    
  0.36308364159060597    0.36695982588232134    0.36306103320274374    0.33044338647408644    0.25736823997035696    
  0.17694650707748236    0.11907712570632312    0.08789052535994282    0.078308310692797    0.08789001366400559    
  0.07311773426189065    0.08758719639928139    0.11907744668747305    0.16968271085694825    0.23255436903480575    
  0.2881032145544259    0.3176611364926197    0.31761229311980393    0.2881097093892922    0.2325889373175159    
  0.1696725601152779    0.11907208325287628    0.08758516880353705    0.07311872372936493    0.07311773426189065    
  0.06841585585283905    0.0731177148326592    0.08789002353849903    0.11398738941835684    0.15041298758271954    
  0.19040163511757116    0.2217862528771843    0.23355259860532757    0.22182028528910955    0.19040434654130228    
  0.15038261055926305    0.11399337046376794    0.08789352392866909    0.0731180506995951    0.06841585585283905    
  0.07406304392529126    0.07971881335451222    0.09758028066147188    0.12951154454143027    0.1744915839911423    
  0.22338780927372306    0.26056998090392347    0.27408643306545866    0.2606575838639017    0.22339626423649592    
  0.1744197599828775    0.1295228499923679    0.09759228069043857    0.07971777283745043    0.07406304392529126    
  0.07971775887220611    0.07971820546258959    0.08594373052846843    0.09912850938068442    0.11919410379365405    
  0.1440098530905365    0.16758193140073976    0.18179656304844036    0.18179935495246746    0.16752095487384625    
  0.14400596606770855    0.11924984966440595    0.09911845466677881    0.08593400652321669    0.07971775887220611    
  0.09759227216184625    0.0972644350882398    0.09758045687987109    0.09911127836968321    0.10280032917915999    
  0.10874703658175493    0.11601165408811066    0.12219123291430153    0.12457399404595201    0.12218262919930786    
  0.11606002839972848    0.10874921713486067    0.10275038749946766    0.09911844855403629    0.09759227216184625    
  0.12952283249990032    0.13585356762716058    0.13586909508128883    0.12952890373587692    0.11919403310789164    
  0.1087529784453224    0.1006319943150846    0.0955536489611497    0.09341152543141525    0.09341508525988806    
  0.09556136157942705    0.10059018271330991    0.10874923316820756    0.1192499231709307    0.12952283249990032    
  0.17441972229216796    0.1981708319146039    0.2069616972281542    0.19816147524556127    0.17449487497549684    
  0.14399882490769073    0.11601428159404915    0.09557211764804445    0.0837542989628617    0.0799885582061533    
  0.0837537048769345    0.09556136524729687    0.11606008871272047    0.14400599408712592    0.17441972229216796    
  0.22339621822776642    0.2731881924897301    0.3002684403777004    0.3002556926760379    0.27309472083967273    
  0.22340419149868868    0.16757717036650613    0.12217002071269457    0.09341071818664407    0.07999292222157402    
  0.07998854322205673    0.09341506517247028    0.12218259513194651    0.16752094967315231    0.22339621822776642    
  0.2606575840891978    0.331659905093288    0.3626708822843002    0.36605595373722466    0.36279053099436864    
  0.33164922047406276    0.2605821312261209    0.18182359663066333    0.12457491751751512    0.09341071675330893    
  0.08375434379048254    0.09341149203320409    0.12457400984237653    0.18179934121482347    0.2606575840891978    
  0.2740863966493401    0.3557963857229367    0.35773842945079787    0.3131665099904198    0.31309926068631716    
  0.35773475881752015    0.3559368192302421    0.27401560273585573    0.1818236311023285    0.12217002766203632    
  0.0955721383043514    0.09555363147853085    0.1221912765582801    0.18179657003531463    0.2740863966493401    
  0.26056996613938427    0.3559198289309241    0.34063601362914786    0.23013200360904937    0.17706370204127309    