#     DFTpy    
  CRYSTAL 
    
  PRIMVEC    
  1.6446165252201115    -2.848559380648615    0.0    
  1.6446165252201115    2.848559380648615    0.0    
  0.0    0.0    3.0956999929655162    
  PRIMCOORD    
  1    1    
  Si    0.0    0.0    0.0    
  BEGIN_BLOCK_DATAGRID_3D    
  3d_datagrid_density    
  BEGIN_DATAGRID_3D#0    
  15    15    15    
  0.0    0.0    0.0    
  1.6446165252201115    -2.848559380648615    0.0    
  1.6446165252201115    2.848559380648615    0.0    
  0.0    0.0    3.0956999929655162    
  0.05970559461274325    0.10618582052609817    0.2604330402877255    0.3710435686192839    0.30288870446146554    
  0.1962710832503346    0.13327831884705324    0.1145453438703976    0.13327831782017283    0.1962710662824304    
  0.30288872682619195    0.3710435198547136    0.26043299903964023    0.10618582702999378    0.05970559461274325    
  0.10618580730451906    0.10615176809152009    0.2120323186107794    0.35307843662401667    0.3432020499564021    
  0.23603216362929708    0.15287357869609597    0.11539888081431311    0.11540590492888216    0.15286462421517955    
  0.23605186701143419    0.34318657237648864    0.35302568556837854    0.2120632918357157    0.10618580730451906    
  0.2604330446985835    0.21203227277091632    0.2605293005509767    0.35303580074208524    0.35403830528966906    
  0.2589210679224449    0.16825651834677618    0.11748331504006891    0.1022030623028798    0.11748385621472783    
  0.16825107337660186    0.2589094373865335    0.3541163549729374    0.35302568613429997    0.2604330446985835    
  0.371043528921755    0.3530784019395616    0.3530357984044912    0.3709818657389977    0.34316662829001215    
  0.25898199028259944    0.173916419779778    0.11923418086162346    0.09454898691842761    0.09455951540417722    
  0.11922547469667442    0.17394112884427224    0.2589094960070566    0.3431865651433663    0.371043528921755    
  0.30288874434506924    0.3432021099698298    0.3540383154373273    0.34316664838520006    0.3029678367285719    
  0.23605069625503108    0.16821071544033042    0.11923248235039488    0.09214105120250314    0.08367675766568257    
  0.09213837372060403    0.11922551185841784    0.1682510989224055    0.2360518489084061    0.30288874434506924    
  0.19627103272568686    0.236032121693376    0.2589210998188949    0.2589819970126205    0.23605069964570144    
  0.19620324320823404    0.15286598293542888    0.11751732256525826    0.09455334390547337    0.08367499046084624    
  0.08367674652476187    0.09455951592999878    0.11748387215827015    0.1528645993089164    0.19627103272568686    
  0.13327831537983095    0.15287357411635702    0.16825654735187293    0.17391643819144423    0.16821073518721866    
  0.15286597491785994    0.13333452991975367    0.11540232815753877    0.102172975276554    0.09455334511607207    
  0.09214105193826401    0.09454898898097829    0.10220309150872464    0.11540590845319022    0.13327831537983095    
  0.11454532981690801    0.11539887320708576    0.11748331722145526    0.1192341748339448    0.11923248495378527    
  0.1175173256987465    0.11540232379496976    0.11449455938359338    0.1154023210016828    0.11751731909840238    
  0.11923249665115031    0.11923417813618013    0.11748331439239426    0.11539887067561462    0.11454532981690801    
  0.1332783274592829    0.11540592027801937    0.1022030793775813    0.0945489854321053    0.09214104252679767    
  0.09455335333532078    0.10217298408683653    0.11540233196028123    0.13333451453355177    0.15286598806288143    
  0.16821072751993565    0.17391642050016393    0.16825656090342336    0.15287358995494763    0.1332783274592829    
  0.19627105841277048    0.15286460311993563    0.11748386817131763    0.0945595068470707    0.08367674585280577    
  0.08367498945383355    0.09455333363158512    0.1175173195374397    0.15286596713787817    0.19620324861214422    
  0.2360506627994996    0.2589819582409704    0.25892109007780273    0.23603214353451013    0.19627105841277048    
  0.30288873870219835    0.23605185129962922    0.16825111034231913    0.11922549191564473    0.09213837787885008    
  0.08367674914857681    0.09214105202728917    0.11923249239585412    0.16821072186744132    0.236050691348953    
  0.30296781744628354    0.34316667761583064    0.3540383194288764    0.34320208449685163    0.30288873870219835    
  0.3710434874950756    0.3431865292729    0.25890947323936814    0.17394111477508972    0.11922548987140219    
  0.09455952845663297    0.0945489784315716    0.11923416682399136    0.17391642791101372    0.25898199339721406    
  0.34316666798666323    0.3709819125122332    0.35303585158791434    0.35307845892691475    0.3710434874950756    
  0.26043298780446045    0.3530256349527139    0.3541163461515315    0.25890947204375936    0.16825108459528518    
  0.11748385274679718    0.10220307606121332    0.11748331983101963    0.16825652222275522    0.25892112305940473    
  0.3540382822329073    0.353035828943752    0.2605292594475859    0.21203226029131148    0.26043298780446045    
  0.1061858181500369    0.21206329613557554    0.35302572378099495    0.34318659810942126    0.23605185152663388    
  0.15286464473883848    0.11540590569203428    0.11539887584150005    0.1528735799301569    0.23603214862178562    
  0.3432020876063026    0.35307842084068    0.21203232228918337    0.10615175898064529    0.1061858181500369    
  0.05970559461274325    0.10618582052609817    0.2604330402877255    0.3710435686192839    0.30288870446146554    
  0.1962710832503346    0.13327831884705324    0.1145453438703976    0.13327831782017283    0.1962710662824304    
  0.30288872682619195    0.3710435198547136    0.26043299903964023    0.10618582702999378    0.05970559461274325    
  0.09990052080155322    0.1522206007708784    0.2956164199198435    0.36907373699874413    0.28880209226723264    
  0.18680796363031993    0.1278660164804747    0.11030904981118662    0.12786602110787076    0.1868079717721142    
  0.2888020928194165    0.36907370039198834    0.29561640453090565    0.15222062637371897    0.09990052080155322    
  0.15222059776245467    0.15216563914304346    0.254301072515681    0.36344330012096976    0.3304236143441418    
  0.22433008355179776    0.14617840164087634    0.11110556556197915    0.11111456673400075    0.1461672437630539    
  0.22435046523581867    0.33040463968942607    0.36340922041035967    0.2543154432214873    0.15222059776245467    
  0.2956164196074015    0.25430102083650424    0.2957195118996056    0.3634066677915054    0.34282772620993196    
  0.24628880551480106    0.16054384076654352    0.11302010252438512    0.09868195308435529    0.11302083907338148    
  0.16053921484109301    0.24628086952628345    0.3428861213310224    0.3634091702612263    0.2956164196074015    
  0.3690737125572225    0.36344327279188354    0.3634066932836517    0.36900786703617106    0.3303961213402044    
  0.24633816046091997    0.16584738636219246    0.11460243738260757    0.09144141393680764    0.09145073698048113    
  0.11459404357157243    0.16586860360936362    0.24628087313290245    0.3304046165389171    0.3690737125572225    
  0.288802091939884    0.33042367426147    0.3428277403506035    0.33039613349975155    0.2888792587017084    
  0.2243398085259033    0.16051080744747603    0.11459891006226362    0.08915524867932935    0.08118178346108809    
  0.08915301453444974    0.11459407058572992    0.16053923836552492    0.22435043792745973    0.288802091939884    
  0.18680795601330136    0.22433004100278586    0.2462888209208537    0.24633815495976616    0.22433981227824337    
  0.18675000194637204    0.14617145492336175    0.11304637839738055    0.09144521814671298    0.08118109055986802    
  0.08118177665739106    0.09145072244726793    0.11302084085556885    0.14616723861365208    0.18680795601330136    
  0.12786601934442832    0.14617839337328364    0.1605438770438677    0.16584738295670137    0.16051081977695983    
  0.14617145858959898    0.12791526455137575    0.11110934841721712    0.09865932666011745    0.09144521834026798    
  0.08915525150712067    0.09144142293390219    0.09868197514142868    0.11111457175427635    0.12786601934442832    
  0.11030905501642155    0.11110554113101415    0.11302009841576671    0.11460243676565776    0.1145989016296358    
  0.11304636852185805    0.11110934758354477    0.11026487510044584    0.11110934899120412    0.11304637330969619    
  0.11459890569511196    0.11460242554819187    0.11302010027063485    0.1111055550942108    0.11030905501642155    
  0.1278660261176055    0.11111457343151009    0.09868197588438665    0.0914414217139074    0.0891552334850047    
  0.09144522170294062    0.09865932047939115    0.11110936856570716    0.1279152536680848    0.1461714517539264    
  0.16051082416643098    0.1658473823200858    0.1605438666310968    0.14617839457038176    0.1278660261176055    
  0.18680796642237493    0.14616723863674808    0.11302085226324947    0.09145072497965775    0.08118177760319131    
  0.08118109062819856    0.09144520645429237    0.11304637238406942    0.14617144806325472    0.1867500107834268    
  0.22433981744505305    0.24633814598096937    0.24628880392822536    0.2243300410043502    0.18680796642237493    
  0.28880212207639544    0.22435045361630476    0.1605392450271942    0.11459406317300876    0.08915302883249851    
  0.08118179718862276    0.08915524769250598    0.11459890387490938    0.1605108092028185    0.22433979033374013    
  0.28887925352454585    0.3303961509583026    0.342827731772677    0.33042365827748776    0.28880212207639544    
  0.3690737027109907    0.33040459226210245    0.24628086938265667    0.165868570756789    0.11459405297091463    
  0.09145073729700202    0.09144141494945046    0.11460243527141718    0.16584737700382302    0.24633816271002648    
  0.33039615745280365    0.36900790441860637    0.3634066998155015    0.3634433156214515    0.3690737027109907    
  0.29561637396383833    0.3634091557471809    0.3428860965320337    0.24628086276687783    0.1605392283787839    
  0.11302083470071418    0.0986819543573242    0.11302010464595072    0.16054383219213356    0.2462888306813686    
  0.3428277255454839    0.3634067001378317    0.295719499521955    0.2543009861854868    0.29561637396383833    
  0.1522206022515503    0.25431544032629944    0.36340921272643023    0.3304046575060293    0.2243504622686017    
  0.14616726239369415    0.11111456170008725    0.11110555499145275    0.14617838820245094    0.22433006155391125    
  0.33042363638855954    0.3634433379483854    0.2543010510855788    0.1521656489629412    0.1522206022515503    
  0.09990052080155322    0.1522206007708784    0.2956164199198435    0.36907373699874413    0.28880209226723264    
  0.18680796363031993    0.1278660164804747    0.11030904981118662    0.12786602110787076    0.1868079717721142    
  0.2888020928194165    0.36907370039198834    0.29561640453090565    0.15222062637371897    0.09990052080155322    
  0.23612192702080279    0.28020255519089554    0.357055221607342    0.34486696127989797    0.24943391782530294    
  0.1620428744518235    0.11349421677917962    0.09889204723329666    0.11349422482492105    0.1620428844936562    
  0.2494339042951013    0.3448669300473814    0.3570551899652974    0.28020259741973835    0.23612192702080279    
  0.28020254539602024    0.28013426245945133    0.3407200583700841    0.36304837540098805    0.2900027502301429    
  0.19334887473917803    0.12856517525678307    0.0995655319293247    0.0995715841402024    0.1285577281694603    
  0.19336053915790485    0.2899902009890285    0.3630418916019341    0.3407081163910434    0.28020254539602024    
  0.35705517292254274    0.34071999014369675    0.35713115746996216    0.3630213157643541    0.30396253438831616    
  0.2121344917738421    0.14036419050810903    0.10113639239842173    0.08916903153010403    0.10113758707167086    
  0.14036066463752186    0.2121350901684399    0.30397772372175436    0.3630418493842924    0.35705517292254274    
  0.34486697750071454    0.36304836860247336    0.3630213227681973    0.34483185270405414    0.2899937871539771    
  0.21215619195387425    0.14475354698584667    0.10240663635978449    0.08311048465638055    0.08311418360075    
  0.10240330225419404    0.14476155357578724    0.21213513472065243    0.2899901695929713    0.34486697750071454    
  0.24943390804254684    0.2900028108463634    0.303962549287794    0.28999377109851737    0.2494724657438215    
  0.1933500659273293    0.14035087756906267    0.10240479275184797    0.08119541624295104    0.07449692463019243    
  0.08119428393934329    0.1024033098166724    0.14036069523302833    0.1933605341751966    0.24943390804254684    
  0.16204287703620027    0.1933488518334527    0.21213452296802796    0.21215619815096629    0.19335009132783298    
  0.16201554046924294    0.12856362321261597    0.10114657026513849    0.08311210738338275    0.07449625521204636    
  0.07449691681198305    0.08311418602836378    0.10113759079856649    0.12855772241589847    0.16204287703620027    
  0.11349420507280368    0.12856516120170122    0.1403642211839369    0.1447535625106823    0.14035089169078144    
  0.12856361777710076    0.11351599707995949    0.09956690933427768    0.08916122725092283    0.08311210247468998    
  0.0811954050900763    0.08311049598245888    0.08916903443879351    0.09957159166823414    0.11349420507280368    
  0.09889205218693108    0.09956552061265818    0.10113640132671557    0.10240663571422719    0.10240479240821403    
  0.10114654970057994    0.0995669045075685    0.09887385649876501    0.09956690800889866    0.10114655674192251    
  0.1024047893732798    0.10240663330509066    0.10113638857532813    0.099565525907227    0.09889205218693108    
  0.11349421432482876    0.09957159050468986    0.08916904387684717    0.08311048926069417    0.08119540556645818    
  0.08311210164284383    0.08916122258925246    0.09956691945512168    0.11351597780313058    0.12856362448252937    
  0.14035089831819766    0.14475356294207872    0.14036421308304012    0.12856517690405558    0.11349421432482876    
  0.1620428691193288    0.12855772369802715    0.10113759007822894    0.08311418136028781    0.07449691769533046    
  0.07449625502979909    0.08311210058113702    0.10114654442579395    0.12856362631199264    0.16201555022948189    
  0.19335007921632075    0.21215617773056542    0.21213448563423593    0.19334887044754076    0.1620428691193288    
  0.24943392473330978    0.19336057783130323    0.14036069456304157    0.10240331318854261    0.08119429747712086    
  0.0744969312689163    0.08119540882949963    0.10240479029768755    0.14035089807123755    0.19335004169571188    
  0.24947245244456132    0.2899938139944998    0.303962545344341    0.29000277210124464    0.24943392473330978    
  0.34486692079096765    0.2899901677663655    0.21213513596658054    0.14476152558775232    0.10240330425651081    
  0.08311419114875715    0.08311049111820253    0.10240663339124187    0.14475356150786742    0.2121561924124792    
  0.28999378631532596    0.34483188748405147    0.36302132919904406    0.363048417579097    0.34486692079096765    
  0.35705515453087827    0.36304186421414186    0.3039777473817598    0.21213508956801516    0.14036067176247832    
  0.10113757752724034    0.08916903242540646    0.10113639521273773    0.14036418506379753    0.21213450355394747    
  0.3039625326498906    0.36302130407877936    0.3571311750404498    0.34072000112375084    0.35705515453087827    
  0.2802025532866999    0.3407081388161471    0.3630419134542033    0.28999019762360945    0.19336054297827293    
  0.12855774011515528    0.09957158214088407    0.09956553680200238    0.12856515282524916    0.19334886346170677    
  0.29000274919845664    0.3630484291360492    0.34072005956601353    0.28013425923048035    0.2802025532866999    
  0.23612192702080279    0.28020255519089554    0.357055221607342    0.34486696127989797    0.24943391782530294    
  0.1620428744518235    0.11349421677917962    0.09889204723329666    0.11349422482492105    0.1620428844936562    
  0.2494339042951013    0.3448669300473814    0.3570551899652974    0.28020259741973835    0.23612192702080279    
  0.35929024219911443    0.36460114343014205    0.34895469808917823    0.2815846229086164    0.1954598448177392    
  0.13038705238428855    0.09482889579527526    0.08393235794494783    0.09482890964923693    0.13038705012535445    
  0.19545984971795433    0.28158459527575397    0.3489546633978383    0.36460115270555216    0.35929024219911443    
  0.3646011271674958    0.3645806135732814    0.35802747432012855    0.3101109427020423    0.22804835050267852    
  0.15331031895031152    0.10592262218285271    0.08445553483487316    0.08445661208519874    0.10592080620530452    
  0.15331330838589705    0.22804545592060585    0.3101110635199943    0.358021409240152    0.3646011271674958    
  0.34895465624994026    0.3580274319415644    0.3489711158270824    0.31010543220406883    0.24006755158862209    
  0.16718959114225415    0.11456144761873396    0.08564699211447896    0.0766517087433184    0.08564799057419015    
  0.11456011932121342    0.16718961217519282    0.24006933814062484    0.31011101934788854    0.34895465624994026    
  0.2815846094243892    0.31011090839652244    0.31010545644014365    0.2815797652701718    0.22804522559002055    
  0.16719480635647974    0.11778017633676854    0.08660659618707875    0.07212802919037556    0.07212961946143882    
  0.08660421750772782    0.1177842437297691    0.16718964507107917    0.22804543546871314    0.2815846094243892    
  0.19545986221611492    0.2280483907537293    0.2400675287983802    0.22804519931105074    0.1954683265610903    
  0.15330872337096105    0.11456046346125698    0.08660399197727747    0.07071481661030908    0.06564276879920881    
  0.07071450046320407    0.08660424631762213    0.11456013379929954    0.1533133127354135    0.19545986221611492    
  0.1303870344061109    0.15331031392454875    0.16718962118625186    0.16719481433221214    0.15330871400236276    
  0.13038394912129322    0.1059217063565062    0.08564924509037707    0.07212940933196424    0.06564187891608603    
  0.06564275792806894    0.07212961615950475    0.0856479853137188    0.10592080071400159    0.1303870344061109    
  0.09482889052396581    0.10592261908371821    0.11456146385510181    0.1177801990931236    0.11456047776176088    
  0.10592170152212281    0.09483230523698284    0.08445579605385022    0.07664987769148664    0.07212941256478188    
  0.07071480931068198    0.07212803641595728    0.07665172305727168    0.08445662081081473    0.09482889052396581    
  0.08393237000009302    0.08445552368769213    0.08564700361081345    0.086606589693757    0.0866039907059813    
  0.08564924936309051    0.08445579865989893    0.08392968292515458    0.08445579694172871    0.08564924376746615    
  0.0866039878367021    0.08660658604980077    0.08564699571218157    0.0844555284079388    0.08393237000009302    
  0.09482890163704699    0.08445662193782602    0.07665172478873945    0.07212803852096125    0.0707148041470973    
  0.07212941756298419    0.07664987296461653    0.0844558090801584    0.09483229711410252    0.1059217095930215    
  0.11456047405705072    0.11778019617756907    0.11456145907640405    0.10592263655439273    0.09482890163704699    
  0.1303870410728335    0.10592081132514265    0.08564799191355871    0.07212960794642945    0.06564276217292711    
  0.06564188136347926    0.07212941392407424    0.08564923656006586    0.10592170754973622    0.13038395288664614    
  0.15330870984119135    0.16719481376834713    0.1671895893685709    0.15331030288787847    0.1303870410728335    
  0.19545986180513195    0.15331331707396723    0.11456014328376073    0.08660421795487465    0.07071450820780267    
  0.0656427693877775    0.07071481966452642    0.0866039851274686    0.11456047058468397    0.15330868535534545    
  0.19546832464929628    0.2280452512932737    0.24006755186995427    0.2280483797865933    0.19545986180513195    
  0.28158454722189324    0.2280454621263627    0.1671896397258336    0.11778422844371098    0.08660422526168898    
  0.07212962010673905    0.07212803485983153    0.08660659742754659    0.1177801967137257    0.16719482916618947    
  0.22804521352020996    0.2815797483291751    0.31010548472894855    0.31011094000734774    0.28158454722189324    
  0.3489546364550618    0.31011104586178606    0.2400693218425187    0.1671896150805489    0.11456011574311319    
  0.08564797392403611    0.07665171469602164    0.0856470039979037    0.11456144191959879    0.16718959395936778    
  0.24006751933264153    0.3101054433743137    0.3489710741900863    0.3580273951994114    0.3489546364550618    
  0.3646011330386972    0.35802141328951137    0.3101110694060727    0.22804548585909254    0.15331330104252547    
  0.10592081782990645    0.08445660514458413    0.08445553312659371    0.10592263225808198    0.15331032081068566    
  0.2280483725411237    0.3101109283696431    0.3580274629446879    0.3645806674003463    0.3646011330386972    
  0.35929024219911443    0.36460114343014205    0.34895469808917823    0.2815846229086164    0.1954598448177392    
  0.13038705238428855    0.09482889579527526    0.08393235794494783    0.09482890964923693    0.13038705012535445    
  0.19545984971795433    0.28158459527575397    0.3489546633978383    0.36460115270555216    0.35929024219911443    
  0.32460709201851135    0.31030048176557606    0.26652117934224273    0.20353970816114472    0.1434372669941558    
  0.10059017995476456    0.07688954676019939    0.06948287238286557    0.07688956353156662    0.10059016974426739    
  0.14343726048797745    0.20353967923049193    0.26652112565625186    0.31030050428306255    0.32460709201851135    
  0.31030047395866883    0.310297072138946    0.2808541316439361    0.2264833843090235    0.16530633430493596    
  0.11570532113419667    0.08436221337759993    0.06985427156213662    0.0698561936757302    0.08436046788746608    
  0.11570567158735666    0.16530706765739117    0.2264814099308456    0.2808545995132792    0.31030047395866883    
  0.2665211259796291    0.28085412647429037    0.26652584815640334    0.2264798226464915    0.17355369427851414    
  0.12487243004159593    0.09015890576195357    0.07067636897534742    0.06450379411309821    0.0706757213974118    
  0.09016107355343372    0.12487068625700777    0.17355495091100556    0.2264813608389207    0.2665211259796291    
  0.20353969716341933    0.22648335190897334    0.22647985662979758    0.2035387585010346    0.16530821395656017    
  0.12487003966397373    0.09232606351040777    0.07130958888841406    0.06135265683421031    0.06135212670263811    
  0.07130958555702838    0.09232492728937933    0.1248707072945712    0.16530705405494248    0.20353969716341933    
  0.14343726613292793    0.16530636994292608    0.17355368251943076    0.16530818184733298    0.14343635212248207    
  0.11570736911453862    0.09015882530020891    0.07131019406057615    0.0603522183065046    0.05682473424370557    
  0.06035304166434187    0.07130960565299391    0.09016109557311985    0.11570568177115512    0.14343726613292793    
  0.10059016964983174    0.11570530593666702    0.12487245593740776    0.12487005923070034    0.11570735311288621    
  0.1005875733668332    0.0843621029382148    0.07067597800121563    0.061352288543497724    0.05682521373192036    
  0.05682472667368528    0.06135212793742572    0.07067571583247403    0.08436046072033818    0.10059016964983174    
  0.07688954476799319    0.08436220878422987    0.09015891810443202    0.09232608479498017    0.09015883597683419    
  0.08436210118747028    0.07689021714294257    0.06985499953755461    0.06450392695966589    0.06135228378487527    
  0.06035221106711037    0.06135266928215407    0.06450380338943107    0.06985620048405305    0.07688954476799319    
  0.06948288543997516    0.06985425978581554    0.07067637627136891    0.07130957773230795    0.07131018909353723    
  0.07067597863186884    0.06985500108045976    0.06948258354820945    0.0698550026969972    0.07067597938498228    
  0.07131018668881202    0.07130957594692554    0.07067637029232347    0.06985426664056471    0.06948288543997516    
  0.07688955244139481    0.06985619793965771    0.06450380819891213    0.06135266107849479    0.06035220733284232    
  0.06135228935045852    0.06450392261390893    0.0698550135725054    0.07689021406737027    0.08436210298011675    
  0.09015883227301019    0.09232608612353453    0.09015891756847964    0.08436223288773796    0.07688955244139481    
  0.10059016421631624    0.08436046964908239    0.0706757177902424    0.06135211615001092    0.056824723956400446    
  0.05682521315533993    0.061352288184574444    0.07067597180477095    0.08436210270675824    0.10058758537626895    
  0.11570734188854814    0.12487005437124811    0.12487242689276046    0.11570531152431374    0.10059016421631624    
  0.14343726651543967    0.11570567934640563    0.09016109846871269    0.07130958173922466    0.060353054674919394    
  0.05682472915926234    0.06035221529395863    0.07131018742505667    0.09015883582859692    0.11570733266762696    
  0.14343634055549434    0.1653082398061713    0.17355371972711386    0.1653063436361549    0.14343726651543967    
  0.20353963609695747    0.16530709289776854    0.12487070765169656    0.09232490987496199    0.07130958916295001    
  0.061352130187037876    0.061352662043710135    0.07130958248547548    0.09232608742303751    0.12487006148150893    
  0.1653082070871812    0.20353876540578594    0.22647987372553285    0.22648336935360408    0.20353963609695747    
  0.26652110370683585    0.22648136135511737    0.1735549315161688    0.12487068810424211    0.0901610803483698    
  0.07067570781609414    0.06450379525870636    0.07067638004911068    0.09015889370074882    0.12487244955361788    
  0.1735536785680136    0.22647982791110524    0.2665258362972622    0.2808540927751979    0.26652110370683585    
  0.31030047747845907    0.2808545889726331    0.22648139006973486    0.16530708646046205    0.1157056695653255    
  0.08436047253085704    0.06985618722267187    0.0698542717513717    0.08436221890353016    0.11570532535456106    
  0.16530635746615643    0.2264833896396171    0.28085414367270123    0.31029708645561077    0.31030047747845907    
  0.32460709201851135    0.31030048176557606    0.26652117934224273    0.20353970816114472    0.1434372669941558    
  0.10059017995476456    0.07688954676019939    0.06948287238286557    0.07688956353156662    0.10059016974426739    
  0.14343726048797745    0.20353967923049193    0.26652112565625186    0.31030050428306255    0.32460709201851135    
  0.22769414748143182    0.21544383920684454    0.18307931063159424    0.142244765200794    0.10508804707862733    
  0.07828164017079918    0.06302504713125644    0.05816726945278373    0.0630250526195201    0.07828164856252871    
  0.10508805389714798    0.14224474390676087    0.18307928693884265    0.2154438819268637    0.22769414748143182    
  0.21544382709788512    0.21544297494834774    0.19312518660721972    0.15675887337365424    0.11863807602017118    
  0.08785700462179753    0.06788684418419934    0.058426268660533236    0.05842673799185609    0.06788532592445574    
  0.08785838985611881    0.11863673214307649    0.15675889905738238    0.19312556106824877    0.21544382709788512    
  0.18307930226542113    0.19312513894192856    0.18308056970296424    0.15675975466108516    0.12379028301072227    
  0.09368529398477246    0.07166845500686113    0.05897445653424123    0.05490956493804042    0.05897535009269501    
  0.07166899247599336    0.09368450317000275    0.12379236923966033    0.1567588809485693    0.18307930226542113    
  0.14224474273693852    0.1567588705538607    0.1567597548054876    0.14224185655655885    0.11863880815885337    
  0.0936842847408952    0.07309838963614566    0.05938594510284163    0.05277625128514238    0.052775035234946414    
  0.05938575896408612    0.07309757213184886    0.09368452412770877    0.11863671741828154    0.14224474273693852    
  0.10508803660497652    0.11863810953152495    0.12379029126415349    0.1186388021416955    0.1050886877452577    
  0.08785751963167752    0.07166839995441902    0.05938510142970934    0.05206873013253622    0.049689069279412    
  0.05206920943444921    0.05938576716819221    0.07166901269020134    0.08785838215773913    0.10508803660497652    
  0.07828164358831215    0.08785699564871687    0.09368530217066787    0.09368429554692462    0.08785752523553646    
  0.0782803986892793    0.06788732027029067    0.05897490007666343    0.052777087602310764    0.049687106904552386    
  0.04968907066779907    0.05277503794386553    0.05897535226623355    0.06788532237195197    0.07828164358831215    
  0.06302504558145951    0.0678868348778564    0.07166847175809485    0.07309839617211082    0.0716684177046867    
  0.06788730981786617    0.06302420782578204    0.05842668034346127    0.0549080545484102    0.052777086001459306    
  0.05206871958113219    0.05277626097105851    0.05490957094098285    0.05842673335430246    0.06302504558145951    
  0.058167274805080986    0.058426257560822245    0.05897446191355284    0.05938594418257807    0.05938510417197387    
  0.058974888343281816    0.05842667618667735    0.05816779410423161    0.0584266782156085    0.058974889323523016    
  0.05938510529416992    0.05938594503518961    0.05897444972567125    0.058426263633892916    0.058167274805080986    
  0.06302504996383161    0.05842674154610241    0.05490957763183505    0.05277625325343646    0.052068721062645464    
  0.05277708031096474    0.054908051588755    0.05842668973724583    0.06302419868318736    0.06788731784476863    
  0.07166841319302629    0.07309839877462025    0.07166846722321955    0.06788684602857813    0.06302504996383161    