#     DFTpy    
  CRYSTAL 
    
  PRIMVEC    
  2.599862068965517    0.0    0.0    
  0.0    2.599862068965517    0.0    
  0.0    0.0    2.599862068965517    
  PRIMCOORD    
  2    1    
  Si    0.0    0.0    0.0    
  Si    1.2999310344827588    1.2999310344827588    1.2999310344827588    
  BEGIN_BLOCK_DATAGRID_3D    
  3d_datagrid_density    
  BEGIN_DATAGRID_3D#0    
  13    13    13    
  0.0    0.0    0.0    
  2.599862068965517    0.0    0.0    
  0.0    2.599862068965517    0.0    
  0.0    0.0    2.599862068965517    
  0.05446292147690436    0.09431556187991463    0.24545339063311322    0.43415943020201053    0.47897056568700375    
  0.4317344419592552    0.4056288774836456    0.43173447315059393    0.478970512822756    0.43415944409200896    
  0.24545340641280866    0.09431555288547508    0.05446292147690436    0.09431554429522104    0.14248320088865632    
  0.2980482377113542    0.46077613316699206    0.48427628991177063    0.4336774289342504    0.4079400780815789    
  0.4336773935425578    0.4842763104167959    0.46077616273709565    0.298048207977382    0.14248316343935902    
  0.09431554429522104    0.24545336203756943    0.2980482644343302    0.4233567146180832    0.5070508867133269    
  0.4879961656953811    0.4349933797203087    0.41166625282568037    0.4349933706761657    0.48799614340022346    
  0.5070509661291724    0.4233567069558372    0.29804819807846183    0.24545336203756943    0.4341594299750412    
  0.4607761711948827    0.5070508959719875    0.5130977082667761    0.47390772182768787    0.4304751663971362    
  0.413089645816614    0.4304751554284293    0.47390763435243705    0.5130976665468242    0.5070509655527372    
  0.46077612743900226    0.4341594299750412    0.47897049917806345    0.4842763311213997    0.48799614575520406    
  0.47390763679800774    0.4462975734075232    0.4213973877390924    0.4116663107071217    0.4213973926394557    
  0.4462975871516787    0.47390768333155076    0.48799618097546194    0.4842762512009184    0.47897049917806345    
  0.4317344242804451    0.43367749269289724    0.4349933863283044    0.4304751835517136    0.42139740230322553    
  0.41206123000814826    0.40794009894839156    0.41206122294966474    0.42139744369115345    0.4304751609312646    
  0.4349933978598993    0.4336774120296641    0.4317344242804451    0.4056288303531324    0.40794007859626297    
  0.41166626829490643    0.41308961975707026    0.41166629538291166    0.4079401037213121    0.405628888339825    
  0.40794004282775004    0.4116663144514926    0.4130896451337493    0.4116662510551595    0.4079401206397155    
  0.4056288303531324    0.4317344357921427    0.43367744973287686    0.43499339477076515    0.4304751148109225    
  0.421397429223675    0.41206122883761714    0.4079400562724303    0.4120612263793394    0.42139743148629305    
  0.4304751169171661    0.43499341763269495    0.43367734815207515    0.4317344357921427    0.47897045011016787    
  0.4842763380054279    0.4879961320585566    0.47390771535400494    0.44629761641152643    0.4213973789640487    
  0.41166629263439797    0.4213974136203947    0.446297582139469    0.47390765449973865    0.4879962246080423    
  0.48427626134709106    0.47897045011016787    0.43415944476100543    0.4607761357824399    0.5070509182660857    
  0.5130976930388806    0.4739076861121569    0.43047517217163844    0.4130896256305439    0.4304751235099071    
  0.4739077204315264    0.5130976807397978    0.5070509027394198    0.46077614265198147    0.43415944476100543    
  0.24545334392746115    0.2980482370037862    0.42335673696258963    0.5070508748596289    0.48799611556512895    
  0.4349933695211146    0.4116662435441266    0.43499336643082703    0.4879961431524559    0.5070508822536861    
  0.42335673157860604    0.29804822652112845    0.24545334392746115    0.09431553375340089    0.14248318485309583    
  0.29804823717099704    0.4607761578397018    0.48427630368618796    0.4336774311406682    0.40794010363077743    
  0.433677447871893    0.48427627930846934    0.4607761352895533    0.2980481902522553    0.1424831802935276    
  0.09431553375340089    0.05446292147690436    0.09431556187991463    0.24545339063311322    0.43415943020201053    
  0.47897056568700375    0.4317344419592552    0.4056288774836456    0.43173447315059393    0.478970512822756    
  0.43415944409200896    0.24545340641280866    0.09431555288547508    0.05446292147690436    0.09431556188046344    
  0.1424832041574595    0.2980481912158355    0.4607761328326316    0.4842763007787635    0.4336773962262779    
  0.4079401055718076    0.4336773849469706    0.4842762911707365    0.46077612753948316    0.29804819476607475    
  0.14248319032033394    0.09431556188046344    0.14248318324870318    0.1957590464545782    0.3478730620600577    
  0.4837364193832392    0.4895912398920407    0.4370912081985034    0.41206120100818794    0.43709117002764036    
  0.4895912899572363    0.48373645677611843    0.3478730798473409    0.19575901880572658    0.14248318324870318    
  0.29804818149861045    0.3478730551478382    0.4586395842199536    0.5222018824657186    0.49527887203866633    
  0.4434301320288436    0.4213973811990491    0.4434301307245167    0.4952789087134907    0.5222019469163321    
  0.4586395520715517    0.34787300931560655    0.29804818149861045    0.46077616021896944    0.48373640686471525    
  0.5222019083331112    0.5239704997947531    0.4863857399520127    0.4463335523094915    0.4304751402846322    
  0.4463335534460196    0.4863857690732487    0.5239704908607988    0.5222020122208069    0.4837364337542885    
  0.46077616021896944    0.48427628334701345    0.48959135318839225    0.49527891210143726    0.4863857948721616    
  0.46451577265738725    0.44343003921472285    0.43499342298797855    0.44343010420938356    0.4645158326694559    
  0.48638571869633246    0.49527890022187243    0.4895912897514657    0.48427628334701345    0.4336773721502641    
  0.437091232397944    0.4434301686448598    0.4463335470816685    0.4434300778493285    0.43709125814130806    
  0.433677399849332    0.4370912336046027    0.44343016092347326    0.4463335104898472    0.4434301036741316    
  0.43709128579551115    0.4336773721502641    0.40794011145030384    0.4120612375438254    0.4213973793195373    
  0.43047517966892473    0.4349934261767351    0.4336774056719083    0.4317344641247052    0.433677397174293    
  0.4349934076259335    0.4304751479226227    0.4213973760959281    0.41206123089276564    0.40794011145030384    
  0.43367737794422456    0.4370913052655788    0.44343005965512095    0.4463334418998043    0.4434300869565827    
  0.4370912148446102    0.43367742012430743    0.4370912716397051    0.44343011705616614    0.4463335247085933    
  0.4434300961443001    0.437091217333179    0.43367737794422456    0.4842762865947561    0.489591324320654    
  0.4952789079216391    0.48638569921291125    0.46451580846306745    0.4434301031055508    0.4349934028987508    
  0.4434301493522246    0.46451584871184304    0.48638571276742193    0.49527891632918963    0.48959129637707494    
  0.4842762865947561    0.46077619877563    0.48373642112917736    0.5222019509763001    0.5239705398763574    
  0.48638583837410104    0.44633350779667874    0.43047515886258003    0.4463335271956378    0.48638577296766783    
  0.5239705695574159    0.522201938905942    0.4837364319979975    0.46077619877563    0.29804818961036567    
  0.3478730801465614    0.4586395309620653    0.5222019293277054    0.49527884230985425    0.44343011136094984    
  0.4213973890567698    0.4434301056787112    0.4952788786171603    0.5222019130667691    0.4586395891336367    
  0.3478730405345761    0.29804818961036567    0.14248316283544546    0.19575903651912072    0.3478730541027324    
  0.48373639677771607    0.48959124405408844    0.4370912264712639    0.4120612322015649    0.43709128239081735    
  0.48959124985235924    0.4837363769409063    0.3478730450497838    0.19575903529900057    0.14248316283544546    
  0.09431556188046344    0.1424832041574595    0.2980481912158355    0.4607761328326316    0.4842763007787635    
  0.4336773962262779    0.4079401055718076    0.4336773849469706    0.4842762911707365    0.46077612753948316    
  0.29804819476607475    0.14248319032033394    0.09431556188046344    0.24545338184613155    0.29804821397029135    
  0.42335667381024045    0.5070509215295246    0.4879962119283221    0.4349933406626761    0.4116663150730771    
  0.43499338749703337    0.4879961850117593    0.5070509278399739    0.42335667653328557    0.2980482191275308    
  0.24545338184613155    0.29804818054707266    0.34787304388160567    0.4586395759107496    0.5222019571091439    
  0.49527884010837975    0.4434301196915606    0.42139738963632023    0.44343011279792827    0.4952788750680937    
  0.5222019983579611    0.4586395886597758    0.34787300372866753    0.29804818054707266    0.4233566654858874    
  0.4586395723071954    0.5254802809253236    0.5468877923317966    0.5100075871851981    0.4645158083566896    
  0.4462976091518849    0.4645158560338659    0.5100076232207871    0.5468878311256861    0.5254802389836785    
  0.4586395474710973    0.4233566654858874    0.507050915668458    0.5222019243620707    0.5468878461586203    
  0.5461434492984554    0.5174297512851136    0.4863857859091191    0.47390765542562263    0.48638578732366555    
  0.5174297484965513    0.5461434598944884    0.546887945114165    0.5222018664136219    0.507050915668458    
  0.487996104808582    0.49527891896834514    0.5100075738504288    0.5174297372370839    0.5100075554286978    
  0.4952788516296109    0.4879961711223507    0.4952788398247785    0.510007607771999    0.5174296927317412    
  0.5100076143897773    0.49527886467142324    0.487996104808582    0.43499336306613134    0.4434301173825744    
  0.46451585630627695    0.4863858015619468    0.4952788205933152    0.4895912962117681    0.48427629120553767    
  0.4895912709652931    0.49527893935704137    0.4863857323350061    0.46451581612042536    0.4434301161231933    
  0.43499336306613134    0.41166629882369316    0.4213974066155829    0.4462975455670194    0.47390771262227704    
  0.4879961572260976    0.4842762980665966    0.47897050762479293    0.48427624009917    0.4879961364923576    
  0.47390763696405647    0.4462975316282349    0.42139740804237924    0.41166629882369316    0.4349934040453681    
  0.44343010738129346    0.4645158157985254    0.4863856773934674    0.49527886082061023    0.48959128629565485    
  0.48427626064087725    0.48959129478287444    0.49527888003344295    0.48638581498259015    0.46451588297228324    
  0.4434300509692979    0.4349934040453681    0.48799615322333717    0.4952789200217008    0.5100076029460047    
  0.5174296934950897    0.5100075806911348    0.49527893794473027    0.4879961869306068    0.4952789239887528    
  0.5100075675582075    0.5174297046918666    0.5100076494750684    0.49527883687586416    0.48799615322333717    
  0.5070509363131135    0.5222019385755757    0.5468879331687194    0.5461434552210646    0.5174297963976334    
  0.4863858007025117    0.4739076651844622    0.4863857820655004    0.5174297774117602    0.5461434490344689    
  0.5468878809228973    0.5222019125992223    0.5070509363131135    0.42335659836289247    0.4586396134540744    
  0.5254802328996285    0.5468878912729646    0.5100075141833782    0.46451580278322024    0.4462975413552718    
  0.46451585908506426    0.51000758309218    0.5468879013084554    0.5254802997428242    0.45863955573028425    
  0.42335659836289247    0.2980481680649019    0.3478730479526888    0.4586395575095641    0.5222019884086357    
  0.49527883033454095    0.44343010953663065    0.42139737249551906    0.4434301174469207    0.49527890648248435    
  0.5222019265845725    0.4586395120874743    0.3478730419917617    0.2980481680649019    0.24545338184613155    
  0.29804821397029135    0.42335667381024045    0.5070509215295246    0.4879962119283221    0.4349933406626761    
  0.4116663150730771    0.43499338749703337    0.4879961850117593    0.5070509278399739    0.42335667653328557    
  0.2980482191275308    0.24545338184613155    0.43415944833148645    0.4607761712882566    0.5070508755125241    
  0.5130976912960422    0.47390773392900437    0.43047513789167713    0.4130896266593202    0.43047513179095603    
  0.4739076901516861    0.5130976914480143    0.5070509052476856    0.46077619184562935    0.43415944833148645    
  0.460776100597183    0.48373644694122153    0.5222019510756454    0.5239705062871911    0.4863857884193004    
  0.44633352867630205    0.43047511923349635    0.44633349866973593    0.48638582356597576    0.5239705276281478    
  0.5222019228416571    0.483736382894839    0.460776100597183    0.5070508642357167    0.5222019747205257    
  0.5468879383153558    0.5461434575262103    0.5174297419859472    0.48638581259366215    0.47390765725318207    
  0.48638578932368143    0.5174297252700308    0.5461434476896435    0.5468879041866554    0.5222019298225143    
  0.5070508642357167    0.5130976973370462    0.5239705267592957    0.5461434672653838    0.5574523164888364    
  0.5461434481942806    0.5239704965209198    0.5130977406334579    0.5239705019137749    0.5461434257989026    
  0.5574522314462917    0.5461434707321141    0.5239705139164261    0.5130976973370462    0.4739076843512457    
  0.4863858154985984    0.5174296995614481    0.5461434139190168    0.5468878566810175    0.5222019142230208    
  0.5070509232161236    0.5222019488344436    0.5468878806987337    0.5461434202068185    0.5174297298034345    
  0.4863857583040528    0.4739076843512457    0.43047509489484337    0.446333581513728    0.4863857810587448    
  0.5239705475664802    0.5222019340820045    0.48373645575581137    0.4607761351586269    0.48373643126938776    
  0.5222019509930191    0.523970512709887    0.48638575726740413    0.4463335010649936    0.43047509489484337    
  0.41308962511648095    0.43047510690054913    0.4739076621283293    0.5130976605657399    0.507050928637874    
  0.4607762069654725    0.43415943541608676    0.4607760917495259    0.5070509374748368    0.5130977002546835    
  0.4739076827417407    0.43047520621471064    0.41308962511648095    0.4304750924982752    0.44633357696718984    
  0.4863857740675634    0.5239704224181255    0.522201945144733    0.48373640022725245    0.4607761125384946    
  0.4837364007631637    0.5222019547628374    0.5239705033306894    0.48638573721941164    0.44633345903605015    
  0.4304750924982752    0.47390763212755554    0.48638583034450394    0.5174297034935961    0.5461434506628163    
  0.5468879090164295    0.522201888229648    0.5070509119174177    0.5222019373433641    0.5468879074942121    
  0.5461434195067195    0.5174298363494678    0.48638572264084395    0.47390763212755554    0.5130977242365495    
  0.5239704811674896    0.5461434344525613    0.5574522420813863    0.546143482396182    0.5239705046572624    
  0.5130976871506269    0.5239705102291472    0.5461434429022853    0.5574522833235336    0.5461434404542851    
  0.5239705082588166    0.5130977242365495    0.5070508492737311    0.522201987864642    0.5468879221542964    
  0.5461434027783654    0.5174297212394858    0.4863857403843583    0.4739076373698577    0.48638574383658495    
  0.5174297307379851    0.5461434285297914    0.5468879521726968    0.5222019428206565    0.5070508492737311    
  0.4607760770834767    0.4837364227307691    0.5222019569913843    0.5239705072531144    0.48638578251556214    
  0.44633353960029887    0.43047516959048265    0.44633356521110473    0.4863858111581159    0.5239704635364224    
  0.5222019302196739    0.4837364016639413    0.4607760770834767    0.43415944833148645    0.4607761712882566    
  0.5070508755125241    0.5130976912960422    0.47390773392900437    0.43047513789167713    0.4130896266593202    
  0.43047513179095603    0.4739076901516861    0.5130976914480143    0.5070509052476856    0.46077619184562935    
  0.43415944833148645    0.4789705296892855    0.484276287200375    0.4879961589421115    0.4739076403368648    
  0.4462975971426987    0.42139737110057535    0.4116663360764072    0.42139734437995086    0.44629760467605467    
  0.47390763017672327    0.4879961653366356    0.4842763294313159    0.4789705296892855    0.4842762615834348    
  0.4895913278411519    0.49527888306373463    0.4863857883829833    0.4645157832109738    0.4434301098058064    
  0.43499334090409775    0.4434300332325044    0.46451579549969807    0.48638583333426133    0.4952789088068775    
  0.48959126694318145    0.4842762615834348    0.4879961558375838    0.4952788981005335    0.5100076170441717    
  0.5174296763551994    0.5100075919664158    0.49527887764515066    0.48799621953213207    0.4952788527244137    
  0.5100076314840847    0.5174297341629629    0.5100076029697905    0.4952788295452044    0.4879961558375838    
  0.47390766857694366    0.4863857720662142    0.5174297733521898    0.546143443699647    0.5468878676804513    
  0.5222019659984223    0.5070508860615289    0.5222019785039785    0.5468878534001691    0.5461435020025567    
  0.5174297817145691    0.4863857872321365    0.47390766857694366    0.4462975430642276    0.46451585467496415    
  0.510007631644939    0.5468879077884126    0.5254802494856545    0.4586394797745352    0.42335670035976714    
  0.4586395396765557    0.5254802381735404    0.5468878583211377    0.5100075978905967    0.4645158014547805    
  0.4462975430642276    0.4213973271453998    0.44343011266191773    0.4952789483791427    0.5222019125151076    
  0.45863950255363384    0.3478730329999702    0.29804819580316827    0.3478730439257819    0.458639644747488    
  0.5222018863603156    0.4952788803780857    0.44343011615859923    0.4213973271453998    0.4116663112227411    
  0.43499340615696136    0.48799614622221665    0.5070509508080118    0.42335670769301803    0.29804822068575115    
  0.24545340024567236    0.2980481990688923    0.4233567176270958    0.5070509245135029    0.4879961415985336    
  0.4349934119081645    0.4116663112227411    0.42139732929755336    0.44343013782603174    0.4952789081053002    
  0.5222018027794232    0.4586395546155901    0.3478730434433232    0.298048204992364    0.3478730368839825    
  0.4586396204947324    0.5222019373359519    0.4952788688494259    0.4434300535402367    0.42139732929755336    
  0.44629755767148405    0.46451591758124766    0.5100075788778649    0.5468878513564052    0.5254802068349205    
  0.4586396075722329    0.42335672710534084    0.4586395676402939    0.5254802448607873    0.5468878686237822    
  0.5100076045904628    0.464515828427524    0.44629755767148405    0.4739077232360252    0.48638579132485343    
  0.5174297922445606    0.5461434668628443    0.5468879771529896    0.5222019031195301    0.5070508794885766    
  0.5222019890376712    0.5468878947917776    0.5461434966599903    0.5174297914699528    0.4863857562239051    
  0.4739077232360252    0.4879961122711073    0.4952789473523569    0.5100075446467681    0.5174297437734003    
  0.5100075310176624    0.4952788848763445    0.4879961372088317    0.49527890114774076    0.510007591136202    
  0.5174297250460367    0.5100076338829644    0.49527891767740756    0.4879961122711073    0.4842762068878044    
  0.4895912986054214    0.49527891374027094    0.4863857801269122    0.46451575926229605    0.44343011271442556    
  0.43499336966070934    0.443430131695628    0.46451579319053354    0.48638573623645    0.49527886162424223    
  0.4895913002712938    0.4842762068878044    0.4789705296892855    0.484276287200375    0.4879961589421115    
  0.4739076403368648    0.4462975971426987    0.42139737110057535    0.4116663360764072    0.42139734437995086    
  0.44629760467605467    0.47390763017672327    0.4879961653366356    0.4842763294313159    0.4789705296892855    
  0.43173443950470686    0.4336774370334261    0.43499336259285737    0.4304751748297615    0.4213973795951807    
  0.41206115687242956    0.40794011590568674    0.4120612451313228    0.4213974304271108    0.4304751240982432    
  0.4349933797415666    0.4336774342277435    0.43173443950470686    0.4336774015824543    0.4370912730749059    
  0.44343011999528037    0.4463335042315283    0.4434300940006937    0.43709121027047965    0.43367736931802575    
  0.4370912371561731    0.4434301060224644    0.4463335812984506    0.44343014993874025    0.4370912014768439    
  0.4336774015824543    0.4349933480114549    0.443430139393366    0.4645158206714091    0.48638570644219264    
  0.49527888534147374    0.4895913176741415    0.4842762975054059    0.4895912943665146    0.4952788936546879    
  0.4863857691780614    0.464515842128469    0.4434300643562159    0.4349933480114549    0.43047519367965736    
  0.44633353346219207    0.48638570850679763    0.5239704849784805    0.5222019613415222    0.48373646156394057    
  0.4607761883847224    0.4837363950714877    0.5222019270987717    0.523970528109274    0.48638582965704985    
  0.4463334774721979    0.43047519367965736    0.42139734059908146    0.44343011646064506    0.49527887778789365    
  0.5222019113243241    0.4586395807357128    0.3478729925809731    0.2980482064313863    0.3478730211866543    
  0.45863959376094854    0.5222018737883586    0.4952788579806462    0.44343012686691063    0.42139734059908146    
  0.4120611971261046    0.4370912763134964    0.489591287802038    0.4837364180406849    0.34787298791029264    
  0.19575903053334606    0.1424831696659764    0.1957590291567038    0.34787306513585803    0.4837363857608764    
  0.48959131392612293    0.4370912934987325    0.4120611971261046    0.4079400952978169    0.43367741625153683    
  0.48427632874406296    0.4607761895637378    0.29804824123281687    0.14248317794960427    0.09431556094352053    
  0.14248315540882586    0.2980482276295042    0.4607760757938758    0.4842762874414192    0.43367746506001364    
  0.4079400952978169    0.4120611966536072    0.43709130459075524    0.48959128185325723    0.4837363583719008    
  0.34787300896445483    0.19575903579894352    0.1424831590381063    0.19575902798174963    0.3478730375428454    
  0.4837364621748127    0.48959132685139933    0.4370912175118382    0.4120611966536072    0.4213973358809689    
  0.44343015692066173    0.49527890807872205    0.5222018375580549    0.4586395241199842    0.34787307241675075    
  0.2980482073396724    0.3478730716926132    0.45863955486202995    0.5222018382377109    0.4952789433699827    
  0.443430052749836    0.4213973358809689    0.4304751697192989    0.4463335470032393    0.48638579041073016    
  0.5239704941473453    0.522201995340756    0.48373639990108097    0.4607761008203527    0.4837364141620056    
  0.5222019449237987    0.5239705218559538    0.48638577053625126    0.4463334960950463    0.4304751697192989    
  0.43499332211123926    0.44343012627712874    0.4645158008739387    0.4863857702199932    0.4952788641243213    
  0.48959129313058153    0.48427624725752894    0.4895912909655188    0.4952789372429106    0.48638577400038    
  0.4645158564587168    0.4434301023635481    0.43499332211123926    0.4336773739213891    0.4370912717601988    
  0.4434301336225986    0.4463335791723472    0.44343008119774235    0.4370912698408617    0.4336773678869508    
  0.4370912802653117    0.4434301064084351    0.4463335385995591    0.4434300693654467    0.43709126183078506    
  0.4336773739213891    0.43173443950470686    0.4336774370334261    0.43499336259285737    0.4304751748297615    
  0.4213973795951807    0.41206115687242956    0.40794011590568674    0.4120612451313228    0.4213974304271108    
  0.4304751240982432    0.4349933797415666    0.4336774342277435    0.43173443950470686    0.40562885181860275    
  0.40794009433481726    0.4116662996885285    0.4130896160164461    0.4116663456952414    0.407940069578151    
  0.40562886934582043    0.407940081315165    0.41166630206081783    0.41308962431147156    0.41166631307436313    
  0.4079400971257167    0.40562885181860275    0.40794005564516617    0.4120612492453181    0.4213974280074828    
  0.4304751325377392    0.4349934205891158    0.4336774468236585    0.4317344552472103    0.4336773994933383    
  0.4349934226245259    0.4304751434088094    0.42139736870039785    0.41206118736503883    0.40794005564516617    
  0.4116662719209912    0.42139744458683537    0.4462975997816079    0.4739076630257081    0.48799615688806186    
  0.48427628753225943    0.47897046152693146    0.48427626624047987    0.487996147371753    0.47390772503227285    
  0.44629759245076817    0.42139736537960065    0.4116662719209912    0.41308961509216346    0.43047515994218993    
  0.4739076807994876    0.5130977106121579    0.5070509507080017    0.46077614783886817    0.4341594576735555    
  0.46077617461538994    0.5070508486614566    0.5130976754809237    0.4739077433944574    0.4304751153177314    
  0.41308961509216346    0.41166628000583466    0.43499344507284765    0.48799614176388867    0.5070508728730989    
  0.4233566795087379    0.29804821511435814    0.24545340166170496    0.29804821758017486    0.42335671551307513    
  0.5070508929458984    0.4879961752723204    0.4349933750253587    0.41166628000583466    0.40794005251306364    
  0.43367748916965965    0.48427627841257354    0.4607761901936659    0.2980482231471201    0.1424831826627794    
  0.09431556354897105    0.1424831806107992    0.29804825146623176    0.4607761691155451    0.4842762829780751    
  0.43367741164267315    0.40794005251306364    0.4056288314653401    0.43173447766601597    0.4789704637302584    
  0.43415944791712885    0.2454533869317388    0.09431556764816139    0.054462929360224344    0.09431554131817496    
  0.24545340004732658    0.43415947357760304    0.4789704661788492    0.4317345132128698    0.4056288314653401    
  0.4079400715745528    0.4336774478190384    0.4842762742218433    0.4607761075894415    0.29804825235326804    
  0.1424831823044018    0.09431554780145689    0.14248318155771958    0.2980482465802916    0.4607761291156768    
  0.48427632446479585    0.43367735635086085    0.4079400715745528    0.41166623521421625    0.43499344892696734    
  0.48799613587839424    0.5070509200115829    0.4233567325826025    0.2980482070423697    0.2454533780966068    
  0.2980482397137695    0.42335670000113773    0.5070508670497441    0.48799621770043566    0.4349933766109288    
  0.41166623521421625    0.41308963931987325    0.4304751303998346    0.47390769268008776    0.5130976708983392    
  0.5070509147217709    0.460776169476179    0.4341594401268897    0.46077614504720155    0.5070509343335218    
  0.5130976801848722    0.4739076797186559    0.4304751398012668    0.41308963931987325    0.4116662291314155    
  0.42139741064914044    0.446297620876195    0.473907657971153    0.48799610781768404    0.48427625847955025    
  0.4789704517685819    0.4842762365956189    0.4879961461930788    0.4739076410474279    0.44629760378154243    
  0.4213974173917958    0.4116662291314155    0.4079400303391564    0.41206124560183155    0.42139741703567074    
  0.43047514254871266    0.4349934251941078    0.4336774502751785    0.43173448036508816    0.4336774520635966    
  0.4349933978582988    0.43047514408266013    0.42139736387464216    0.41206122154735764    0.4079400303391564    
  0.40562885181860275    0.40794009433481726    0.4116662996885285    0.4130896160164461    0.4116663456952414    
  0.407940069578151    0.40562886934582043    0.407940081315165    0.41166630206081783    0.41308962431147156    
  0.41166631307436313    0.4079400971257167    0.40562885181860275    0.4317344801688271    0.43367745459452184    
  0.43499336504348907    0.4304751266813329    0.42139741389731933    0.412061220729448    0.40794010167384065    
  0.4120611887243046    0.4213973996035833    0.43047512037434926    0.4349933778237351    0.43367744225575644    
  0.4317344801688271    0.4336774287700859    0.4370912559685823    0.44343013181763286    0.4463335335498626    
  0.4434300664334625    0.4370912205800546    0.43367738959167457    0.4370911814503545    0.4434300860684534    
  0.4463335636184546    0.44343015527976337    0.437091209265661    0.4336774287700859    0.4349933581552115    
  0.4434301288444537    0.464515853950802    0.4863857205741533    0.49527886068902144    0.4895913282089694    
  0.4842762700378698    0.48959130856246835    0.4952788917404101    0.4863857781667054    0.46451583217962733    
  0.4434300725433631    0.4349933581552115    0.43047516131866165    0.44633351704041996    0.4863857636095038    
  0.523970475462517    0.5222018869692056    0.4837364323877805    0.4607761344432715    0.48373644411191047    
  0.5222019307768938    0.5239704848171056    0.48638584875562857    0.4463335426539014    0.43047516131866165    
  0.4213973966157145    0.4434301671813544    0.49527889445851864    0.522201948809756    0.45863950645444557    
  0.3478729736615027    0.29804823950501147    0.34787304999393787    0.45863955889643837    0.5222018723650597    
  0.4952788977396819    0.4434300987455786    0.4213973966157145    0.41206118067528263    0.4370912395205045    
  0.4895913408510871    0.4837364405873614    0.34787301435906215    0.1957590329599136    0.14248316900609753    
  0.19575903484799226    0.3478730858409439    0.4837363937864951    0.48959129555131486    0.43709129799548707    
  0.41206118067528263    0.4079401055407492    0.4336774469892948    0.48427627199782347    0.46077618978351725    
  0.29804823199336233    0.14248317125095913    0.09431555500775778    0.14248317064697866    0.29804821365229545    
  0.4607761395692683    0.48427626985979283    0.43367742029596623    0.4079401055407492    0.41206118516533496    
  0.4370913061380302    0.48959124536448045    0.4837363310096902    0.3478730130772412    0.1957590265401498    
  0.14248317282514403    0.1957590425985721    0.347873047452807    0.4837364214997701    0.4895912805576338    