#     DFTpy    
  CRYSTAL 
    
  PRIMVEC    
  3.239172413793103    0.0    0.0    
  0.0    3.239172413793103    0.0    
  0.0    0.0    3.239172413793103    
  PRIMCOORD    
  2    1    
  Si    0.0    0.0    0.0    
  Si    1.6195862068965514    1.6195862068965514    1.6195862068965514    
  BEGIN_BLOCK_DATAGRID_3D    
  3d_datagrid_density    
  BEGIN_DATAGRID_3D#0    
  15    15    15    
  0.0    0.0    0.0    
  3.239172413793103    0.0    0.0    
  0.0    3.239172413793103    0.0    
  0.0    0.0    3.239172413793103    
  0.055460216400398776    0.09860078290669311    0.2470805463132799    0.36995076393334414    0.32253837093057547    
  0.22392335606938518    0.16156301703105894    0.1421820483100305    0.16156299751287373    0.22392340488186524    
  0.3225384688417839    0.36995073855231764    0.2470804082284927    0.09860081577880617    0.055460216400398776    
  0.09860083235460679    0.14869693911470644    0.29013179976669956    0.37702677884862373    0.3148752421529233    
  0.21905413902451523    0.15996741669576572    0.1416195785156759    0.15996736781691076    0.2190541049676583    
  0.3148752807629274    0.37702679997026983    0.2901317420360415    0.1486969855632627    0.09860083235460679    
  0.24708048934155152    0.2901316925686429    0.3693181777152901    0.3705038108710076    0.28861702452028903    
  0.2051668643533111    0.15571902728073095    0.1402744768032292    0.15571898156276065    0.2051668450096262    
  0.288617004260207    0.37050387494599846    0.36931809289986006    0.29013179436011355    0.24708048934155152    
  0.3699508720091807    0.37702674628157423    0.3705038204765928    0.31945797273728377    0.2464386352795944    
  0.18607311074499475    0.15054010971411672    0.13918134068399374    0.15054003557919965    0.1860730940566032    
  0.2464386243576809    0.3194579461972662    0.37050377624581127    0.37702683674131304    0.3699508720091807    
  0.3225384435032693    0.31487529280393917    0.28861710275240915    0.2464386681611589    0.20213383939503446    
  0.1672591412892384    0.1461396592778604    0.13918140624537045    0.1461395979980785    0.16725913270518653    
  0.20213389506624965    0.2464385867928901    0.28861708356209925    0.3148752718861955    0.3225384435032693    
  0.22392340665808275    0.21905413602488297    0.20516681342062768    0.18607308767941036    0.16725911152315998    
  0.15243107133757777    0.14331148720123488    0.1402744416558766    0.14331148341311098    0.15243106855662023    
  0.1672591115620833    0.18607311120552134    0.20516680370981377    0.2190541775576494    0.22392340665808275    
  0.16156304285514758    0.15996734717949698    0.15571904985858745    0.1505400649555289    0.14613961773291415    
  0.14331146972746228    0.14198080221486586    0.14161958381919384    0.1419806891359986    0.14331143181238887    
  0.14613965890587793    0.15054007236635478    0.155718947107277    0.15996737265408917    0.16156304285514758    
  0.14218204386764888    0.14161953820106526    0.1402745170603621    0.13918128790234985    0.13918133369703958    
  0.14027441426528509    0.1416196094122209    0.1421820096630211    0.14161959394946655    0.14027444865303937    
  0.13918141885367183    0.139181274253304    0.14027442886865987    0.14161956179650115    0.14218204386764888    
  0.1615630592686263    0.1599673449349332    0.15571897395557455    0.15054009678798594    0.14613965066375448    
  0.14331145917383312    0.14198081708081914    0.14161959809381744    0.14198070617252742    0.14331145529850162    
  0.14613963548095887    0.15054008471828112    0.15571895803493602    0.1599673775986139    0.1615630592686263    
  0.22392340861545168    0.21905411662107288    0.20516682704529407    0.18607309021523466    0.16725908692794114    
  0.1524310861186961    0.143311505713883    0.14027441494141157    0.14331144373223967    0.15243104802866533    
  0.1672591344335031    0.18607312590200256    0.20516682232394326    0.21905415507118986    0.22392340861545168    
  0.3225384859314571    0.31487521693880377    0.2886170952722849    0.2464386275744875    0.2021338644526689    
  0.16725911832631252    0.14613962991924434    0.1391813793288963    0.14613961360443967    0.16725912368591286    
  0.20213385169975184    0.24643867667901734    0.2886170561075985    0.31487534475331275    0.3225384859314571    
  0.3699508819211223    0.3770267406332091    0.37050386337120506    0.3194579570141246    0.24643859548256375    
  0.18607309398649752    0.15054010825881112    0.13918134473560023    0.15054002479823392    0.18607308060403416    
  0.24643864932556278    0.3194579745791088    0.3705038235071994    0.37702678330386    0.3699508819211223    
  0.24708048986572906    0.29013176594569506    0.3693181129430881    0.37050382955442235    0.2886170756658591    
  0.20516683818564332    0.1557189837065599    0.1402745021802794    0.15571897147570518    0.2051668157141593    
  0.2886170128773055    0.3705038374638266    0.3693180609399679    0.29013176870025403    0.24708048986572906    
  0.09860080558662072    0.1486969527503592    0.290131771071913    0.3770267915501894    0.3148752511394638    
  0.2190541345118384    0.15996741557387884    0.14161957736777198    0.15996733601616145    0.21905403431236065    
  0.3148753521063487    0.37702688053311056    0.2901317168090588    0.1486969441487996    0.09860080558662072    
  0.055460216400398776    0.09860078290669311    0.2470805463132799    0.36995076393334414    0.32253837093057547    
  0.22392335606938518    0.16156301703105894    0.1421820483100305    0.16156299751287373    0.22392340488186524    
  0.3225384688417839    0.36995073855231764    0.2470804082284927    0.09860081577880617    0.055460216400398776    
  0.0986007858814538    0.1486969669174207    0.29013175291912013    0.37702676263313045    0.3148752625282794    
  0.21905410825042687    0.15996740267215087    0.14161957129071498    0.15996735298380158    0.2190541315603767    
  0.3148753256749291    0.37702674028770927    0.2901316090963995    0.14869696794887063    0.0986007858814538    
  0.14869696295922788    0.20058827443491267    0.32578296817230584    0.3796683366629873    0.30738292091451924    
  0.21520607017233442    0.1593606958082317    0.14198082945582913    0.15936063936546352    0.21520603546249487    
  0.30738300699470905    0.3796683700986149    0.3257828892226219    0.20058825584622478    0.14869696295922788    
  0.2901317749894343    0.32578291029863327    0.3827363175183701    0.36608018824994365    0.28337421369151977    
  0.20455651394172833    0.15798450228653435    0.14331142096834298    0.15798447587630007    0.2045564870873117    
  0.2833742171932933    0.36608016909497315    0.3827362336241597    0.32578300328406684    0.2901317749894343    
  0.37702689000005685    0.37966829046014466    0.36608012337904333    0.31458291671678207    0.24621571595996886    
  0.19023855180919255    0.15693589610634084    0.14613969494146664    0.15693584740777944    0.19023852987653084    
  0.24621569545566746    0.31458291959699125    0.3660801065000933    0.37966836800073905    0.37702689000005685    
  0.3148752940133018    0.3073829925777279    0.2833743028950859    0.2462157378225778    0.20719145661226618    
  0.17607773705287888    0.15693593195806899    0.15054005199645812    0.15693587781676285    0.17607772476683062    
  0.20719154172397963    0.24621569072146837    0.283374259434939    0.3073829694592977    0.3148752940133018    
  0.2190541335361021    0.2152060335759803    0.20455649802028683    0.19023853530484197    0.17607770358438976    
  0.1648502943403495    0.1579844289584329    0.15571905810343148    0.15798444709517698    0.1648502536420265    
  0.17607769762975164    0.19023856811709933    0.20455645087153695    0.21520607513307993    0.2190541335361021    
  0.1599673985969816    0.1593606586701761    0.15798449871088724    0.15693584854794607    0.15693591985202673    
  0.15798441665826876    0.15936072022898362    0.15996731395171168    0.15936066171012395    0.15798438297568723    
  0.15693593113077997    0.1569358837882089    0.1579844552726573    0.15936068894819888    0.1599673985969816    
  0.14161958398907568    0.14198077658611832    0.14331144140579463    0.14613964403299018    0.15054002680476833    
  0.155719018470117    0.15996735038332488    0.1615630780357069    0.15996730626196226    0.1557190867421426    
  0.15054009049818468    0.1461396679343282    0.14331137233880265    0.14198076671337997    0.14161958398907568    
  0.15996742059853578    0.15936064745884532    0.1579844564436106    0.15693590086880346    0.156935907765405    
  0.1579844013331468    0.1593607483840688    0.15996732763450092    0.15936067933966022    0.15798441311538045    
  0.1569359269349436    0.15693589960071175    0.15798441956520046    0.1593606336033556    0.15996742059853578    
  0.21905416680969114    0.21520605196387407    0.20455650032858633    0.19023856741820902    0.17607771373634334    
  0.16485027415095596    0.15798443508111545    0.155719054019789    0.15798438148423896    0.16485028135426416    
  0.17607775874410103    0.19023858529237755    0.20455646265983332    0.21520609262174525    0.21905416680969114    
  0.3148752875288226    0.30738297869726294    0.2833742325391224    0.24621572206716108    0.20719147148156689    
  0.17607773816393393    0.15693593122545782    0.15054005332923287    0.1569358798382441    0.17607773298709523    
  0.20719151358403964    0.24621568040034317    0.28337420966342264    0.3073830297520788    0.3148752875288226    
  0.37702690911730324    0.37966830125190304    0.3660802078439753    0.31458291632050395    0.24621565701698242    
  0.1902385201609467    0.1569358883286801    0.14613969240145427    0.15693579448015102    0.19023855752057278    
  0.24621575025113124    0.31458290324056787    0.36608014758036694    0.3796683249744633    0.37702690911730324    
  0.2901317476500808    0.32578296990787603    0.3827362878284321    0.3660801354515724    0.2833741896375372    
  0.20455650582318055    0.15798450036072018    0.14331146418249613    0.15798449702469167    0.2045564823990463    
  0.28337419448008694    0.3660801350747012    0.38273623022561565    0.32578297832748737    0.2901317476500808    
  0.148697008365392    0.20058827745471108    0.3257829851465563    0.3796683687756454    0.30738297867407394    
  0.21520603861699003    0.15936069246782003    0.14198081569341914    0.15936064231296584    0.21520604426933473    
  0.30738301685478914    0.3796683712743164    0.32578288265848443    0.20058826905465582    0.148697008365392    
  0.0986007858814538    0.1486969669174207    0.29013175291912013    0.37702676263313045    0.3148752625282794    
  0.21905410825042687    0.15996740267215087    0.14161957129071498    0.15996735298380158    0.2190541315603767    
  0.3148753256749291    0.37702674028770927    0.2901316090963995    0.14869696794887063    0.0986007858814538    
  0.24708043648205574    0.29013171407815674    0.3693181713464471    0.37050380074873773    0.2886170942210515    
  0.20516683954769294    0.15571901556216147    0.14027448192167663    0.15571897902748724    0.20516685497034665    
  0.2886171215617217    0.37050383242209933    0.3693180066028519    0.2901317357739053    0.24708043648205574    
  0.29013177933342715    0.3257829591253708    0.3827363998472395    0.36608015025274265    0.28337422499500986    
  0.20455650704122338    0.15798454066262463    0.14331143451129258    0.1579844567116703    0.20455651660793642    
  0.2833742200707598    0.36608020151743387    0.38273625431449926    0.325782977893666    0.29013177933342715    
  0.3693181957692694    0.38273628372391566    0.3891637522879928    0.3439823835785047    0.2679318195599257    
  0.203242188278619    0.1648502426323647    0.152431147225327    0.1648501992903627    0.2032421815884726    
  0.26793183915856955    0.34398236425130985    0.3891637187499711    0.38273635573214426    0.3693181957692694    
  0.3705038501186368    0.36608008978824    0.3439823923017447    0.29855738683270644    0.24531297270756325    
  0.20232895134506293    0.17607781851476545    0.1672590558192714    0.17607778066546914    0.20232893020773451    
  0.24531301773883066    0.29855736467127175    0.3439823143089519    0.36608018489410515    0.3705038501186368    
  0.28861714927581683    0.28337424141699336    0.267931932654848    0.24531300915694854    0.2215604279185323    
  0.20232900944518323    0.19023850234174505    0.18607322215888084    0.19023847910380315    0.20232902425674235    
  0.22156050147246825    0.24531296418351944    0.26793189186764693    0.28337421928866907    0.28861714927581683    
  0.2051668258717101    0.20455648104996585    0.20324211542335188    0.20232895407361615    0.20232896846039441    
  0.20324211283055912    0.20455656950743523    0.20516681677514703    0.20455656387469945    0.20324209404554547    
  0.2023289781797177    0.20232895272748036    0.20324214108623298    0.20455654103565568    0.2051668258717101    
  0.15571901131955126    0.15798445407357678    0.1648502566475636    0.17607777628596966    0.19023851717235526    
  0.20455655137231862    0.21520601824749439    0.2190542098996367    0.21520593072285574    0.20455650624438895    
  0.19023855156340186    0.17607780833827547    0.1648501802471058    0.1579844779125315    0.15571901131955126    
  0.14027449065577505    0.14331139004056906    0.15243113897598304    0.16725903704194148    0.186073121202476    
  0.20516676869061315    0.21905418836459303    0.22392337499438622    0.2190541763692835    0.2051667835387063    
  0.18607322804290707    0.1672590464633896    0.15243104405549476    0.14331139589137346    0.14027449065577505    
  0.15571904344075527    0.1579844693562855    0.16485020873317116    0.1760778265817965    0.19023848408976277    
  0.20455651811122758    0.21520602244248407    0.21905419084826766    0.21520598697427198    0.20455653256657236    
  0.19023850126284075    0.17607783041763383    0.16485016428234583    0.15798443950506236    0.15571904344075527    
  0.2051668545460029    0.2045564938208414    0.20324216381358817    0.2023289548663872    0.20232900281954316    
  0.20324217294592678    0.20455657633709917    0.20516682297564726    0.20455651996974844    0.20324209193450815    
  0.20232901359490574    0.20232897498743022    0.20324212531133523    0.20455655478027476    0.2051668545460029    
  0.288617139807392    0.28337417462437087    0.2679319512091583    0.24531299593891373    0.22156048002180334    
  0.20232901680821797    0.19023855424147124    0.1860731846344741    0.19023851090806965    0.2023290008405774    
  0.22156047547965385    0.24531297817666786    0.2679318818948596    0.28337427353707884    0.288617139807392    
  0.37050394161664413    0.36608014568999026    0.3439823725987368    0.2985573395046053    0.24531297074654895    
  0.20232891944868195    0.17607781969800232    0.16725910153970247    0.17607779125975329    0.20232895055768713    
  0.24531302523858578    0.29855733971214643    0.343982329500254    0.3660801943232184    0.37050394161664413    
  0.3693182041511615    0.38273629000306464    0.38916376378133516    0.3439823860583441    0.2679318493332831    
  0.2032421708984839    0.16485020327831365    0.15243114143833025    0.1648502024690208    0.2032421585456884    
  0.2679318710478744    0.3439824006445091    0.38916367682785546    0.3827363329803184    0.3693182041511615    
  0.29013173690366223    0.32578300542696553    0.382736369834611    0.36608013821442964    0.28337422621887914    
  0.2045564897767024    0.15798450052878857    0.14331145552448302    0.1579844642767402    0.20455644238214704    
  0.2833742812607328    0.36608018875174814    0.382736213386624    0.32578293929774715    0.29013173690366223    
  0.24708043648205574    0.29013171407815674    0.3693181713464471    0.37050380074873773    0.2886170942210515    
  0.20516683954769294    0.15571901556216147    0.14027448192167663    0.15571897902748724    0.20516685497034665    
  0.2886171215617217    0.37050383242209933    0.3693180066028519    0.2901317357739053    0.24708043648205574    
  0.3699508286811852    0.37702680437304015    0.3705038463175648    0.3194579642998409    0.24643868790263934    
  0.18607307126413297    0.15054008071991404    0.13918131877543796    0.15054006196663758    0.18607310717840708    
  0.24643871113375887    0.31945790934095647    0.37050371430101586    0.3770267477815732    0.3699508286811852    
  0.37702682582386643    0.37966828835893834    0.3660801855138418    0.31458288647331745    0.2462157166032075    
  0.19023858961852239    0.15693590140355354    0.1461396938694651    0.15693583306393075    0.19023850624742325    
  0.24621576404807816    0.314582950905703    0.3660801181235016    0.37966834166117225    0.37702682582386643    
  0.3705038462689374    0.36608011222801823    0.3439823273833001    0.29855738976210944    0.2453129817527142    
  0.20232895716194016    0.17607781228061975    0.16725908187090757    0.17607775287960808    0.20232896802831132    
  0.24531303201344817    0.298557412329447    0.3439823157806853    0.36608014382654025    0.3705038462689374    
  0.31945805697001994    0.31458287023119147    0.2985573633580129    0.272651394747866    0.24437133753770718    
  0.22156060328420893    0.20719152437392616    0.2021339797844522    0.20719146769056915    0.2215605799210978    
  0.24437131036124338    0.27265136809097845    0.2985573361754364    0.31458296839221506    0.31945805697001994    
  0.24643871634392314    0.24621576006917767    0.24531301166057184    0.24437133678055895    0.24437132552254465    
  0.24531298977656324    0.2462158488554494    0.24643871394357478    0.2462157818735486    0.24531294316964294    
  0.2443713966067801    0.24437134040095868    0.24531303041993593    0.246215738262375    0.24643871634392314    
  0.18607312568368178    0.1902385432757569    0.20232891511812806    0.22156057983946564    0.2453129012084007    
  0.2679319525817413    0.2833741665933474    0.2886171976021514    0.28337415074021044    0.2679319731162925    
  0.2453129100480092    0.22156056244323094    0.20232894114415276    0.19023854317092018    0.18607312568368178    
  0.1505401017013581    0.15693585480730934    0.1760778141055364    0.20719148267212645    0.2462157814796751    
  0.2833741853561612    0.30738306111442826    0.31487518762118133    0.3073829679879893    0.2833741058142919    
  0.24621584774409436    0.20719149169562628    0.17607773483240372    0.1569358729803453    0.1505401017013581    
  0.1391813177186912    0.14613964627981893    0.1672591028411077    0.20213392357158255    0.24643856241645629    
  0.2886171233998527    0.31487520648092615    0.32253851407533807    0.3148752157475863    0.28861713150957224    
  0.24643867391900803    0.20213393836239077    0.16725903508958215    0.14613966906262524    0.1391813177186912    
  0.1505400899677384    0.15693588440611078    0.17607780659962644    0.20719147499180124    0.2462157400295372    
  0.2833741497495999    0.30738309074213443    0.3148752402928284    0.30738301576703275    0.28337415918343334    
  0.24621582000123152    0.20719149890642857    0.17607775513223958    0.15693586984839664    0.1505400899677384    
  0.18607310690298673    0.19023851063928437    0.20232894533586815    0.2215605825446782    0.24531295226084238    
  0.26793193907329804    0.28337422668132567    0.2886171626876589    0.2833740938907714    0.26793195708436607    
  0.24531294087536326    0.22156061426748758    0.20232891053424565    0.1902385898560547    0.18607310690298673    
  0.24643874501128277    0.24621568763534232    0.24531303083787304    0.2443713092032565    0.24437136862096662    
  0.24531296909297035    0.24621581860875047    0.2464385853640146    0.2462157750818816    0.24531299766678624    
  0.24437136292167588    0.24437131289673028    0.24531302243432476    0.24621575580090158    0.24643874501128277    
  0.31945804270734485    0.3145828969690089    0.2985573805613235    0.2726514086974731    0.244371311647878    
  0.22156058724868943    0.20719152923213757    0.20213397179748577    0.2071914410410577    0.22156057859142234    
  0.24437131089434566    0.2726513689918295    0.2985573716921614    0.31458290994381494    0.31945804270734485    
  0.370503862453472    0.3660801743743776    0.34398232398488343    0.29855737247927105    0.24531297853115108    
  0.20232898585914752    0.17607779833847478    0.1672591201808305    0.17607776999287178    0.2023289361941908    
  0.24531302059610047    0.298557383444336    0.3439823129808641    0.3660802177062379    0.370503862453472    
  0.37702681661494375    0.3796683661147764    0.3660802248475801    0.31458291920417086    0.24621575299831172    
  0.19023855037880205    0.1569358942285451    0.1461396528216523    0.15693582355912114    0.19023851425653404    
  0.24621576444250234    0.3145830070248733    0.3660800594738936    0.37966834576761516    0.37702681661494375    
  0.3699508286811852    0.37702680437304015    0.3705038463175648    0.3194579642998409    0.24643868790263934    
  0.18607307126413297    0.15054008071991404    0.13918131877543796    0.15054006196663758    0.18607310717840708    
  0.24643871113375887    0.31945790934095647    0.37050371430101586    0.3770267477815732    0.3699508286811852    
  0.32253841648435233    0.3148752703978141    0.28861709605834834    0.2464386464348125    0.20213391526266242    
  0.16725908714869508    0.14613965261503153    0.13918137101018924    0.1461396211014258    0.16725911645120087    
  0.20213395806224335    0.24643865342487228    0.2886169866180788    0.3148752398773173    0.32253841648435233    
  0.3148752766341951    0.3073829581319274    0.28337426997145343    0.24621572496730143    0.20719153057804807    
  0.17607774339415158    0.15693595733583254    0.15054006026952438    0.15693587297241976    0.17607770402937478    
  0.20719157696396545    0.2462157669910151    0.28337415051288395    0.30738298173290896    0.3148752766341951    
  0.288617064712678    0.28337419227419447    0.2679318799893789    0.24531301443287795    0.2215604846286105    
  0.20232898554053258    0.19023851452248847    0.1860731749965526    0.19023845835062955    0.20232900488948102    
  0.22156053934624992    0.24531304764030712    0.26793183318556507    0.2833742499579641    0.288617064712678    
  0.24643872383351606    0.24621572854307278    0.24531301575094566    0.244371320015794    0.2443713767684311    
  0.24531295945766923    0.24621583088220453    0.24643865162432502    0.2462157757694883    0.2453129312896636    
  0.24437136668996234    0.244371317094183    0.24531297359540583    0.24621577467135722    0.24643872383351606    
  0.20213397182041318    0.20719152328136897    0.22156053625015854    0.24437137949550666    0.2726512748524198    
  0.29855747458368664    0.3145828756847202    0.3194581271399713    0.3145828229374486    0.2985574588812413    
  0.27265134389063894    0.24437138416925122    0.2215605442398606    0.20719152822667697    0.20213397182041318    
  0.1672591313926828    0.1760777271397201    0.2023289836416187    0.2453129325709189    0.29855738419841177    
  0.34398228305484074    0.3660802196082795    0.37050376666724094    0.36608019318414575    0.34398231726286743    
  0.2985573815893235    0.24531293900757156    0.20232898226507445    0.17607775278783558    0.1672591313926828    
  0.1461396503827408    0.15693590456104867    0.19023854565615897    0.24621578728794327    0.31458285240214945    
  0.3660802595407009    0.3796682397576758    0.37702687106698257    0.37966816478582555    0.3660801133798972    
  0.31458288917912347    0.246215794718784    0.19023844243521176    0.15693592593393296    0.1461396503827408    
  0.13918136369110776    0.15053999780959318    0.18607316370389906    0.24643858100627486    0.3194580173240293    
  0.3705037702078336    0.3770268757972652    0.36995077704971263    0.3770268448776082    0.37050374402135694    
  0.3194580818250234    0.24643858581618988    0.18607312078586596    0.15054003142358766    0.13918136369110776    
  0.1461396436001134    0.15693591447800054    0.19023851624141902    0.2462157639634601    0.3145828130193738    
  0.3660801876029959    0.37966831680816165    0.3770269086398595    0.3796681934245141    0.36608021746389074    
  0.3145828677327769    0.24621583696296875    0.19023847673272665    0.15693593624858093    0.1461396436001134    
  0.1672591181117889    0.17607771409750855    0.20232896234933456    0.24531298729488152    0.2985574110197892    
  0.3439823062457494    0.3660802792859055    0.37050380013137857    0.3660801148458923    0.3439822996980194    
  0.29855743905237475    0.24531300882414522    0.20232894712517951    0.1760777776902183    0.1672591181117889    
  0.20213396624797025    0.20719148396361872    0.22156052759906797    0.24437138194701336    0.27265132341823956    
  0.29855743836865406    0.31458290034793185    0.31945804954507245    0.31458284049020485    0.29855747941845884    
  0.27265129682520367    0.2443713809893926    0.22156054809733666    0.2071915308041271    0.20213396624797025    
  0.24643872531390237    0.24621572710665152    0.2453130130848594    0.24437133667928396    0.2443713297438128    
  0.2453129578708826    0.24621582176463033    0.24643863279530875    0.2462157504860634    0.24531294262771636    
  0.24437140494480056    0.2443712703915048    0.24531300448996735    0.24621571659933084    0.24643872531390237    
  0.2886171237411352    0.2833742165875357    0.2679318746490614    0.24531302331918728    0.22156050480707817    
  0.20232903447840653    0.1902385154976139    0.18607321527158405    0.1902384628995585    0.20232898389487658    
  0.22156050059321958    0.24531301193104904    0.26793185779210743    0.2833742460647158    0.2886171237411352    
  0.3148752893176915    0.30738302913539345    0.2833742801183382    0.24621571157630615    0.20719153321141925    
  0.1760777313839331    0.15693594014085394    0.1505400308347596    0.15693586084589092    0.17607770111857682    
  0.20719154935590325    0.2462157927732215    0.2833741774987457    0.3073829946869654    0.3148752893176915    
  0.32253841648435233    0.3148752703978141    0.28861709605834834    0.2464386464348125    0.20213391526266242    
  0.16725908714869508    0.14613965261503153    0.13918137101018924    0.1461396211014258    0.16725911645120087    
  0.20213395806224335    0.24643865342487228    0.2886169866180788    0.3148752398773173    0.32253841648435233    
  0.22392335739312974    0.21905408715786184    0.20516683560453927    0.18607308188701985    0.1672591471112636    
  0.15243106713246357    0.14331147497598795    0.1402744449023269    0.14331143835774077    0.15243108768119568    
  0.16725918618813998    0.18607310731108806    0.2051667654089976    0.21905412372642802    0.22392335739312974    
  0.21905417609535768    0.21520604088971934    0.20455654701314288    0.19023857482528322    0.17607775450266086    
  0.164850278174498    0.15798447328064155    0.15571907979157024    0.15798439684244386    0.16485024639297421    
  0.176077766971465    0.1902385806889691    0.20455647903464075    0.21520608426666482    0.21905417609535768    
  0.20516686320747052    0.20455648968214304    0.20324218948176015    0.20232897644300307    0.20232894184990485    
  0.20324212140971373    0.20455658805974994    0.20516680067470333    0.20455650818760293    0.20324212133914815    
  0.2023289929196007    0.2023289683665956    0.2032421658837705    0.20455654759852462    0.20516686320747052    
  0.1860731310649067    0.19023852442602604    0.20232894750934455    0.2215605601118785    0.24531290165949096    
  0.2679319765767952    0.28337420560239185    0.28861709844521216    0.2833741494601012    0.2679318977984743    
  0.24531295088228428    0.2215605677418519    0.2023289350209001    0.19023857933734267    0.1860731310649067    
  0.16725917028142528    0.17607774857342934    0.20232904359514725    0.2453129345295325    0.2985573455575763    
  0.3439822653654479    0.3660802042786481    0.37050386426746684    0.36608020591357837    0.3439823124235117    
  0.2985574260728732    0.24531291552068624    0.20232899543968433    0.1760777284462605    0.16725917028142528    
  0.15243109003614125    0.16485025336783474    0.2032420626580756    0.2679319456823504    0.34398225796578713    
  0.38916384138289706    0.3827362422732681    0.3693182296568685    0.3827361848190352    0.38916379262120837    
  0.34398229407167924    0.26793195820523646    0.20324208814486686    0.1648503108457862    0.15243109003614125    
  0.14331150881775295    0.15798440475931053    0.2045566252660119    0.28337416498161266    0.36608027878646315    
  0.38273620087575994    0.3257830517204924    0.2901317051545055    0.3257829219662056    0.38273612901704807    
  0.3660802743752072    0.28337418777378354    0.20455651186238188    0.15798445289659604    0.14331150881775295    
  0.14027443825181207    0.1557190225871305    0.2051667860375066    0.2886170917155192    0.37050371276810085    
  0.3693181980570641    0.2901316924960127    0.24708057142025153    0.2901316756202575    0.3693182336628006    
  0.3705038388000207    0.28861710181137196    0.2051667128883197    0.15571900001545583    0.14027443825181207    
  0.14331150979752794    0.15798443147288738    0.20455655447225593    0.28337420121236867    0.36608020901122656    
  0.38273620100269323    0.3257830559060658    0.2901317066607129    0.32578300253705283    0.38273618592015013    
  0.36608026067082433    0.28337418378882456    0.20455649178484892    0.15798440516883366    0.14331150979752794    
  0.152431104331194    0.16485025056084468    0.2032421470529939    0.26793197263052887    0.34398229311552647    