#     DFTpy    
  CRYSTAL 
    
  PRIMVEC    
  6.4785517241379305    0.0    0.0    
  0.0    6.4785517241379305    0.0    
  0.0    0.0    6.4785517241379305    
  PRIMCOORD    
  8    1    
  Si    0.0    0.0    0.0    
  Si    1.6196379310344826    1.6196379310344826    1.6196379310344826    
  Si    0.0    3.2392758620689652    3.2392758620689652    
  Si    1.6196379310344826    4.858913793103448    4.858913793103448    
  Si    3.2392758620689652    0.0    3.2392758620689652    
  Si    4.858913793103448    1.6196379310344826    4.858913793103448    
  Si    3.2392758620689652    3.2392758620689652    0.0    
  Si    4.858913793103448    4.858913793103448    1.6196379310344826    
  BEGIN_BLOCK_DATAGRID_3D    
  3d_datagrid_density    
  BEGIN_DATAGRID_3D#0    
  29    29    29    
  0.0    0.0    0.0    
  6.4785517241379305    0.0    0.0    
  0.0    6.4785517241379305    0.0    
  0.0    0.0    6.4785517241379305    
  0.07208665735991966    0.12423179432203782    0.2926965298840279    0.40727110268198863    0.3214736465181686    
  0.19096264967869228    0.1068496299404749    0.06315322587863395    0.04162897015242622    0.030965044804575105    
  0.02544797758464679    0.0224875765221429    0.020846316919334945    0.019984587655511324    0.019721931096850536    
  0.019984584379290158    0.020846310241322132    0.02248760005905329    0.025447938684001532    0.03096509379535857    
  0.04162893041203842    0.06315329028713713    0.1068495584201199    0.19096269086355538    0.3214735595218685    
  0.40727114059411773    0.29269650188313956    0.12423179461196192    0.07208665735991966    0.12423180928543277    
  0.18273084945196452    0.33719394933082714    0.40747141120421965    0.30759998821683865    0.1830398225339035    
  0.10415572911017525    0.06279524412330187    0.04207582719590634    0.0316096219979413    0.02605098406887679    
  0.02297413593384207    0.021212416533934676    0.020277468797422985    0.019984603660287193    0.020277454835163737    
  0.02121242428927697    0.0229741210523038    0.026051003022292848    0.0316095991838109    0.04207586803781359    
  0.06279518804267809    0.10415577951416624    0.18303975802961506    0.30760006163195436    0.40747134050414485    
  0.33719399644685144    0.18273083973241563    0.12423180928543277    0.2926964327160095    0.33719400544384465    
  0.4082591119466005    0.38026491659995726    0.2664700137344994    0.1619635247344653    0.09716143529443064    
  0.06197722234272595    0.043438043837666473    0.03349774589284524    0.027834344257248036    0.024436034165413036    
  0.022362413172923142    0.021212430074401073    0.020846299167332414    0.021212445540374603    0.02236240556542904    
  0.024436067463769105    0.027834320021611614    0.03349778071053741    0.04343799759076856    0.06197726136760622    
  0.09716139142976896    0.1619635877381661    0.2664699083576258    0.3802649732643649    0.408259119329038    
  0.3371940624775601    0.2926964327160095    0.40727131381129006    0.4074712683105963    0.38026498383407287    
  0.3024593408316231    0.2083799903087791    0.13478239809620027    0.08829657963671383    0.06132332007321838    
  0.045849336286238544    0.03665501722999122    0.03082318499489929    0.026963393240813763    0.024436050245994483    
  0.022974117165686158    0.022487618441614853    0.02297410429540321    0.024436066356382156    0.026963378311664832    
  0.030823210912326628    0.03665497370974622    0.045849384268522274    0.06132326421759194    0.08829665008530116    
  0.13478232296107795    0.20838003724561477    0.3024592736450733    0.3802649848814879    0.4074712921581915    
  0.40727131381129006    0.32147345219065654    0.3076002002200541    0.26646990270944027    0.2083800452867123    
  0.15206935150370082    0.10887801435624611    0.0798267509880396    0.06132329406170594    0.04934510498610412    
  0.041107722219472294    0.03515676320537014    0.030823176672735313    0.0278343306354908    0.026051022057367104    
  0.025447925599775028    0.02605102863788851    0.02783430340593246    0.03082321152948443    0.035156726530795754    
  0.041107762160641055    0.04934506036151787    0.061323342403548656    0.07982669935797808    0.10887808162255033    
  0.15206930303571456    0.20838012146977347    0.2664698530485458    0.3076002248767605    0.32147345219065654    
  0.19096290906213134    0.18303963673750348    0.16196365310046815    0.13478232335552942    0.10887805901447217    
  0.08812884809185796    0.07292894291174767    0.06197724600587209    0.053612461745694326    0.046759804960917146    
  0.041107726688696916    0.03665499269147509    0.03349777398536738    0.03160958320793567    0.03096512327111473    
  0.03160957275410858    0.033497788771443555    0.036654987199936734    0.04110776071468646    0.046759762982493035    
  0.05361251814862518    0.06197718352450466    0.07292900266858941    0.08812879834769799    0.10887810444404765    
  0.13478228672346212    0.1619636822285461    0.1830396084965457    0.19096290906213134    0.10684941715978274    
  0.10415590031041758    0.09716129471977461    0.08829667478053811    0.07982668133605915    0.0729289765711298    
  0.06749151516024383    0.06279521150239548    0.05821015812379475    0.053612464012109354    0.049345085608461674    
  0.04584936292674755    0.04343798921663015    0.04207588620147731    0.0416289021557031    0.04207589312850637    
  0.04343798013408834    0.04584940243182449    0.04934504352084339    0.05361250870570694    0.058210111720490454    
  0.06279525255995885    0.06749146350099923    0.07292900735987694    0.07982663716352659    0.08829672094713292    
  0.09716127659508757    0.10415591063237345    0.10684941715978274    0.06315344160929624    0.06279508577855451    
  0.06197735724737124    0.061323222324061955    0.06132335980840901    0.06197719860255547    0.06279523660768027    
  0.06315328003649995    0.06279520192791269    0.06197722809352376    0.06132330276763456    0.06132328230971063    
  0.06197725865121092    0.06279518091997789    0.0631533398314866    0.06279515956833395    0.061977289689615495    
  0.061323267182518064    0.06132334268673482    0.061977190902059824    0.0627952518382641    0.06315323733478724    
  0.0627952830650802    0.06197714403581529    0.061323400144114665    0.06132319307104341    0.06197737481111693    
  0.06279507227222718    0.06315344160929624    0.04162879957738591    0.04207596181046785    0.043437913170299755    
  0.04584944027145342    0.04934501700406076    0.053612507666744524    0.0582101284741035    0.06279521919629771    
  0.06749152094647481    0.07292892835099167    0.0798267535804446    0.08829659812805334    0.0971613758102809    
  0.10415579649135599    0.1068495132584961    0.10415581564394143    0.09716135360471548    0.08829666275791372    
  0.07982668551161531    0.07292896835090726    0.06749145732599252    0.06279526894243954    0.05821008712824601    
  0.05361254718522548    0.04934498352779423    0.045849468850193635    0.04343789448946454    0.04207597045110147    
  0.04162879957738591    0.030965212345294514    0.0316094890861315    0.033497860457582025    0.03665492072329358    
  0.04110779160450582    0.04675976482310168    0.05361250506791692    0.06197721554028802    0.07292894275255403    
  0.08812886167571676    0.10887800202607077    0.13478237724331926    0.16196353789665963    0.1830397527820334    
  0.1909627775968703    0.18303972337911897    0.1619635931770181    0.1347823405783368    0.1088780551957469    
  0.08812878869340159    0.07292899375662382    0.06197717112436022    0.05361255881255861    0.0467597001881837    
  0.04110783111093669    0.03665490277321307    0.0334978751910439    0.031609486742807    0.030965212345294514    
  0.02544784087909357    0.02605110456802679    0.02783424155492185    0.03082326863263969    0.035156674015681996    
  0.04110778608446371    0.04934505592478572    0.06132333915236202    0.07982671854227248    0.10887801863355152    
  0.1520693916113144    0.20837994277671745    0.2664699841838452    0.3076000726536153    0.3214735829249041    
  0.3076001108403944    0.2664699306751841    0.2083800513746905    0.1520693312836585    0.10887807937833154    
  0.07982668437206664    0.061323383990627006    0.04934501654380867    0.04110781637633203    0.035156655158748364    
  0.030823301567615032    0.027834229929121983    0.026051122707369385    0.02544784087909357    0.022487705473439774    
  0.022974022868381294    0.024436135733058258    0.026963312263523092    0.030823243722058663    0.03665494951264435    
  0.04584939781476839    0.06132326181631694    0.08829660867678407    0.13478236571522936    0.2083799512214906    
  0.3024594004574467    0.38026488669497716    0.40747139175828173    0.40727120442020803    0.40747134150582676    
  0.380264903507715    0.3024593414591716    0.20838001839443443    0.13478232669832732    0.0882966765828381    
  0.06132322385080584    0.045849447238152714    0.03665490578509112    0.03082327972805263    0.026963295010092668    
  0.024436141797121332    0.022974012961547465    0.022487705473439774    0.02084620792947166    0.021212507504892526    
  0.022362324865516696    0.024436123408105657    0.0278342697818052    0.03349782411585322    0.043437972024164724    
  0.06197726093784341    0.0971614013602102    0.16196355545824828    0.26646999812496835    0.38026481289364344    
  0.40825928384923704    0.33719393164251943    0.29269656396514726    0.33719394272034764    0.4082591837777493    
  0.3802649269762409    0.2664699448078454    0.1619636087454748    0.09716132649494003    0.061977321310962424    
  0.04343793911917289    0.033497846905112816    0.027834250567115196    0.024436147434265507    0.022362311707324927    
  0.02121251644201851    0.02084620792947166    0.019984688490450927    0.020277371526517266    0.021212501874425114    
  0.022974057695877955    0.02605106481732564    0.03160955982235302    0.04207590394229688    0.0627951893477216    
  0.10415576971683062    0.18303982646315667    0.30759999794642034    0.4074714686336059    0.33719385473539526    
  0.18273091630426622    0.12423176058296619    0.1827309126358384    0.33719396127795975    0.40747143967152866    
  0.30760008012677237    0.18303973119327685    0.10415583365438824    0.06279513304378918    0.042075937443145174    
  0.03160952997683783    0.026051085442108633    0.022974036639528093    0.02121252113183739    0.020277361937873897    
  0.019984688490450927    0.01972184501606284    0.01998467956259952    0.02084623395235681    0.02248765715993788    
  0.025447897997875515    0.030965133054650932    0.04162890549631934    0.06315330069829724    0.10684958071818187    
  0.19096267649543464    0.32147364482060165    0.40727102312770336    0.29269659908304274    0.12423173055155018    
  0.07208669823253012    0.12423172589111683    0.29269655590831023    0.40727112011207023    0.32147356360115514    
  0.19096277851614823    0.1068495035274966    0.06315334314286918    0.04162886290697951    0.030965169699763748    
  0.02544786462468646    0.022487677656567128    0.020846219876265157    0.019984685424704978    0.01972184501606284    
  0.01998466551868202    0.020277392319512724    0.02121246996980855    0.02297408193898804    0.026051033433556185    
  0.03160959406546416    0.04207586805094044    0.06279521982310225    0.10415572169632098    0.18303986743967085    
  0.3075999174679601    0.4074715376337781    0.3371938227711138    0.18273100183788696    0.12423169745807114    
  0.1827309865983532    0.33719386229276654    0.4074715055112351    0.3075999802396748    0.1830398001718455    
  0.10415578399912331    0.06279517873830284    0.04207589716922359    0.03160955299815647    0.026051059783365884    
  0.022974060107926846    0.021212488333246415    0.020277392859516328    0.01998466551868202    0.020846247777424918    
  0.021212462120596392    0.02236237546247388    0.024436079041313365    0.027834321345876906    0.033497769240522196    
  0.043438035235136375    0.061977195526504124    0.0971615129084752    0.16196342648308312    0.2664701373440505    
  0.38026462723791526    0.4082594509118265    0.3371937693589878    0.2926967140597972    0.33719375449702027    
  0.4082593883738786    0.3802647714383837    0.26647006064104345    0.16196347251290563    0.09716145369985442    
  0.06197723379127221    0.043438012712659735    0.033497780932731154    0.027834308086458783    0.024436080721595185    
  0.02236235407891149    0.021212477217473276    0.020846247777424918    0.02248763337141731    0.02297409642784733    
  0.024436069445661943    0.026963390374195748    0.030823172271335426    0.036655038186685994    0.04584931183218893    
  0.06132337840825298    0.08829648807466432    0.13478254119341562    0.20837974951294097    0.3024596119357619    
  0.3802645729352439    0.4074716625865057    0.4072709089826845    0.4074716285089519    0.3802646426188794    
  0.3024595691553933    0.20837979917410182    0.13478249250563973    0.08829653418204118    0.061323333094346025    
  0.04584934252771983    0.03665500642365055    0.03082319861016046    0.026963373944145223    0.024436069065737632    
  0.022974086847440726    0.02248763337141731    0.02544793284233488    0.026051010200602128    0.027834341205455596    
  0.030823174817098474    0.035156781062933816    0.04110767317840654    0.049345175810074124    0.06132320160488592    
  0.0798268942118037    0.10887784172486846    0.15206960729526028    0.20837971612725498    0.2664702754491574    
  0.3075997815871692    0.32147388586084896    0.3075998165737259    0.2664702022321    0.2083797831075488    
  0.15206956611788378    0.10887789025586926    0.07982684217543264    0.061323229567072146    0.04934513241188702    
  0.04110770090753808    0.03515677325318132    0.030823190113847217    0.027834322927888958    0.02605101733513543    
  0.02544793284233488    0.030965096993944598    0.03160960775920869    0.03349773799338574    0.036655047500681194    
  0.04110765788732105    0.046759896279658764    0.05361235448764352    0.061977380722029414    0.0729287671364163    
  0.08812905118560616    0.10887779407094533    0.13478261051156806    0.16196330221469515    0.18304003687778084    
  0.19096249210747882    0.1830400190513657    0.161963335066274    0.134782614690104    0.10887784154190555    
  0.08812900271608719    0.07292880555301394    0.06197733435282458    0.053612405294401935    0.046759854978130004    
  0.04110768714196303    0.036655020560672866    0.03349775277360099    0.031609614035602286    0.030965096993944598    
  0.04162895221103635    0.04207581403629946    0.04343805374669501    0.04584928989787236    0.04934517286166852    
  0.053612361947789615    0.05821030978791744    0.06279503930257399    0.06749170388479488    0.07292873249292142    
  0.07982694097235202    0.08829639404279306    0.09716160386730571    0.10415556404310773    0.10684974803498067    
  0.10415558978901307    0.09716158351581539    0.08829643348205318    0.07982689122286583    0.07292876903689884    
  0.06749165131139677    0.06279508306194949    0.05821027291264904    0.05361238638889898    0.049345143959450916    
  0.0458493115080814    0.04343805007425922    0.04207582439408984    0.04162895221103635    0.063153253039708    
  0.0627952647419168    0.06197718221110915    0.06132338874480092    0.061323187225986224    0.061977371911551934    
  0.0627950612525799    0.06315346434094185    0.06279503260652637    0.06197741380398713    0.061323126010364264    
  0.061323476484249996    0.06197707407348768    0.06279536603904134    0.06315314045297572    0.06279535237400803    
  0.061977095292669815    0.061323449427425694    0.06132315248960111    0.06197738598122966    0.06279506621121042    
  0.06315343156190839    0.06279509221878857    0.061977344698901225    0.06132321008733566    0.06132337026478808    
  0.06197718778156995    0.06279526379643055    0.063153253039708    0.1068496236737795    0.10415566631646417    
  0.09716151919561154    0.08829647017297113    0.07982687491549267    0.0729287713092296    0.06749169077091226    
  0.06279503264966099    0.05821034078023939    0.05361229518399532    0.04934524760010775    0.04584921932026676    
  0.04343815035431559    0.04207572801205099    0.04162904406644048    0.04207573586458967    0.043438133107258234    
  0.04584925020170023    0.04934521107515437    0.05361232617008301    0.05821029421195297    0.06279508335996527    
  0.06749164557582518    0.07292880685326537    0.07982684455521245    0.08829649793631111    0.09716148847225466    
  0.1041556792691051    0.1068496236737795    0.19096260671138254    0.18303990721897714    0.16196339522940856    
  0.13478254524295455    0.10887783371557211    0.08812904875179176    0.07292877739684732    0.06197740422694004    
  0.053612310782975105    0.04675994666151029    0.041107592064877456    0.03665512220436667    0.033497646732044244    
  0.03160971364629154    0.030965014010919688    0.03160970857387631    0.03349766414540606    0.03665511239489683    
  0.041107616397585686    0.04675990812703123    0.05361234714189273    0.06197736372820791    0.07292881387286593    
  0.0881289782062208    0.10887788939093862    0.13478250687860416    0.16196342971432467    0.18303990353614072    
  0.19096260671138254    0.32147374729251293    0.30759994165716104    0.2664701737249018    0.20837978325018883    
  0.15206955849525436    0.10887784502490722    0.07982691480746457    0.06132315316094743    0.049345229682080084    
  0.04110761054439053    0.03515687192430047    0.03082307540716476    0.027834423739710033    0.026050929111139483    
  0.02544802222343977    0.026050937216711985    0.02783440139273313    0.030823106373539483    0.035156848064792    
  0.04110763458110707    0.04934519636252783    0.0613232012314213    0.07982687981821922    0.10887788659293403    
  0.15206951612862035    0.20837984727566666    0.2664700916363084    0.307599926340899    0.32147374729251293    
  0.40727101084144346    0.4074715647996739    0.38026472483845497    0.30245953797845726    0.2083797697396465    
  0.13478255105079323    0.0882964679201249    0.06132342536413094    0.04584924671219132    0.03665510231608145    
  0.030823104162710228    0.02696347451444338    0.024435977054099306    0.02297418703445987    0.022487547935218403    
  0.022974176267183496    0.024435975605593997    0.026963452725504895    0.03082312270258383    0.03665507777925003    
  0.04584928951042503    0.061323380923118065    0.08829651003639104    0.1347824704931454    0.2083798303535764    
  0.30245953266654174    0.38026477999749886    0.40747151040715085    0.40727101084144346    0.29269658584638464    
  0.33719385611654307    0.40825932844501    0.38026472375965714    0.2664701349134056    0.1619634113289931    
  0.09716152569455483    0.061977129029684566    0.04343810760946687    0.03349768488978046    0.027834393583917233    
  0.024435986275262837    0.022362464001257347    0.02121238078848811    0.020846336700144512    0.02121239232224841    
  0.02236245013440907    0.024436014542427748    0.027834370855947    0.03349771190287193    0.04343806420149294    
  0.06197718742265915    0.097161492452623    0.1619634414847321    0.26647010695256995    0.38026479958045334    
  0.40825928629517105    0.3371938447599053    0.29269658584638464    0.12423177600042827    0.1827309278064812    
  0.3371938933059412    0.40747146942499557    0.3075999171301051    0.18303989419427702    0.1041556891839359    
  0.0627952855337749    0.042075790813875046    0.03160965765918347    0.026050962839247658    0.022974158589550084    
  0.021212392749235302    0.020277483119873235    0.019984572649912612    0.020277483402322563    0.02121240361449907    
  0.022974150418515905    0.02605098158170615    0.03160962229609222    0.042075837308473765    0.06279524081914593    
  0.10415573864133555    0.18303982732901322    0.3075999790331303    0.40747142457257574    0.33719388833667446    
  0.1827309233416605    0.12423177600042827    0.07208665735991966    0.12423179432203782    0.2926965298840279    
  0.40727110268198863    0.3214736465181686    0.19096264967869228    0.1068496299404749    0.06315322587863395    
  0.04162897015242622    0.030965044804575105    0.02544797758464679    0.0224875765221429    0.020846316919334945    
  0.019984587655511324    0.019721931096850536    0.019984584379290158    0.020846310241322132    0.02248760005905329    
  0.025447938684001532    0.03096509379535857    0.04162893041203842    0.06315329028713713    0.1068495584201199    
  0.19096269086355538    0.3214735595218685    0.40727114059411773    0.29269650188313956    0.12423179461196192    
  0.07208665735991966    0.12423181702361631    0.18273089808951865    0.33719394674722436    0.4074714767541223    
  0.3075999997067132    0.183039855076874    0.10415571332566324    0.0627952610657843    0.042075818943528895    
  0.03160963569296771    0.026050981744376162    0.022974143417864554    0.021212405842135296    0.02027748090356495    
  0.01998459028424193    0.020277458052372518    0.02121242044261503    0.022974141616113823    0.0260509931861189    
  0.03160961536782016    0.04207585152912915    0.06279521931046757    0.10415576282849945    0.1830397623971286    
  0.30760002334818404    0.40747136124972855    0.33719396348063607    0.18273087850689995    0.12423181702361631    
  0.18273082099652305    0.2434661970943219    0.37784672055282537    0.4120741954348566    0.30355157505503727    
  0.1839214310508823    0.10822004214063809    0.06749148196960351    0.046322491061368556    0.03506047637456138    
  0.02866251110091178    0.024830537467351893    0.022429005742389783    0.020969864138994872    0.020277462920276722    
  0.02023552851509293    0.020842372839076004    0.022244796734521614    0.024895116978002913    0.029836370172874074    
  0.039310892747400406    0.05821016755122719    0.09598220014334005    0.16824134159217954    0.2848541319516608    
  0.39335525799024457    0.3654125532013386    0.2388835518054972    0.18273082099652305    0.33719401300729035    
  0.37784661046955303    0.42834072994154576    0.3854979444878552    0.2730288382996211    0.172808220437896    
  0.10915352576719517    0.07292895096951126    0.052572774764087865    0.0406268350252873    0.033058855761005035    
  0.028037687556628464    0.024636467517497283    0.02242899278399551    0.021212439927595837    0.020842372274364532    
  0.021246831724547634    0.022489783971556262    0.02490428732490308    0.029330720770571275    0.03760020678130568    
  0.05361243901908817    0.08468853628268525    0.142823344397188    0.23859617000676714    0.35089776180871207    
  0.4021189653165086    0.3654125404048405    0.33719401300729035    0.4074712499635773    0.4120743731603065    
  0.3854978461414259    0.3128465242982251    0.22552842448233948    0.15543644041675875    0.10890335272459802    
  0.07982674415365049    0.061311138550263725    0.048717229203566026    0.039578764289906004    0.03284856313805435    
  0.02803768292636336    0.024830571351274682    0.022974114378673884    0.022244804611792318    0.022489773836794985    
  0.023649365092989896    0.025907624343271218    0.029851107028951922    0.03677238789281145    0.04934511763132441    
  0.07244078966375206    0.11356252041204264    0.18034417813432718    0.2691914752102304    0.35089770572312845    
  0.393355387134632    0.4074712499635773    0.3076002354825856    0.3035514513681908    0.2730289408014496    
  0.22552840360133478    0.17703797554760325    0.13760899203506155    0.10890336934293653    0.08829657641920098    
  0.07244082164213704    0.05933250832623262    0.04837250663304627    0.03957873527999854    0.033058878473160504    
  0.028662469658095897    0.026051024974813358    0.02489510428419054    0.024904285389805044    0.025907619514546225    
  0.02793156314387562    0.031304596426425975    0.036772447912534166    0.04584931599354568    0.061311192885856756    
  0.08702522297556331    0.12671830750126198    0.18034417122729432    0.238596265923471    0.2848540377199501    
  0.3076002354825856    0.18303962032200802    0.1839216287725073    0.17280807714353272    0.15543652257027113    
  0.13760893778236918    0.12216056980095191    0.1091535315895641    0.0971614200640239    0.08468850323524829    
  0.07170791789094322    0.05933251056654197    0.04871723956306512    0.04062680559996227    0.035060530965644314    
  0.03160957840322652    0.029836384235109696    0.02933070688883224    0.029851122704040514    0.03130457810931362    
  0.033777932825375535    0.03760016122460347    0.04343804433582425    0.05257274969036085    0.0666473495526176    
  0.08702520434124404    0.11356259800691686    0.14282322460261407    0.1682414672089807    0.18303962032200802    
  0.10415592162923729    0.10821983951993318    0.10915365699873518    0.10890324557113075    0.10890340625576572    
  0.10915350278281521    0.1082200474534106    0.10415574762835755    0.09598222030845385    0.08468849186080506    
  0.07244081712413647    0.06131111986357465    0.052572806886683525    0.04632242888785162    0.042075895757465266    
  0.039310861758674334    0.037600222180257    0.03677238833234757    0.036772439140316616    0.03760015506569293    
  0.03931092938242538    0.0420758136239318    0.046322509670563325    0.05257272285937203    0.06131121215675422    
  0.07244071305383139    0.08468863253027256    0.09598207549593456    0.10415592162923729    0.06279508879157127    
  0.06749165232888979    0.07292881463347996    0.07982686995917221    0.08829650334545108    0.0971614795780968    
  0.1041557453675806    0.10684957720431328    0.10415574994189371    0.0971613982935527    0.08829657611883697    
  0.07982676859758309    0.07292889988592395    0.06749156234858035    0.06279517695171787    0.05821019194591364    
  0.053612433968132055    0.049345136015237503    0.045849313922045526    0.04343805324799481    0.04207581282239297    
  0.04162896453003232    0.04207580986749155    0.04343808278773089    0.04584927477428853    0.049345206557306405    
  0.053612353338676456    0.05821029061724272    0.06279508879157127    0.04207597464345328    0.04632233395892878    
  0.0525729030407587    0.061311039750579374    0.07244089161881792    0.0846884174599878    0.09598227041901554    
  0.10415574415387314    0.10822000451121053    0.10915351529254066    0.10890337702403635    0.10890332923289398    
  0.10915355139374093    0.10821995890809784    0.10415581001071461    0.09598216574273875    0.08468853625941153    
  0.07244078307945827    0.061311163909748244    0.052572744766970714    0.04632250382101083    0.04207580571700398    
  0.039310956454692465    0.03760010428978048    0.03677248936489869    0.03677231828318412    0.037600291611356515    
  0.03931077317055314    0.04207597464345328    0.0316094944664539    0.03506062429086752    0.04062671002489693    
  0.0487173476442461    0.05933241298754227    0.0717079918223198    0.08468845348563199    0.09716145005857907    
  0.10915351321673054    0.12216054629229965    0.13760898419001066    0.15543641489736082    0.17280816291735826    
  0.18392150388409462    0.18303975646234927    0.16824138459817303    0.1428233406221657    0.11356253303568498    
  0.08702523743734926    0.06664733265181971    0.05257273756843681    0.04343807436601156    0.03760012705497652    
  0.03377797640408219    0.031304528163184735    0.02985118645882249    0.029330639864399096    0.029836470161663478    
  0.0316094944664539    0.026051117230861027    0.02866238525054202    0.03305897159955059    0.03957864599737814    
  0.048372581382074266    0.05933243314994275    0.07244089527139055    0.08829654417946886    0.10890335122631621    
  0.1376090084779565    0.1770379533664234    0.22552842286479535    0.2730288345645877    0.30355158218982137    
  0.3076000999068683    0.28485415078644893    0.23859616926985125    0.18034425115634142    0.12671828950654285    
  0.08702523289738312    0.06131119343782074    0.04584928756128775    0.03677248886733357    0.031304537341802365    
  0.02793163785166823    0.025907556926428394    0.024904369146243777    0.024895023039998163    0.026051117230861027    
  0.02297402247807932    0.024830665703183607    0.028037589831872697    0.03284865851717734    0.03957865538606924    
  0.048717313946373075    0.061311087589033406    0.07982679056342759    0.10890331778129732    0.1554364226418797    
  0.22552844251776158    0.31284644610702167    0.38549798677127567    0.4120742734963673    0.4074713981654997    
  0.39335523184172244    0.3508977869173949    0.26919142612701963    0.18034419274960548    0.11356254612406352    
  0.07244076049473322    0.04934516430465617    0.03677234578835921    0.02985115651287517    0.025907557950568542    
  0.023649439915706977    0.022489689825893073    0.022244881255556025    0.02297402247807932    0.021212522382856733    
  0.02242889952406977    0.024636565838448306    0.028037614744651943    0.03305894053784428    0.04062677131783894    
  0.05257283998304132    0.07292888418115138    0.10915355988630579    0.17280822330193982    0.27302878421012217    
  0.3854979484879022    0.4283406600464138    0.3778467308260066    0.33719396135928814    0.3654126066929684    
  0.40211884138083703    0.3508978465897363    0.23859615675500886    0.14282331672051246    0.08468856632903617    
  0.05361239363858439    0.03760026562089149    0.029330656118821324    0.02490435440006324    0.02248970290046523    
  0.021246901258692902    0.020842282953734845    0.021212522382856733    0.020277369230269893    0.020969950279863897    
  0.022428913415122893    0.024830634232210602    0.028662432880093975    0.03506056690616917    0.04632242124351846    