#     DFTpy    
  CRYSTAL 
    
  PRIMVEC    
  5.018068965517242    0.0    0.0    
  0.0    5.018068965517242    0.0    
  0.0    0.0    5.018068965517242    
  PRIMCOORD    
  8    1    
  Si    0.0    0.0    0.0    
  Si    1.2545172413793104    1.2545172413793104    1.2545172413793104    
  Si    0.0    2.509034482758621    2.509034482758621    
  Si    1.2545172413793104    3.763551724137931    3.763551724137931    
  Si    2.509034482758621    0.0    2.509034482758621    
  Si    3.763551724137931    1.2545172413793104    3.763551724137931    
  Si    2.509034482758621    2.509034482758621    0.0    
  Si    3.763551724137931    3.763551724137931    1.2545172413793104    
  BEGIN_BLOCK_DATAGRID_3D    
  3d_datagrid_density    
  BEGIN_DATAGRID_3D#0    
  23    23    23    
  0.0    0.0    0.0    
  5.018068965517242    0.0    0.0    
  0.0    5.018068965517242    0.0    
  0.0    0.0    5.018068965517242    
  0.05728836080231613    0.10300730801466469    0.2688028561851175    0.4311573659740242    0.4011231645244966    
  0.28164378093157544    0.1830760552510971    0.12105708276586016    0.0851299504671124    0.06545664330511541    
  0.05577360879045007    0.05284414053504174    0.055773600309607194    0.06545665377733569    0.08512996300586609    
  0.12105710005598498    0.1830760607867769    0.2816437772898648    0.4011232599336124    0.43115727194049114    
  0.2688028556797096    0.10300730526413727    0.05728836080231613    0.10300730051260429    0.1577234367080826    
  0.3221668993137538    0.44871877833831925    0.39919607685269526    0.28069651161655446    0.18511188560803754    
  0.12429671201790402    0.08860032817391897    0.06876449247466569    0.05881491180709498    0.055773579263404933    
  0.05881490474982995    0.06876449895338911    0.0886002998945586    0.12429672875596141    0.18511183418706145    
  0.2806964439856186    0.39919608175882865    0.4487187425669682    0.3221668881441577    0.15772343090180913    
  0.10300730051260429    0.2688028396772007    0.3221668855914525    0.4327493487513465    0.46582967894226107    
  0.38504092688319574    0.2760429722172344    0.19058832382976656    0.13405182957837156    0.0993898972872788    
  0.07929798404896102    0.06876454626058727    0.06545664074917686    0.06876449544378367    0.07929795671767464    
  0.0993899045467631    0.13405185744526052    0.19058835127000104    0.2760429172249049    0.38504096038739966    
  0.4658297822182848    0.43274932265386273    0.322166871170744    0.2688028396772007    0.4311572718282571    
  0.4487188140464555    0.46582986462750064    0.43036334056593656    0.35057145844834425    0.2661203648944377    
  0.19846630779205077    0.15051180807067013    0.11894267068572462    0.09938990244700341    0.08860032507449601    
  0.08512992116548153    0.08860035331429657    0.09938989897287416    0.11894265930003146    0.15051180985825688    
  0.19846631518531535    0.26612027870960825    0.35057141137532327    0.43036341333833045    0.46582978245420587    
  0.4487186651596882    0.4311572718282571    0.40112323843982084    0.39919607214435104    0.3850409191865188    
  0.35057147048796095    0.3022126021398501    0.2518678534754629    0.20833648254827214    0.1747379811031412    
  0.15051180173876438    0.1340518250222374    0.12429674576271094    0.12105708028037927    0.1242967252327052    
  0.13405185602383193    0.15051179276725518    0.1747379961821915    0.20833648065135854    0.251867803785395    
  0.302212591012554    0.35057145141429447    0.3850409787431783    0.3991960615498551    0.40112323843982084    
  0.28164378320666805    0.2806964793668517    0.27604294284529834    0.2661203514413186    0.2518678078385155    
  0.23557382361439358    0.22054215243418818    0.20833645843823925    0.1984662991475108    0.19058834319250734    
  0.1851118432797555    0.18307600863103055    0.18511185418995288    0.19058832382143187    0.19846627087443214    
  0.20833647985259554    0.22054213150465374    0.23557380889779314    0.2518678504462947    0.26612033847348726    
  0.2760429675022147    0.2806964841277731    0.28164378320666805    0.18307604404437122    0.1851118602693993    
  0.19058831650129887    0.19846627438247702    0.20833642869318506    0.2205421417568916    0.23557384170541612    
  0.2518678129409451    0.2661203451111441    0.27604295207645774    0.28069644448314385    0.2816437336297285    
  0.28069651287527464    0.27604300958165834    0.26612029188690456    0.2518678311243153    0.235573841944965    
  0.22054211497565418    0.2083364692019647    0.19846628968951513    0.19058830743432773    0.18511183801902675    
  0.18307604404437122    0.12105710378555232    0.12429672767791733    0.13405185021291746    0.15051182528197565    
  0.17473801429842326    0.20833648280452755    0.25186786795534893    0.3022125481985116    0.35057143124902856    
  0.38504091302042825    0.39919616044140277    0.40112322783973087    0.3991961541767133    0.3850409819505772    
  0.35057145011547375    0.30221258492771697    0.25186786417092244    0.20833645323013514    0.1747380340572635    
  0.15051181941992609    0.1340518259552145    0.12429672165681599    0.12105710378555232    0.0851299196232499    
  0.08860033620348011    0.09938989725018971    0.11894264280537901    0.1505117968512329    0.19846628415777867    
  0.26612033586841    0.3505713773964161    0.4303634359005513    0.4658297563170947    0.4487187083390361    
  0.43115732410966623    0.44871872714228134    0.4658297517114193    0.4303633833255827    0.3505714416160171    
  0.2661203340855412    0.19846626419896177    0.15051185251808297    0.11894265389647853    0.09938989524945259    
  0.0886003431932549    0.0851299196232499    0.06545664217537538    0.06876449224539198    0.07929795532383822    
  0.09938989027417786    0.13405183607729404    0.19058832587071206    0.27604296073713636    0.3850408948233565    
  0.46582978942456077    0.43274930705545667    0.322166873200351    0.2688028831775566    0.3221668979051213    
  0.4327493253029587    0.46582980818900704    0.38504091059326473    0.27604299488714695    0.19058834173177497    
  0.13405182877425018    0.0993899200139053    0.07929795853254093    0.06876450689170559    0.06545664217537538    
  0.05577359515435301    0.05881491414199454    0.0687644928197375    0.08860032186772197    0.1242967315934897    
  0.18511185156535737    0.2806965248109199    0.39919604353544863    0.44871874702133213    0.322166820814258    
  0.15772343306780703    0.10300730950069455    0.157723438849604    0.3221668970850072    0.4487186802157213    
  0.39919605105002476    0.2806964885408873    0.18511183510695448    0.12429672078134532    0.08860033236201799    
  0.0687645196655616    0.05881489278658802    0.05577359515435301    0.05284414605538825    0.05577359648357629    
  0.06545664654205557    0.08512994519501976    0.12105704724505513    0.18307605097055754    0.2816437767059834    
  0.40112320155372405    0.4311574318786047    0.26880283999213983    0.10300732613383325    0.05728835507126927    
  0.10300732495375904    0.2688028540983074    0.4311573141758252    0.40112322763157937    0.28164379271823264    
  0.183076032831186    0.12105707530473998    0.08512994826794863    0.0654566554474646    0.05577358384683059    
  0.05284414605538825    0.055773581533497506    0.05881492506597996    0.06876450398384017    0.08860033178239954    
  0.12429673987151586    0.1851118258883889    0.28069647872319065    0.3991961083056429    0.4487187355477692    
  0.322166836136408    0.15772344365948524    0.10300729270097986    0.15772346034692022    0.32216691556355    
  0.44871867277162547    0.39919603905052414    0.28069649667346097    0.18511181381437408    0.12429670879615531    
  0.08860032852533406    0.06876454676486726    0.05881489875714442    0.055773581533497506    0.06545663437297812    
  0.06876452017799577    0.07929797802028775    0.099389889494586    0.13405182569383206    0.19058834823386375    
  0.2760429413219442    0.38504097969299717    0.46582978470207287    0.4327493625689107    0.32216692771264965    
  0.26880283169293967    0.322166875137096    0.43274935060610575    0.4658297650248226    0.38504092340560403    
  0.2760430008535359    0.19058832350440782    0.13405181381361142    0.09938992125260006    0.07929797496232842    
  0.06876448528235025    0.06545663437297812    0.08512992959552111    0.08860032649180428    0.09938991510225857    
  0.11894264770284856    0.1505117874424205    0.19846626191639724    0.26612039153508    0.3505713926157634    
  0.43036335221108124    0.46582975872728627    0.44871874799829425    0.4311573028254382    0.448718718447614    
  0.4658298011631365    0.4303633644108769    0.3505714047007001    0.26612038009541833    0.19846627905167846    
  0.15051181664630003    0.11894266500826174    0.09938992076355868    0.08860032895356816    0.08512992959552111    
  0.12105707196436652    0.12429673091681895    0.13405183552020514    0.15051181882249767    0.17473800112262958    
  0.20833648792831586    0.2518678725722357    0.30221256986952627    0.35057144805997104    0.3850409969209065    
  0.3991961436233173    0.4011231929206941    0.39919613894356093    0.38504103500787773    0.3505714191372395    
  0.30221259378248416    0.2518678363489282    0.20833640554972854    0.17473802156907145    0.15051178866176831    
  0.13405182938856697    0.12429671824066288    0.12105707196436652    0.18307605870094987    0.18511183727909788    
  0.1905883115637145    0.1984663179009559    0.2083364575814716    0.22054212997632988    0.23557386588957907    
  0.2518677998967254    0.2661203362921722    0.2760429349338074    0.28069647017877003    0.28164375365850935    
  0.2806964886102042    0.2760429734343633    0.26612030705926554    0.25186781097976546    0.23557387276665823    
  0.22054212086769412    0.20833647180686704    0.19846630642837537    0.19058834080701167    0.18511185247969209    
  0.18307605870094987    0.28164379487577973    0.280696506404435    0.27604295278930746    0.2661203282845516    
  0.2518678176253286    0.2355738534079484    0.22054214492113167    0.2083364466381402    0.1984663252585956    
  0.19058832281171906    0.18511187834736367    0.18307606443664293    0.18511186609248095    0.1905883435894259    
  0.19846623348600678    0.20833646842826173    0.22054216829280046    0.2355738333817114    0.2518678650159243    
  0.2661203013464914    0.27604293918142075    0.2806964863324676    0.28164379487577973    0.40112325615516825    
  0.3991961053441154    0.3850409580457374    0.35057150168740886    0.30221253271891985    0.25186786576129555    
  0.2083364873557571    0.17473799821456326    0.15051179097834833    0.134051843043026    0.12429673848564876    
  0.12105708600648726    0.12429674712361649    0.13405183151971906    0.15051179811172058    0.17473800241771992    
  0.20833648208340175    0.2518677789634285    0.3022125910231945    0.3505714247201774    0.3850409401921454    
  0.39919602778923785    0.40112325615516825    0.431157265049106    0.4487187662405604    0.465829769803344    
  0.43036336967786637    0.3505714333501376    0.2661203343568742    0.19846632555584187    0.15051182219000345    
  0.11894266633964136    0.09938988779727774    0.08860029474025398    0.08512995209555034    0.08860035395857628    
  0.09938991323135044    0.11894266995665795    0.15051181076865006    0.1984662989242072    0.2661203081191425    
  0.35057145150918456    0.4303633503654693    0.465829833413182    0.44871870884062715    0.431157265049106    
  0.26880287398669844    0.3221668994006254    0.43274932441111374    0.4658297939295253    0.3850408914157483    
  0.27604297883563716    0.19058830830898835    0.13405182511132271    0.0993899036642254    0.07929797987775171    
  0.06876450810792399    0.06545662916056014    0.06876449719348224    0.07929795463523634    0.09938989905174307    
  0.13405185163716193    0.19058833710990505    0.27604295324893174    0.3850410012172221    0.46582976589832403    
  0.4327493275122022    0.32216690565785994    0.26880287398669844    0.1030072909663071    0.15772343621082108    
  0.3221668929854483    0.4487187544743806    0.3991960809983505    0.2806964786474582    0.18511188010692733    
  0.12429670603518292    0.0886003138105703    0.06876450128922756    0.05881491527254824    0.055773579211865314    
  0.05881492190809195    0.06876450228654668    0.08860030592555233    0.1242967319705907    0.18511183285723554    
  0.28069645848427993    0.39919607148249764    0.4487187322144476    0.3221669379218869    0.15772345058374818    
  0.1030072909663071    0.05728836080231613    0.10300730801466469    0.2688028561851175    0.4311573659740242    
  0.4011231645244966    0.28164378093157544    0.1830760552510971    0.12105708276586016    0.0851299504671124    
  0.06545664330511541    0.05577360879045007    0.05284414053504174    0.055773600309607194    0.06545665377733569    
  0.08512996300586609    0.12105710005598498    0.1830760607867769    0.2816437772898648    0.4011232599336124    
  0.43115727194049114    0.2688028556797096    0.10300730526413727    0.05728836080231613    0.1030073078223837    
  0.15772343334890537    0.3221669019974366    0.4487187494620977    0.3991960172986068    0.28069647228401345    
  0.1851118606920423    0.124296744332879    0.08860033869705167    0.06876451583304026    0.05881492245712555    
  0.055773593066191895    0.05881490972627188    0.06876450651479868    0.08860035431983924    0.12429673922892329    
  0.1851118552662488    0.28069647403101583    0.3991961012797135    0.4487186889193685    0.3221668659112676    
  0.15772342871271844    0.1030073078223837    0.1577234180443651    0.22764064238575996    0.3994405506353375    
  0.5071329044389675    0.442424412172932    0.3162417890168894    0.21308622186041737    0.14490316022915953    
  0.10316529341125452    0.07859375517242077    0.06488043072885273    0.05881489280759991    0.05911889213487629    
  0.06607502932077236    0.08201606703846336    0.11200337573985157    0.16409259244618113    0.24718564736043042    
  0.3545838498885592    0.41787487061015116    0.3402925221555174    0.20565695123836286    0.1577234180443651    
  0.32216686170463893    0.39944054680551894    0.5229399169147416    0.5558938531069678    0.46834621826602596    
  0.3468209896393582    0.24558445989539537    0.17399325822385125    0.1269549452604779    0.09701895285061497    
  0.07859380515554991    0.06876449983940693    0.06607503097548313    0.07033706046552253    0.08295070052754347    
  0.10757894166014015    0.1502568885136202    0.21768378791736293    0.308900863702002    0.39041107565237904    
  0.39716349591141537    0.3402925215185394    0.32216686170463893    0.4487186595262417    0.5071329626379912    
  0.5558940004408967    0.539067733129233    0.46125256546348564    0.3647542357554779    0.27843077654930015    
  0.21105005963222626    0.16182673986055932    0.1269549739984075    0.1031653221926321    0.08860030742635364    
  0.08201609303216535    0.08295070714302183    0.09177154984027196    0.1104541435270883    0.1426460446377468    
  0.19209480013145325    0.2596357439700088    0.33439572138934753    0.39041108048250417    0.41787484461656776    
  0.4487186595262417    0.39919608095131565    0.4424244128576686    0.4683462677425857    0.46125262463279837    
  0.4225612594220721    0.3658833538484833    0.3074321673430429    0.25548369049085967    0.21105005220441578    
  0.1739932587822059    0.14490319831287987    0.12429670963352307    0.11200337594596343    0.1075789607781732    
  0.11045412579763696    0.12094352118431305    0.1406096191249174    0.1707731966807474    0.2114449872089067    
  0.25963576003428684    0.30890088504349583    0.35458385217545174    0.39919608095131565    0.28069649990790835    
  0.31624182127537104    0.3468209758607168    0.3647542352268167    0.36588327060347703    0.35204888358877723    
  0.33136706342040134    0.307432122900243    0.2784307401047193    0.2455844833144173    0.21308623896573461    
  0.1851118113704859    0.16409261758692395    0.1502568557609206    0.1426459949344967    0.1406096187834967    
  0.14447255071349574    0.15460884250956836    0.17077320006101043    0.19209484008771202    0.21768381964739097    
  0.2471856733717045    0.28069649990790835    0.185111844288715    0.2130862413769006    0.2455844844319711    
  0.2784307362562628    0.30743208703143576    0.3313670541766758    0.3520489234113726    0.36588327511439805    
  0.3647542443163107    0.34682100266353344    0.3162417613278961    0.2806964399055191    0.24718570199385856    
  0.2176838612039561    0.19209479434042062    0.17077319591487602    0.15460887510271792    0.1444725278999743    
  0.14060959902560088    0.14264597550630745    0.1502568463905138    0.1640926275886348    0.185111844288715    
  0.12429672123011898    0.14490318460456092    0.17399324998149734    0.21105008030194294    0.25548368315816034    
  0.3074321535999586    0.36588332835809223    0.422561215441371    0.46125258705347627    0.468346222579359    
  0.4424244829075687    0.39919606563564536    0.35458391829727154    0.3089009194958299    0.2596357859182607    
  0.2114449657923982    0.1707732139517279    0.14060959529814163    0.12094351488818159    0.11045413405017825    
  0.10757893092522344    0.11200336170221342    0.12429672123011898    0.08860030438336625    0.10316533384698415    
  0.12695498028691105    0.16182672428384967    0.21105007104330042    0.27843073954887726    0.36475421777990175    
  0.46125251464741956    0.5390678622095237    0.5558938828370333    0.507132883715034    0.44871873719132593    
  0.4178748539752074    0.39041103365320123    0.33439570141432107    0.25963576069951594    0.19209483499838653    
  0.1426459728078638    0.11045416760777699    0.09177152190226938    0.08295069146588632    0.08201609811778436    
  0.08860030438336625    0.06876450342299785    0.07859376408350419    0.09701896771877452    0.12695496026347214    
  0.1739932418576951    0.24558448154583573    0.34682100259403736    0.468346223037314    0.5558939044825391    
  0.5229398587687826    0.39944050428284067    0.3221668924612513    0.3402925593496788    0.3971635105802541    
  0.3904110956989882    0.3089008617318039    0.21768381298264505    0.15025688641510854    0.10757894747359203    
  0.08295070320594207    0.07033707787712283    0.06607504306357889    0.06876450342299785    0.05881490657376341    
  0.0648804368614211    0.07859375024569765    0.10316529486502857    0.1449031932014524    0.21308623879727134    
  0.3162418232314502    0.4424243687435604    0.5071329183735305    0.3994404883260397    0.22764063928590664    
  0.15772342933852482    0.20565693360738016    0.3402925826874076    0.41787481428854917    0.3545838212768743    
  0.24718565270745127    0.1640926011322252    0.11200334053304993    0.08201609430417621    0.06607503457731739    
  0.0591188667039425    0.05881490657376341    0.055773587736292284    0.058814903566801795    0.06876451836778812    
  0.08860033633729338    0.12429670164100849    0.18511186170430746    0.2806964510392684    0.3991960548204999    
  0.44871883089824766    0.322166895064316    0.15772345107437927    0.10300731084241185    0.1577234507961973    
  0.3221668783465118    0.44871874601459266    0.39919607340550606    0.28069648571351624    0.18511185242749736    
  0.12429671616614599    0.08860032921344978    0.0687645071088844    0.05881490664318962    0.055773587736292284    
  0.058814910872659845    0.05911889141117674    0.0660750383893881    0.0820160846557218    0.11200336072054971    
  0.16409260234439055    0.24718564213655891    0.35458387266547897    0.4178748698458956    0.34029246454231143    
  0.20565695403622278    0.15772341996228184    0.2276406463812945    0.39944057973754254    0.5071328140224171    
  0.44242438320969096    0.3162418270448232    0.21308623114227432    0.1449031636080391    0.10316530377131386    
  0.07859380737899718    0.0648804273767183    0.058814910872659845    0.06876450848503553    0.06607504090015176    
  0.07033710283314429    0.08295068296975087    0.10757893174066864    0.15025690058779134    0.2176838121758058    
  0.3089008813543115    0.3904110785559282    0.39716352966152424    0.34029257259557844    0.3221668773174709    
  0.39944050277865145    0.5229399622620596    0.5558939300545939    0.46834625828030024    0.3468210571984289    
  0.24558446131277462    0.1739932550580759    0.12695496535401182    0.09701896649741464    0.0785937613556993    
  0.06876450848503553    0.08860033627286724    0.08201610679272335    0.08295072296571111    0.0917715216228755    
  0.11045412245348903    0.1426460083979856    0.19209487247507884    0.2596357116713596    0.3343956656753552    
  0.39041103780602265    0.4178748705990857    0.4487186771718481    0.5071328764116948    0.5558939524399077    
  0.5390677636438181    0.4612525498069804    0.3647542880474579    0.27843073018318465    0.2110500628471167    
  0.16182675672516222    0.12695499783561126    0.10316529373856931    0.08860033627286724    0.12429672347778163    
  0.11200333675882389    0.10757893309085355    0.11045413005419494    0.12094351185400067    0.14060961149309323    
  0.17077323394875757    0.21144496344864736    0.2596357396348685    0.30890093036904    0.3545839106189194    
  0.39919602372485896    0.44242448702789056    0.4683463638514278    0.46125254953733086    0.42256126057369875    
  0.3658833106934297    0.3074321189793934    0.25548371941908493    0.2110500331547301    0.17399325173343952    
  0.14490316636203351    0.12429672347778163    0.18511186240579336    0.16409262045019138    0.15025685791852872    
  0.14264601322341977    0.14060959073498872    0.14447254431455792    0.1546088822653691    0.170773182961122    
  0.19209482740668857    0.21768379980431576    0.247185668441679    0.28069642831257957    0.31624179343637515    
  0.34682098502878694    0.36475420140935455    0.36588325055969145    0.3520489435009223    0.3313669893275464    
  0.30743217639325326    0.2784307560541234    0.24558447811977252    0.21308622606591276    0.18511186240579336    
  0.28069648275604864    0.24718567502393948    0.21768380126838113    0.192094804218124    0.1707731776377975    
  0.15460888622845023    0.1444725284469073    0.14060959901648207    0.14264600766744867    0.1502568700624078    
  0.16409261214430784    0.18511184212862786    0.21308625189104421    0.24558451925908736    0.2784306781646737    
  0.30743215109161803    0.3313670939134268    0.35204886365512605    0.36588333301834325    0.364754178059226    
  0.3468209660449919    0.3162418105835374    0.28069648275604864    0.3991960777175511    0.3545839124854302    
  0.30890087301795577    0.2596358147604375    0.21144496907851706    0.1707732122137192    0.1406096120407696    
  0.12094350177926136    0.11045411772692244    0.10757893965330691    0.11200337911213598    0.12429673517277741    
  0.14490318931775112    0.17399324918004766    0.21105003091300364    0.2554836769030197    0.30743216990761446    
  0.36588319237031713    0.4225612672674574    0.46125257586373924    0.4683463052228749    0.4424243605952629    
  0.3991960777175511    0.44871869599957614    0.4178748970665453    0.3904110946406212    0.33439569681617903    
  0.25963570125223817    0.19209481653009725    0.142646028325653    0.11045413953003225    0.09177155218737722    
  0.08295069904647646    0.08201607122661608    0.08860033075625473    0.10316530895010055    0.12695496199850273    
  0.1618267507464873    0.2110500733888748    0.2784307712722315    0.36475417355924766    0.4612525847331222    
  0.539067768773757    0.5558939656043059    0.5071328893655871    0.44871869599957614    0.32216688831544704    
  0.34029256841953587    0.39716345857223007    0.3904110875544504    0.3089008250202043    0.21768382487328583    
  0.15025686830348325    0.10757891992149284    0.0829506867739153    0.07033709168039333    0.06607504052030874    
  0.06876450333118642    0.07859375765428325    0.09701893867550425    0.1269549168301717    0.1739932744360629    
  0.24558446612181353    0.3468209787697297    0.46834634658945523    0.5558938987865004    0.5229399052590303    
  0.3994405422904997    0.32216688831544704    0.15772341835738715    0.2056569254763074    0.3402925396351016    
  0.4178748755090024    0.35458382353248014    0.24718568735765087    0.16409266397606725    0.11200334666337643    
  0.08201610012437759    0.0660750321685113    0.05911888511985622    0.058814897023353595    0.06488043213089587    
  0.07859376715626734    0.10316528650555651    0.14490318459073742    0.2130862133051343    0.31624177880617077    
  0.4424244086255989    0.5071328622687348    0.3994405755069885    0.22764063584704827    0.15772341835738715    
  0.1030073078223837    0.15772343334890537    0.3221669019974366    0.4487187494620977    0.3991960172986068    
  0.28069647228401345    0.1851118606920423    0.124296744332879    0.08860033869705167    0.06876451583304026    
  0.05881492245712555    0.055773593066191895    0.05881490972627188    0.06876450651479868    0.08860035431983924    
  0.12429673922892329    0.1851118552662488    0.28069647403101583    0.3991961012797135    0.4487186889193685    
  0.3221668659112676    0.15772342871271844    0.1030073078223837    0.26880286146231147    0.3221668755461584    
  0.43274937996531393    0.4658297555801624    0.3850408700435579    0.276042958418977    0.19058832224880773    
  0.134051837358334    0.09938993033178531    0.07929796440944509    0.06876451726022421    0.06545664075519018    
  0.06876450316196167    0.07929797315850584    0.09938992490980478    0.1340518586060527    0.19058835017384998    
  0.2760429533594592    0.3850409391869605    0.46582970918016253    0.43274935504289247    0.3221668763644816    
  0.26880286146231147    0.32216686119881893    0.39944052369611066    0.5229399196724823    0.5558938762773171    
  0.468346251021106    0.34682101448477026    0.24558450695032905    0.17399323884258497    0.1269549656260918    
  0.09701895292095666    0.078593771710639    0.0687644917787567    0.06607503612019089    0.07033709212201925    
  0.08295067834332015    0.10757892534187058    0.1502568501668799    0.21768379446823868    0.30890088722291714    
  0.39041107234339867    0.39716348071965013    0.3402925820246826    0.32216686119881893    0.4327493499478819    
  0.5229398865375134    0.6197158468409117    0.6274156986209483    0.5389103347194347    0.4187792164982611    
  0.31076837407272695    0.22747915512387973    0.16764386647025542    0.12559927304622262    0.09701899877225777    
  0.07929796977257687    0.07033707794463653    0.0691494844679044    0.07591470599285527    0.09260496717815647    
  0.12345542933430206    0.17352442458635242    0.24493257619243333    0.3243946604364166    0.37776051243502995    
  0.3971634872528534    0.4327493499478819    0.46582972009686263    0.5558939710810781    0.6274157899534236    
  0.6329814513675163    0.5681681564362709    0.46902105896965485    0.3711074697552631    0.288702657869698    
  0.2216613380078206    0.16764386265639075    0.1269549721242958    0.09938990111428499    0.08295071596139612    
  0.07591470704140404    0.07711717419774357    0.0868397028401357    0.1073831768982014    0.1416646891429308    
  0.19212777051142915    0.25649255198536974    0.3243946346777607    0.3904110129958677    0.46582972009686263    
  0.3850409155836346    0.4683462339893783    0.5389103689600926    0.5681682082545764    0.5414095946229865    
  0.4769660251287802    0.4090847135409997    0.34897064653576176    0.28870266580995474    0.22747916096099974    
  0.17399328106439083    0.1340518221695744    0.10757893804823325    0.09260499440561784    0.08683971157536695    
  0.08901010464268286    0.09957210435141466    0.11953258049602987    0.15015157058989034    0.1921277235659309    
  0.24493259531455708    0.3089008594803116    0.3850409155836346    0.2760429680890632    0.3468210000901365    
  0.418779165683268    0.46902107466681475    0.476965879233606    0.4530037214126495    0.42905356177924925    
  0.4090846583313304    0.37110743847034855    0.3107684018470085    0.2455844721689413    0.19058830309086586    
  0.15025687769242901    0.1234554276805712    0.10738313963431695    0.09957208794069257    0.09901129730561208    
  0.10556611491686521    0.11953258241256576    0.1416647087541687    0.17352444166579678    0.21768381158685007    
  0.2760429680890632    0.19058831657076009    0.2455844671675685    0.31076836388023793    0.371107422159531    
  0.4090846301952883    0.4290535524736164    0.45300373248427545    0.4769659513983931    0.4690211018058308    
  0.41877916373305163    0.34682096227687564    0.2760429510532005    0.2176838268284675    0.17352447606840693    
  0.1416646684102538    0.1195325769616675    0.10556612173370873    0.09901125432244616    0.09957210470888311    
  0.10738312649359892    0.12345541274075121    0.1502568810036535    0.19058831657076009    0.13405181331634825    
  0.1739932763494299    0.22747911750378075    0.2887026890814116    0.34897066571480206    0.40908471801608176    
  0.47696598873371493    0.5414095598091101    0.5681681758581096    0.5389103502990785    0.46834628167373543    
  0.3850409174418995    0.3089008899808276    0.24493259203029083    0.19212776858549946    0.15015155142944675    
  0.11953260320200161    0.09957206263137959    0.08901011446626717    0.08683971489466269    0.09260496499819013    
  0.10757890354017978    0.13405181331634825    0.09938988237282706    0.12695498632149665    0.16764389965595286    
  0.22166131609749923    0.288702692393028    0.3711074329070847    0.46902107669423937    0.5681681272125757    