#     DFTpy    
  CRYSTAL 
    
  PRIMVEC    
  5.014472025219255    2.097869274622138e-05    -5.259744827586207e-13    
  -2.507217844527715    4.3426707753311735    -1.0290948275862069e-11    
  -8.649006896551725e-13    -2.0038007586206895e-11    8.244571148931747    
  PRIMCOORD    
  4    1    
  Si    1.2482948705523534e-05    2.8951206380088244    4.636531055080591    
  Si    2.507241697736959    1.4475711159795723    0.5142454197348818    
  Si    1.2482950589428841e-05    2.8951206380076298    7.73032566831299    
  Si    2.507241697745096    1.4475711160117344    3.6080401547133962    
  BEGIN_BLOCK_DATAGRID_3D    
  3d_datagrid_density    
  BEGIN_DATAGRID_3D#0    
  23    23    37    
  0.0    0.0    0.0    
  5.014472025219255    2.097869274622138e-05    -5.259744827586207e-13    
  -2.507217844527715    4.3426707753311735    -1.0290948275862069e-11    
  -8.649006896551725e-13    -2.0038007586206895e-11    8.244571148931747    
  0.01509583355482982    0.0155456274241679    0.017006765171148238    0.019911449593172086    0.02506723942570613    
  0.03360306667443908    0.047019467779406715    0.06666769757186003    0.09221588844808469    0.1198849448469202    
  0.1421338836647446    0.15074529557012814    0.14213388017876696    0.11988493756205969    0.09221589537864094    
  0.06666769616272866    0.04701946882155106    0.033603048800821406    0.025067238149921345    0.019911448153755024    
  0.017006772303017132    0.015545625543771957    0.01509583355482982    0.015545622713310985    0.015546572909817523    
  0.016504426862525786    0.01871439981006893    0.022846708495040932    0.029991042188352034    0.04173233697074551    
  0.059897128319489734    0.08535910317048577    0.11607649507430978    0.14545883600668533    0.16380859361282915    
  0.16381018652222776    0.14545827285301957    0.11606807275163818    0.08536784487970911    0.059900530821646224    
  0.04172921121157501    0.029991484250627216    0.022847083271242803    0.018713891246436413    0.016505171972489033    
  0.015545622713310985    0.01700678049061785    0.01650443305801077    0.01700647014627243    0.018714153006413062    
  0.02222708202592947    0.02867105685426159    0.039953545656968244    0.0587266491089081    0.08738106601995672    
  0.12571570303981938    0.1679130137172748    0.20187225428237843    0.21493492242496137    0.20187312110949948    
  0.16792902993921746    0.12571640471656598    0.08737217403978197    0.05872931807903645    0.039957029105331256    
  0.02867043904475923    0.02222773900533874    0.018713892088482058    0.01700678049061785    0.019911455186854072    
  0.018714407659079    0.018714152834398295    0.01991193731436272    0.02284679726598576    0.0286704779324727    
  0.03960047051582745    0.059184968821454326    0.09176297559912    0.14008211968680062    0.19986632115890565    
  0.25611496326229194    0.2897914773124216    0.28978817957004954    0.2561038110913013    0.19987096130987136    
  0.140089581542334    0.09176922355350339    0.059184657094335215    0.03959945358666734    0.028670446717520264    
  0.02284709044143468    0.019911455186854072    0.02506724161338279    0.022846708527305394    0.02222707120964518    
  0.022846789059118154    0.025066790644644524    0.02999196531038934    0.03995397907703969    0.0591844291443714    
  0.09384704734997398    0.15026016280431045    0.2273090654446599    0.3060373464050404    0.3588321758120699    
  0.37559197009632317    0.35885272585272215    0.3060352107121166    0.22730482106362734    0.1502684978492654    
  0.0938439859741748    0.059184635755845164    0.039957025242171915    0.029991483884503532    0.02506724161338279    
  0.03360308414008556    0.02999104106508804    0.028671031296526543    0.028670469988063888    0.029991950939544012    
  0.03360249871438228    0.04173300186273043    0.05872756888944371    0.09176471748212539    0.1502651090364021    
  0.23803567529674702    0.333395076859235    0.3917424422315138    0.40427018393363656    0.4042574287331667    
  0.3917529408094943    0.33342061432603126    0.238027316242543    0.15026851354777984    0.09176920727446355    
  0.058729327237559775    0.041729218800257754    0.03360308414008556    0.04701947339907307    0.041732331303052005    
  0.03995352902437223    0.039600467902148453    0.03995396149043656    0.04173301361188857    0.04701595145196949    
  0.05990216700534927    0.08737592986441722    0.14009007768699372    0.22729929445853483    0.3334180360726287    
  0.39733504862621316    0.38782644266320143    0.36896981058613887    0.3878220062159001    0.3973378085948166    
  0.33342056805690257    0.22730483990635295    0.1400895522723366    0.08737217963837773    0.059900529568725026    
  0.04701947339907307    0.06666770662895796    0.05989712527381176    0.05872663446970716    0.05918496599868167    
  0.059184406478968624    0.058727566750089964    0.05990213689763467    0.06666938197292974    0.08536312895124926    
  0.1257206009222735    0.199868182486181    0.3060364443537431    0.3917553321616896    0.387821432557647    
  0.3393422700361595    0.33935441607427175    0.38782198944927904    0.3917529329558703    0.30603526189396    
  0.19987094950985282    0.1257164018012951    0.08536785478032498    0.06666770662895796    0.09221591746816779    
  0.08535911318311001    0.08738105064473166    0.09176297466002017    0.09384703246837701    0.09176472728320088    
  0.08737593973735165    0.08536312780444051    0.09222174309625299    0.11607057075982334    0.16793007751450353    
  0.2561089700723381    0.358855033430928    0.4042333377909545    0.3689961055573802    0.33934229801647503    
  0.3689698083157373    0.40425741323908587    0.3588527323706748    0.25610382994549036    0.16792909206005385    
  0.11606807042776497    0.09221591746816779    0.11988496566786373    0.1160764796025279    0.125715664067019    
  0.1400820783901983    0.15026013971320665    0.15026508365894084    0.14009005382476417    0.12572059121722565    
  0.11607054165686974    0.11989510147254163    0.14545864594161317    0.20188283410967295    0.28979079687695114    
  0.3756128745681862    0.40423335078615374    0.38782146098139003    0.3878265628960635    0.4042702853321286    
  0.3755920360819563    0.28978818232396414    0.2018731369612154    0.14545826444951995    0.11988496566786373    
  0.1421338941735899    0.1454588407909172    0.1679130705336835    0.19986628933314388    0.2273090446905742    
  0.2380356381644465    0.2272992882561134    0.1998682214499748    0.16793006883257117    0.14545871560456325    
  0.14213981258843744    0.16381498871930392    0.2149399766151033    0.2897907999099121    0.358855048552774    
  0.39175536851632936    0.3973351484247196    0.39174245433122035    0.3588321286552744    0.28979147462883115    
  0.21493490868813597    0.163810187711216    0.1421338941735899    0.15074531799936883    0.16380856960012333    
  0.20187225797046138    0.25611489854673214    0.3060373052344732    0.33339510162198605    0.3334179695896374    
  0.30603636898769715    0.2561088945461936    0.20188281244773074    0.16381493018517884    0.15075189658525276    
  0.16381495285943462    0.2018828075186775    0.2561089277909554    0.3060364312845193    0.3334180299834294    
  0.33339504050845625    0.30603730096077264    0.25611491022012123    0.20187232782665684    0.163808583319227    
  0.15074531799936883    0.14213387475726078    0.16381016499668186    0.21493491087776165    0.28979141653159624    
  0.3588321546231654    0.39174245806926505    0.39733510205113326    0.3917553246512221    0.3588549533309613    
  0.2897907511734619    0.21493994252134538    0.16381495768996657    0.14213983247203588    0.14545869559272437    
  0.16793006279035189    0.19986819528602962    0.22729933190185303    0.23803569284429182    0.22730905624477749    
  0.19986630784398393    0.16791309618052216    0.14545883071379886    0.14213387475726078    0.11988496032504087    
  0.14545829086437115    0.20187309781301338    0.2897882594879348    0.3755920133972486    0.4042703095510007    
  0.387826588532043    0.38782152393486086    0.40423333050261706    0.37561290202653996    0.2897907273785453    
  0.20188280078553586    0.1454586700755079    0.11989506734223293    0.11607052825014279    0.12572061006074164    
  0.14009007775104507    0.15026509636388893    0.15026017332200156    0.14008207983775828    0.12571569267307717    
  0.11607645981983834    0.11988496032504087    0.09221588816497667    0.11606809114593697    0.1679290836605338    
  0.25610381101128005    0.35885271133514374    0.4042574076274974    0.36896984930884036    0.33934233682431914    
  0.36899612050153713    0.40423336646244096    0.3588549831633015    0.25610893658590334    0.16793011279693149    
  0.11607051504500435    0.09222175530319741    0.08536314218434954    0.0873759361104202    0.09176471330862479    
  0.093847037688905    0.09176297288931234    0.08738107861672754    0.08535910544007641    0.09221588816497667    
  0.06666770206347682    0.08536784669593742    0.12571638329517512    0.19987095660527487    0.3060351710380778    
  0.3917529436223365    0.38782203126715187    0.33935444462925946    0.33934234625660215    0.38782147234862385    
  0.39175531540969954    0.3060363995242303    0.19986820166477795    0.12572057774274442    0.08536314781632003    
  0.06666935673162198    0.05990214437826574    0.05872756910908157    0.0591844137168211    0.05918496493234812    
  0.058726645270572475    0.05989712975840242    0.06666770206347682    0.047019479591643897    0.05990052780797131    
  0.08737216097709423    0.1400895648817903    0.22730478852959776    0.33342060304793186    0.39733778312902246    
  0.38782203389533343    0.3689697885330125    0.3878265128830448    0.3973350527393631    0.3334179888022245    
  0.22729928912779923    0.1400900310514091    0.08737596741289859    0.059902149434756365    0.04701597123279374    
  0.04173301162703629    0.039953964021256186    0.0396004672585322    0.039953540645776164    0.04173233415093905    
  0.047019479591643897    0.03360308229535049    0.04172921335012429    0.058729328703796616    0.09176923477363895    
  0.15026849568239548    0.23802734565707023    0.33342057357942084    0.3917529734381348    0.40425731651739943    
  0.40427025776745096    0.39174240852309106    0.3333950748197314    0.23803568144764192    0.15026506417889066    
  0.0917647160473085    0.058727554822334195    0.04173301484839737    0.03360249702069148    0.029991957778637807    
  0.02867046676383051    0.028671054662761798    0.029991035929829296    0.03360308229535049    0.02506724329108656    
  0.02999148509113566    0.03995702474647571    0.05918464920896965    0.09384397292015348    0.150268501573491    
  0.22730477487905823    0.30603524268053534    0.3588527167770978    0.37559203279380243    0.35883212777392104    
  0.3060373289457649    0.22730908578418255    0.15026015617103128    0.09384704463798652    0.05918442025943657    
  0.03995397906218947    0.02999195494626833    0.025066801220371714    0.022846789350237356    0.02222707645459445    
  0.02284670912704536    0.02506724329108656    0.019911457735724423    0.022847089187644377    0.028670442319908236    
  0.039599464854171325    0.059184651714865415    0.0917692401131123    0.1400895487935929    0.19987092318442928    
  0.2561038292170308    0.2897881862320869    0.28979143159306114    0.25611488349754075    0.19986630252720383    
  0.14008206439278942    0.09176298784301239    0.05918496121501075    0.03960046946434729    0.028670473440958844    
  0.022846801916125634    0.019911934902282206    0.01871415681475725    0.01871440569153513    0.019911457735724423    
  0.01700677669104149    0.018713895861312214    0.022227741163468782    0.0286704434826376    0.03995702379135386    
  0.05872932886373194    0.08737215382797356    0.12571640916685492    0.16792906326408105    0.2018731434540226    
  0.21493486991082525    0.20187230977452056    0.16791307446203407    0.1257156547333102    0.08738106334468433    
  0.0587266464776975    0.039953551736176596    0.028671047968263256    0.022227081334040062    0.01871414789872704    
  0.01700647305385104    0.016504429719154966    0.01700677669104149    0.015545627791371702    0.01650517191322789    
  0.01871388474340895    0.022847084270635313    0.029991484001023756    0.041729213847293944    0.05990052756971989    
  0.08536782951242965    0.11606805769072295    0.1454582694788037    0.1638101632334907    0.1638085833633825    
  0.1454588466348388    0.11607647355191651    0.08535910739854263    0.05989713728320657    0.04173234917078076    
  0.02999104527917202    0.02284671169374125    0.01871440086754394    0.01650442887211751    0.015546570380392831    
  0.015545627791371702    0.01509583355482982    0.0155456274241679    0.017006765171148238    0.019911449593172086    
  0.02506723942570613    0.03360306667443908    0.047019467779406715    0.06666769757186003    0.09221588844808469    
  0.1198849448469202    0.1421338836647446    0.15074529557012814    0.14213388017876696    0.11988493756205969    
  0.09221589537864094    0.06666769616272866    0.04701946882155106    0.033603048800821406    0.025067238149921345    
  0.019911448153755024    0.017006772303017132    0.015545625543771957    0.01509583355482982    0.014912346592652899    
  0.015352042666924533    0.016786173747027566    0.019635056729804343    0.02467083836978634    0.03297376392638345    
  0.04597566772002393    0.06492790390659135    0.08947061431069771    0.11598349369308408    0.13725479969321086    
  0.1454753288609014    0.13724734398249927    0.11598078662567303    0.08948711168401105    0.064926101259836    
  0.045967137800308124    0.03297533929257133    0.02467188622029676    0.019635443428544768    0.016786069428411095    
  0.015352066525667497    0.014912346592652899    0.015352063912747686    0.015352954663525235    0.01635232798679931    
  0.018680047548520953    0.023041935806019535    0.030628110582907413    0.04321081719026043    0.06285173635377386    
  0.09056813703753773    0.12412777935611376    0.15630030065631914    0.17642761781657929    0.17643440281292255    
  0.1563073872511037    0.12410757685413866    0.09057386244003025    0.06286284744094447    0.04321009024527084    
  0.030627441092617322    0.02304200243439104    0.018679576267823315    0.01635311800293239    0.015352063912747686    
  0.01678607657856846    0.01623189717546623    0.016785888831986392    0.01867950367758602    0.02259631493640329    
  0.02985527732225973    0.04276650413207166    0.06458680748974918    0.09839926153687623    0.1441400158133199    
  0.19454385837262073    0.23480338625287195    0.2501551679654327    0.23479964257172256    0.194575514065905    
  0.14413903800310102    0.09838695478356192    0.06459131388734421    0.04276750075895634    0.029855876083350174    
  0.02259675666732462    0.01867958421012675    0.01678607657856846    0.019635454083673107    0.018241864624315207    
  0.018241820535978098    0.019635652521463022    0.02304228991300878    0.029855283134353854    0.04284129523414193    
  0.06654382326355773    0.1067094794166682    0.1669638362474557    0.2407478246987568    0.3070080754334044    
  0.3439228163709524    0.34391638327949325    0.306973590919665    0.24075722349739748    0.16698768115905402    
  0.10670740218258329    0.06654426731206063    0.042842428044789    0.029855887551251528    0.023042006907394552    
  0.019635454083673107    0.024671889449488164    0.021970875643153514    0.021207482317440435    0.02197083664143183    
  0.024671221677942407    0.03062737189195691    0.04276824415151628    0.06654246768100457    0.11022877144261027    
  0.18204579544944607    0.27722334098473345    0.362273149807473    0.4024894967520347    0.4093075144982348    
  0.40254044337932543    0.36227163277762037    0.27719539112662994    0.18205966054732864    0.11023204668364361    
  0.06654425385207666    0.04276750184298596    0.030627452783786594    0.024671889449488164    0.03297537287042587    
  0.02832462479711736    0.026553882350891157    0.026552350722783218    0.02832691570132919    0.032973615681868504    
  0.04321192866285552    0.0645867695242515    0.10671241140325603    0.18204983202462374    0.2907189345065547    
  0.3846991794445916    0.3955959577151437    0.35782970264484254    0.357801557065834    0.39559992652285086    
  0.38476091543181795    0.29069844353452234    0.18205968325030936    0.10670740762993683    0.06459132785086232    
  0.04321008666317454    0.03297537287042587    0.045967142325895785    0.0385740339956772    0.035666529048091755    
  0.03495207525207123    0.035666267895542184    0.03857463740983071    0.045966709596702154    0.06286455693460861    
  0.09838479312117264    0.16698862854513122    0.27719011790350456    0.3847505308964278    0.37902733750988743    
  0.2778429191796654    0.22663128535435095    0.27784053140269166    0.3790147140360655    0.3847608387964921    
  0.27719539719248615    0.16698765815682015    0.0983869684108856    0.0628628436442314    0.045967142325895785    
  0.06492610937990584    0.054134657280613806    0.05043476891327929    0.04956124025020786    0.049560249115223186    
  0.05043661060153413    0.05413440570538231    0.06492892265515089    0.09057265369899324    0.14414320588872456    
  0.24074850735882095    0.36227890974968574    0.3956103114313664    0.2778257026760344    0.17035657733535028    
  0.1703743929671374    0.2778405066445733    0.39559988922616024    0.36227166147273193    0.24075723545085914    
  0.14413903444810308    0.09057387178890214    0.06492610937990584    0.08948710151876389    0.07561341641612458    
  0.07242008852979023    0.07316681358609231    0.07391310436957682    0.07316784341642114    0.07242032266476194    
  0.07561601977108494    0.0894871138721432    0.1241128994119535    0.19457658047308463    0.30698265448474515    
  0.4025314674660249    0.3577654124535982    0.2266774145529644    0.17035660535591213    0.22663129943079333    
  0.3578015788044249    0.40254046133152005    0.3069736156647658    0.19457557583629836    0.12410756492942446    
  0.08948710151876389    0.11598080068915677    0.10125332808384759    0.10120286366869559    0.1073529286183928    
  0.1125863091316064    0.11259426437195678    0.10734856401841986    0.10121133050547453    0.10124926270948947    
  0.11599275255334503    0.1563000363559321    0.23481656927893396    0.3439223392376977    0.4093419095353494    
  0.3577654641412303    0.2778257521268297    0.2778429642638322    0.3578298037873578    0.40930755104664074    
  0.343916448530913    0.23479967846321803    0.15630740233911677    0.11598080068915677    0.1372473352173079    
  0.12556817693238598    0.13250364599462267    0.1492710110017521    0.16555691470308817    0.17225526873301653    
  0.1655584708546124    0.1492726965607096    0.13251069856809147    0.12556953562278111    0.13725490242910496    
  0.17644009716545794    0.25015284074515237    0.34392229149232306    0.402531440726162    0.39561037282718764    
  0.37902735011789795    0.39559598267101853    0.4024894584577392    0.34392276033687436    0.25015516475226907    
  0.17643443277720772    0.1372473352173079    0.14547531244160913    0.1406632556192168    0.15760285568220359    
  0.18936715992286274    0.22325588568463856    0.24473412902966218    0.2447382433405636    0.22325515236955806    
  0.18937026784492947    0.15760821687153379    0.14066743700419887    0.14548057718033472    0.17644005376693556    
  0.23481655254051395    0.3069826268043982    0.3622788862216997    0.38475055876578385    0.38469913762110935    
  0.36227315212300465    0.3070080391792659    0.23480343017373106    0.17642760072092423    0.14547531244160913    
  0.13725482902280015    0.14066151831743684    0.16726699903541048    0.2141784277819851    0.26795309750512913    
  0.3081181547875808    0.32228430732302793    0.30812669948824917    0.26795845962552434    0.21418289707653335    
  0.16727170211405676    0.14066747871120527    0.1372549660627521    0.156300091989189    0.194576612325608    
  0.24074852120058024    0.27719012339939897    0.2907189457231027    0.2772233627138761    0.24074780091773698    
  0.19454391317359385    0.1563002926145595    0.13725482902280015    0.1159835121469131    0.12556199864579876    
  0.15760456326920666    0.21418015554154762    0.2845361813329437    0.3421270510465824    0.369018219589027    
  0.369021489578221    0.3421199393805442    0.2845419945831446    0.21418288617420006    0.15760822240869168    
  0.1255695475788169    0.11599271544354459    0.12411286445402607    0.14414320195141173    0.1669886169714258    
  0.18204982003454603    0.18204576947290066    0.16696377435282478    0.1441400451514309    0.12412776998224392    
  0.1159835121469131    0.08947064912783997    0.1012503277198765    0.1325118177147949    0.18936748777532866    
  0.26795327070129665    0.34212650012210977    0.3818139334437647    0.39061575818798566    0.38181296260370096    
  0.34211995691729497    0.26795849430887125    0.18937035515107392    0.13251071548398205    0.10124923842089681    
  0.0894871307427873    0.09057266926598787    0.0983848032863273    0.10671239391828238    0.11022878213441822    
  0.106709454609527    0.09839927293322996    0.09056816392367383    0.08947064912783997    0.06492791162082107    
  0.07562856794065266    0.1012058136141087    0.14926984462644025    0.22325558331692907    0.30812815124620657    
  0.36901680062362696    0.39061317085195274    0.39061576372377016    0.36902146438496986    0.3081266993009741    
  0.2232551686371201    0.14927269066487142    0.101211331543094    0.0756160112739934    0.06492889955127477    
  0.06286454975754506    0.06458676663735112    0.06654244599542687    0.06654381318723127    0.06458679612931398    
  0.06285173541637118    0.06492791162082107    0.04597567201270269    0.054132927839406306    0.07240753848087425    
  0.1073504125787457    0.16556503929008382    0.24473841037831098    0.32229024625046415    0.3690168308416966    
  0.38181393437921474    0.3690182270582352    0.32228430363241023    0.24473829083296386    0.16555845939348326    
  0.10734855789991835    0.07242034880895043    0.05413441563110992    0.045966715344550886    0.04321193086953099    
  0.04276823037684176    0.04284128584739996    0.042766496379649306    0.04321080811619108    0.04597567201270269    
  0.03297376742751583    0.03856628581271303    0.050436702381431206    0.0731820566220242    0.11259206962556882    
  0.1722507993856145    0.24473842948283908    0.30812816918442165    0.3421264606354365    0.34212700530659623    
  0.30811813887549805    0.24473415783410898    0.17225524771168563    0.11259419452680142    0.07316783644660489    
  0.05043660047599883    0.038574648016447624    0.03297361243179173    0.030627368243244704    0.029855272616791374    
  0.02985527126341205    0.030628104469837162    0.03297376742751583    0.024670843070961526    0.028325876152003104    
  0.03567446114927527    0.04955984006907487    0.07390148322611209    0.11259209058689157    0.16556507150885455    
  0.22325561851924586    0.2679532367209901    0.2845361913809592    0.26795302940543797    0.22325588857733517    
  0.16555692625760524    0.112586298676256    0.07391311240537222    0.04956027200269788    0.03566628110165441    
  0.028326909100213352    0.024671232990071304    0.023042285893309485    0.022596303867909395    0.02304193092979906    
  0.024670843070961526    0.019635066980380478    0.021972039671355525    0.026552207926670453    0.03494656625502265    
  0.049559850349824644    0.07318206822987951    0.1073504096441023    0.1492698272239024    0.18936746616861705    
  0.21418013493892982    0.21417838633840833    0.1893671934914403    0.14927102470376144    0.10735292939407998    
  0.07316683169938357    0.0495612379778493    0.03495208547768129    0.026552347657234927    0.021970848274089204    
  0.019635649012135565    0.018679507374919888    0.01868005452686694    0.019635066980380478    0.016786191018209377    
  0.018241291060078327    0.021207634226951138    0.026552205596023462    0.03567446236424837    0.050436700900936465    
  0.07240753150870555    0.10120582995573174    0.13251181376639318    0.1576045750381137    0.16726696793643792    
  0.15760290467527646    0.1325036636541786    0.1012028552459257    0.07242008388979367    0.05043477357075525    
  0.03566654729228176    0.026553893978462834    0.021207487694875436    0.018241817749638553    0.01678589392382866    
  0.016352330060534964    0.016786191018209377    0.01535204188237277    0.016232598767687928    0.01824128195260407    
  0.02197204122942475    0.02832586832930751    0.03856627901361098    0.05413292591235968    0.07562854811072751    
  0.10125029014318651    0.12556195652253693    0.14066148556325778    0.140663275362877    0.12556820403688723    
  0.10125332255695488    0.07561339675558461    0.054134664538498835    0.038574053515016284    0.02832462844427907    
  0.02197087487235337    0.01824185412515294    0.0162318954680009    0.01535295336032075    0.01535204188237277    
  0.014912346592652899    0.015352042666924533    0.016786173747027566    0.019635056729804343    0.02467083836978634    
  0.03297376392638345    0.04597566772002393    0.06492790390659135    0.08947061431069771    0.11598349369308408    
  0.13725479969321086    0.1454753288609014    0.13724734398249927    0.11598078662567303    0.08948711168401105    
  0.064926101259836    0.045967137800308124    0.03297533929257133    0.02467188622029676    0.019635443428544768    
  0.016786069428411095    0.015352066525667497    0.014912346592652899    0.014378575178274441    0.014795752010279523    
  0.01615663346208964    0.018842319597373536    0.02352754326702497    0.03117189156980547    0.04301141130023294    
  0.06006486012496555    0.08189916365328558    0.10527041937056861    0.12389195910913912    0.13106634399952066    
  0.12388156287866574    0.10526516148142753    0.08191900608208522    0.060064804784947134    0.042999932402736925    
  0.031174257077447177    0.023529000784994206    0.01884278495340312    0.016156448107575293    0.01479587553507259    
  0.014378575178274441    0.014795873938114637    0.01479596686702428    0.015801983078846737    0.01813325069974571    
  0.02247509716953829    0.03000199859184251    0.04248540641933573    0.06195497870729231    0.08940450206186244    
  0.12256358520044501    0.15425331664934286    0.17403619185896507    0.17404811735242579    0.15426431843296068    
  0.12254326355867233    0.08940571589929688    0.06197131060956116    0.04248349019604055    0.03000178220218641    
  0.022474385302325577    0.018133797841847703    0.015802005267790964    0.014795873938114637    0.016156451387363126    
  0.0155734315060287    0.01615637421825123    0.01813370889315736    0.022195448411478046    0.029738124547982647    
  0.04321684898107767    0.066097264760741    0.1017067947619581    0.1499754730476878    0.2029404948898337    
  0.2448846685957577    0.26075358992000747    0.24487427638371537    0.2029745816731466    0.14997873661042785    
  0.10169045489751762    0.06610295511875426    0.0432181856887078    0.02973912303613147    0.022195609838740537    
  0.018133802194022147    0.016156451387363126    0.018842791712347803    0.017339701839293408    0.01734055322903107    
  0.01884182285928114    0.02247543490873154    0.029737329415077448    0.043668585449945965    0.06927560453710842    
  0.11295495985901398    0.17856255267137747    0.257798772439573    0.3261634103202122    0.3619630785703857    
  0.3619600315504152    0.3261285253158184    0.2578003577166914    0.17859687637487176    0.1129497764007259    
  0.06927682243813613    0.04366878272551444    0.02973913083735223    0.0224743936435818    0.018842791712347803    
  0.02352900501553787    0.02057582720360722    0.01973160925202296    0.020575802881330034    0.023528823925435146    
  0.030001245044308497    0.043219690756730565    0.06927397856307685    0.11753750020944052    0.19689367600883562    
  0.29916098974821487    0.38070070120198973    0.4054760861024443    0.4032831427581069    0.40552131403668884    
  0.38071041841681375    0.2991215770249753    0.1969096493581891    0.11754248991877171    0.06927680140537702    
  0.0432181831826611    0.030001786380452516    0.02352900501553787    0.031174284713567233    0.0259733861651772    
  0.023955027217990234    0.023951897991207935    0.025976909767094342    0.031170658562781273    0.04248698758736655    
  0.06609551842190178    0.11295900662598908    0.19689615415495595    0.3139071296294805    0.3966005873340853    
  0.36866994314391877    0.3014338715335075    0.30141564941484605    0.36866740530098147    0.39667578126691394    
  0.3138797896389083    0.1969096867346637    0.11294977499597574    0.06610297023088836    0.042483488296520655    
  0.031174284713567233    0.042999926407163575    0.0344658610060794    0.0309014981495624    0.029968383411511937    
  0.030901419443990136    0.03446600505354228    0.04300055065520166    0.061971531473162145    0.10168942239512643    
  0.1785935121119982    0.29912059099735416    0.3966561584385313    0.3385341255000296    0.1982415632735914    
  0.14221177343410987    0.1982452811175579    0.3385104119950577    0.3966757365794616    0.2991215783349909    
  0.17859684154003458    0.10169047966509816    0.06197131409311041    0.042999926407163575    0.060064809799632995    
  0.04701206805774479    0.04175843712792331    0.04001642297871418    0.04001633744036744    0.0417592596052797    
  0.047011919980265285    0.0600660079535894    0.08940662696612568    0.1499807931468272    0.2577928271799895    