#     DFTpy    
  CRYSTAL 
    
  PRIMVEC    
  3.558827586206896    0.0    0.0    
  0.0    3.558827586206896    0.0    
  0.0    0.0    3.558827586206896    
  PRIMCOORD    
  2    1    
  Si    0.0    0.0    0.0    
  Si    1.779413793103448    1.779413793103448    1.779413793103448    
  BEGIN_BLOCK_DATAGRID_3D    
  3d_datagrid_density    
  BEGIN_DATAGRID_3D#0    
  17    17    17    
  0.0    0.0    0.0    
  3.558827586206896    0.0    0.0    
  0.0    3.558827586206896    0.0    
  0.0    0.0    3.558827586206896    
  0.05810043992167346    0.09846556926692573    0.2366843452832403    0.36264322378985914    0.32637208439255255    
  0.22201663397644453    0.1446245198606354    0.10476807005905062    0.09291608113018701    0.10476810340415307    
  0.14462450191333773    0.22201664972355895    0.3263720664365064    0.3626432420042576    0.23668436567112383    
  0.09846553961785257    0.05810043992167346    0.0984655619371228    0.14464641788108365    0.27684059576007825    
  0.3687037948994983    0.31524377811710846    0.2135115730468474    0.14071513418750564    0.10319604976317164    
  0.09195761893852958    0.10319601491550728    0.14071512477112236    0.2135115716857953    0.3152438007626161    
  0.3687038455511202    0.2768405853790305    0.14464642108878947    0.0984655619371228    0.2366843665832091    
  0.27684061361978146    0.353809746246028    0.36082423909452427    0.2810171447936295    0.19104630589087487    
  0.13061345382725587    0.09920195140729535    0.089625779548663    0.09920196716851103    0.13061342631776013    
  0.1910463156091931    0.28101715169766395    0.36082422674522413    0.3538097816491332    0.27684057418061275    
  0.2366843665832091    0.36264322424888545    0.3687038252283871    0.3608242616000744    0.3076865513412453    
  0.2293868038448893    0.16186963947210006    0.11791428044844926    0.09461654913466679    0.08738242123698649    
  0.09461654492601575    0.11791427532126054    0.16186958075163868    0.22938681680602155    0.307686567256453    
  0.3608242159474285    0.3687037839465982    0.36264322424888545    0.3263720648101279    0.31524377689522576    
  0.28101709370695216    0.22938682206652108    0.17602755761972672    0.13376617272419725    0.1061024245002554    
  0.09116789541935902    0.08650853213579993    0.09116792713295963    0.10610239637432158    0.13376614355400887    
  0.17602753798627774    0.22938683234697146    0.2810171265696236    0.3152437278792066    0.3263720648101279    
  0.22201666070683154    0.2135115764881136    0.19104628357093348    0.16186962052914802    0.13376618823709435    
  0.11183000304845231    0.09743729684252984    0.08973545662213366    0.08738247745268897    0.08973546818254424    
  0.0974373083964223    0.11182996953630205    0.13376616651852088    0.16186964014032992    0.19104624900682984    
  0.21351161864182644    0.22201666070683154    0.14462453472224107    0.1407151529822777    0.13061341452190564    
  0.11791430362102474    0.10610240466562255    0.09743731949277863    0.09243402433388506    0.09021037734429883    
  0.08962577217826884    0.09021040568055326    0.09243399797103541    0.09743732620895305    0.10610243916210595    
  0.11791430173416323    0.13061343097871378    0.14071512124060237    0.14462453472224107    0.10476807561584302    
  0.10319601868178103    0.09920195629772081    0.09461655030906481    0.09116790907399393    0.08973548641433854    
  0.09021039947580912    0.0913971247467373    0.09195761228074524    0.09139714418050097    0.09021036441978379    
  0.08973545965790036    0.09116790999463162    0.09461662037163464    0.09920194118295773    0.10319601332088929    
  0.10476807561584302    0.09291609224869149    0.09195761562668806    0.08962576391536224    0.08738245547715204    
  0.08650852081218724    0.08738244684363577    0.08962577883450863    0.0919575896091016    0.092916071837765    
  0.09195761842288691    0.08962575562534042    0.08738244428040214    0.08650854215601131    0.08738244908187603    
  0.08962577071833328    0.09195757927274606    0.09291609224869149    0.10476811521562572    0.10319600729437813    
  0.09920194293889394    0.09461657442255822    0.09116794269200891    0.08973549251524843    0.0902103806926657    
  0.09139713494583877    0.09195761685711633    0.09139713034728311    0.0902103771870942    0.08973545997543836    
  0.09116792819260248    0.09461658741280123    0.0992019436380647    0.10319604368513341    0.10476811521562572    
  0.14462455063847893    0.14071514444581165    0.13061344030332458    0.11791432162578128    0.10610242404153487    
  0.09743730930221645    0.09243403608342465    0.09021037756229873    0.08962576883194656    0.09021038792414351    
  0.0924340184327861    0.09743731248818753    0.10610243465784236    0.117914309868899    0.13061344887980353    
  0.1407151266248467    0.14462455063847893    0.22201659355989742    0.21351152539022555    0.19104628811276883    
  0.16186956960843948    0.133766190556382    0.1118299893550979    0.09743728781983163    0.08973544536136778    
  0.08738244596484054    0.08973547041012296    0.09743730897446339    0.11182997671867641    0.13376616949501677    
  0.16186963308005317    0.191046283008362    0.21351152963697556    0.22201659355989742    0.32637207819941244    
  0.3152437708877003    0.28101708531788405    0.22938677641882668    0.1760275376844193    0.13376618838581136    
  0.1061024143311949    0.09116789819200975    0.08650852361129409    0.09116793102310125    0.10610239106777677    
  0.1337661871956872    0.17602754383275585    0.22938680833187236    0.2810171200679847    0.31524371640429993    
  0.32637207819941244    0.3626432692334227    0.3687038272240883    0.36082421595781305    0.30768651446732453    
  0.22938679283700456    0.161869638159664    0.11791425339242871    0.09461660521347519    0.08738245693154385    
  0.09461657059165429    0.11791428672475823    0.16186963250653993    0.22938681332458263    0.3076865887955265    
  0.36082421740898457    0.36870380828175353    0.3626432692334227    0.23668438010617582    0.2768406220821065    
  0.3538097245913258    0.36082427203015005    0.28101714782694426    0.19104629049609553    0.13061343326452474    
  0.09920193979301184    0.08962576967131337    0.09920197202729394    0.1306133994325362    0.19104630227219138    
  0.28101712229726655    0.36082425842117427    0.3538097563006    0.27684059324297433    0.23668438010617582    
  0.09846555197551472    0.1446464234437022    0.27684057374481763    0.3687037757334719    0.31524375413595035    
  0.21351161501544538    0.14071511729414485    0.10319602202515224    0.091957589293822    0.10319602867283635    
  0.14071513686527024    0.2135115247740615    0.3152437587022195    0.36870382746283514    0.2768406280798468    
  0.14464640571969165    0.09846555197551472    0.05810043992167346    0.09846556926692573    0.2366843452832403    
  0.36264322378985914    0.32637208439255255    0.22201663397644453    0.1446245198606354    0.10476807005905062    
  0.09291608113018701    0.10476810340415307    0.14462450191333773    0.22201664972355895    0.3263720664365064    
  0.3626432420042576    0.23668436567112383    0.09846553961785257    0.05810043992167346    0.09846554649003436    
  0.14464642853573362    0.2768405633145995    0.36870380110288714    0.3152437509924324    0.21351157800390444    
  0.14071514788303385    0.10319599784603645    0.09195761389608981    0.10319603720800356    0.140715094492682    
  0.21351153591355304    0.3152437524708501    0.3687038412859514    0.2768405947205656    0.14464639740007731    
  0.09846554649003436    0.1446464355471639    0.19228925599070287    0.3102246930201571    0.3701165712069605    
  0.304244133133567    0.20589666255730657    0.13740168270643102    0.10204856300084857    0.091397140875396    
  0.10204854151110222    0.13740168073668374    0.205896637182896    0.3042441474013688    0.3701166723386322    
  0.31022470731566265    0.19228930493193175    0.1446464355471639    0.2768406118834266    0.3102246753500384    
  0.3659439239686606    0.3537150396104223    0.2713106145672197    0.18577197073948032    0.12891741601317808    
  0.09927584265209968    0.09021037699531279    0.09927585661025433    0.12891739616009615    0.18577199468039135    
  0.27131058636373756    0.35371504031764583    0.36594392860161745    0.310224704756993    0.2768406118834266    
  0.36870379049700275    0.3701165887870254    0.3537150355988168    0.29780348090301095    0.22293439767262127    
  0.15968935993549235    0.11847394491650078    0.09654688260212184    0.08973544839311237    0.09654685435880156    
  0.11847398477803296    0.15968930084777455    0.22293442582648185    0.2978035834652407    0.35371502916927583    
  0.37011655140159727    0.36870379049700275    0.31524378304723505    0.30424413572999937    0.27131053687798007    
  0.2229344082265955    0.1736496162560923    0.1347545820716224    0.10922081189484902    0.09544490844362376    
  0.09116791508790666    0.09544497367714433    0.10922077535035742    0.13475455408464637    0.17364961277481814    
  0.22293442005671782    0.27131060465341084    0.30424406038974355    0.31524378304723505    0.21351160176436415    
  0.2058966343614017    0.18577194562709257    0.15968931736784917    0.13475459438278428    0.11551708646394941    
  0.10305780717172575    0.09654687622918696    0.09461658929957957    0.09654689706623322    0.10305782446878216    
  0.1155170597943476    0.13475459156424674    0.15968933257248924    0.1857719869828624    0.20589663629268382    
  0.21351160176436415    0.14071514980365696    0.13740168960644103    0.12891738631715038    0.11847397674969568    
  0.1092208166300739    0.10305782267136668    0.10011271546666388    0.09927584301126724    0.09920195684145168    
  0.09927585009488901    0.10011268164692888    0.10305780651648419    0.10922082966486774    0.11847400462989602    
  0.1289174486397655    0.13740169212780062    0.14071514980365696    0.10319601902864947    0.10204855487221343    
  0.09927584434918584    0.09654687951729889    0.09544494395586745    0.096546897489444    0.09927584470542389    
  0.10204853843566043    0.10319603448613968    0.10204855674230766    0.09927583041291492    0.09654685926808554    
  0.09544494992892832    0.09654689805662367    0.09927585303054286    0.10204854077017085    0.10319601902864947    
  0.09195762137895004    0.09139713621088616    0.0902103668162131    0.08973545011743672    0.09116791228511102    
  0.09461660409662032    0.09920195073510192    0.10319601171557385    0.10476808342601715    0.10319603271424074    
  0.09920193125726225    0.0946165618075157    0.09116791129311078    0.08973547831415433    0.09021039704595908    
  0.09139709860512962    0.09195762137895004    0.10319604563514623    0.10204854251977959    0.09927584091487086    
  0.09654687526148391    0.09544496917864391    0.09654691016800555    0.09927584585989309    0.10204856812522954    
  0.10319603887903804    0.10204853529169976    0.09927584349812339    0.09654686402292773    0.09544495976498857    
  0.0965469018561592    0.09927582748372932    0.10204855958001918    0.10319604563514623    0.14071513757160387    
  0.13740170324613282    0.1289174153343715    0.11847399145753483    0.10922081365082403    0.10305783433800199    
  0.1001127241645841    0.09927584758035891    0.09920195568666927    0.09927582956122182    0.1001127033178538    
  0.10305782420350168    0.10922081963028753    0.11847396925347767    0.12891741585110952    0.13740168097038735    
  0.14071513757160387    0.2135115468400061    0.20589660121790557    0.1857719936942014    0.15968931087635937    
  0.13475457507658906    0.11551709349722727    0.10305780605840098    0.09654685830891868    0.0946165679102339    
  0.09654686273436368    0.10305781222622691    0.11551703118349144    0.13475456621083076    0.15968935405826898    
  0.18577194371684388    0.20589664017079198    0.2135115468400061    0.3152437490311034    0.3042441554328376    
  0.27131053110382974    0.22293438409740618    0.17364961526697736    0.13475457411652794    0.1092208293802394    
  0.09544490920052254    0.09116792061057281    0.09544496152335895    0.10922079131281626    0.13475457005419467    
  0.1736496119388622    0.2229344300164855    0.27131056447963614    0.30424404385463727    0.3152437490311034    
  0.36870381480127834    0.3701166708638994    0.3537150293601273    0.29780352735018734    0.22293443219603154    
  0.15968933660243742    0.11847397655903723    0.09654687704010079    0.0897354812770439    0.09654686504535076    
  0.11847395610122868    0.1596893244718435    0.22293443414082612    0.29780356365829885    0.35371502544875044    
  0.37011661437885246    0.36870381480127834    0.27684062487762867    0.31022470061236096    0.36594388085570423    
  0.35371501600655103    0.27131060498939635    0.18577199689605828    0.128917438223434    0.09927584359549438    
  0.09021039228460548    0.09927584890863349    0.12891736921796684    0.18577196284251532    0.27131058986568657    
  0.35371502987495157    0.3659439393634758    0.3102246844394673    0.27684062487762867    0.14464643226054555    
  0.1922892849835388    0.31022466764179024    0.37011653496113717    0.3042441112130435    0.20589666150432792    
  0.1374016979008068    0.10204854329301452    0.09139711782906727    0.1020485618427408    0.13740168381371304    
  0.20589662711698387    0.3042441095557325    0.3701166117742642    0.3102246991856344    0.1922892542533653    
  0.14464643226054555    0.09846554649003436    0.14464642853573362    0.2768405633145995    0.36870380110288714    
  0.3152437509924324    0.21351157800390444    0.14071514788303385    0.10319599784603645    0.09195761389608981    
  0.10319603720800356    0.140715094492682    0.21351153591355304    0.3152437524708501    0.3687038412859514    
  0.2768405947205656    0.14464639740007731    0.09846554649003436    0.23668436260487863    0.2768406153821647    
  0.35380969163538534    0.36082428195227456    0.28101712917239746    0.19104630442750714    0.1306134345535419    
  0.09920192492002594    0.08962577611704074    0.0992019628800561    0.13061341252444472    0.1910463115170122    
  0.28101712303302934    0.360824287216242    0.35380972929542814    0.27684055901296356    0.23668436260487863    
  0.2768406502211805    0.3102247096642043    0.36594388983930837    0.3537150447106715    0.27131062615307794    
  0.18577198957440452    0.12891740209242994    0.09927586052896496    0.09021040172261624    0.09927583954230311    
  0.12891739998377671    0.18577198011325236    0.27131061629482445    0.35371504814376836    0.36594395000317387    
  0.3102247354744464    0.2768406502211805    0.3538097746785803    0.3659438889310513    0.37052015489479645    
  0.32401909818983476    0.24386103277292245    0.17206608554279762    0.12498336610187125    0.10011271098061106    
  0.09243401618397291    0.10011272096730404    0.12498332585446735    0.17206608091148054    0.24386100124110668    
  0.3240190616707116    0.3705202231394215    0.36594390263023663    0.3538097746785803    0.36082425020288406    
  0.3537150602505191    0.3240190881378392    0.26854043420509716    0.20577965680025812    0.1547146362454467    
  0.12113932562980974    0.10305779994914079    0.09743731427491677    0.10305779915395336    0.12113933083439947    
  0.15471460162094092    0.20577967824469234    0.26854041828036673    0.32401905146643184    0.3537150320771337    
  0.36082425020288406    0.2810171435428578    0.27131056889536137    0.24386099258004498    0.20577966030662334    
  0.16821078398005235    0.13884885474256675    0.11953292658918242    0.10922080386290058    0.10610243071384097    
  0.10922084678276393    0.1195328954749227    0.13884883422621228    0.16821077622948558    0.20577968761463336    
  0.24386098135075168    0.27131051620450025    0.2810171435428578    0.19104633385701064    0.18577198106295253    
  0.17206604709547083    0.15471463780367423    0.13884887489944076    0.1275724194919911    0.12113932593961628    
  0.1184739974385884    0.11791431526412949    0.11847398810485543    0.12113932725780714    0.1275723953637041    
  0.1388488619735352    0.15471466384468352    0.17206602680042568    0.18577201522010792    0.19104633385701064    
  0.1306134399629913    0.12891742949290802    0.1249833170197817    0.12113935554163531    0.11953289657788731    
  0.12113934834728525    0.12498332461887114    0.12891740218949382    0.13061342324271655    0.1289173918666437    
  0.12498332929382414    0.12113938622120053    0.11953293259137023    0.12113936721637932    0.12498333032963009    
  0.12891740651821118    0.1306134399629913    0.09920193572330842    0.09927584511665366    0.10011271994335297    
  0.10305780164902292    0.1092208281297027    0.1184739958005561    0.12891740600582596    0.1374016777416973    
  0.14071514625438522    0.13740170485564568    0.12891738762489535    0.11847395233238976    0.10922081836904503    
  0.10305783393601249    0.1001127109118811    0.0992758415226737    0.09920193572330842    0.08962578088937484    
  0.09021039874680212    0.0924340075111179    0.09743733176557241    0.1061024186069837    0.11791429641137134    
  0.13061343445825108    0.14071511118961283    0.14462452161029274    0.14071514553307274    0.1306133984018575    
  0.11791430674439714    0.10610242809649068    0.09743733050661284    0.0924340196645211    0.09021036385721316    
  0.08962578088937484    0.0992019633491735    0.09927583998487002    0.1001127090850212    0.10305783032251288    
  0.10922083796687439    0.11847399091226724    0.12891740862026288    0.13740171576669422    0.14071516856989327    
  0.1374016949187627    0.1289173816656722    0.11847396440133832    0.10922083576351009    0.10305783599164706    
  0.10011270082849531    0.09927586346608254    0.0992019633491735    0.1306134357311724    0.12891742001329556    
  0.12498333809260495    0.12113936856206985    0.11953290234574689    0.12113933709580951    0.12498337399979868    
  0.1289173910112651    0.1306134476767469    0.12891739920801282    0.124983317156588    0.12113936374965427    
  0.11953293249802821    0.12113937009445194    0.12498336059377355    0.12891740354117764    0.1306134357311724    
  0.19104627791738274    0.1857719368053448    0.1720660578455209    0.15471460219150807    0.13884885561384894    
  0.12757242199295454    0.12113933279585837    0.11847395439851871    0.11791428295642385    0.11847397601928292    
  0.12113934543871002    0.1275724136576497    0.1388488425828832    0.15471463111944453    0.17206603934618353    
  0.18577193869894262    0.19104627791738274    0.2810171482975503    0.2713106350620876    0.24386097437627763    
  0.20577965391274922    0.1682107766775039    0.13884886950261804    0.1195328894326258    0.10922077372297882    
  0.10610242357685006    0.10922081890694854    0.11953290450116778    0.1388488375548018    0.16821078791399907    
  0.2057796827344349    0.24386102194631146    0.2713105688334854    0.2810171482975503    0.36082429435654956    
  0.3537150678118809    0.32401903834444423    0.26854038317691625    0.20577967013273368    0.1547146744660802    
  0.12113931640506553    0.10305785166026792    0.09743733624649284    0.10305781828515011    0.12113933490790897    
  0.15471463241787445    0.2057796839652192    0.26854042781852766    0.32401902929058035    0.3537151086074695    
  0.36082429435654956    0.3538097436279739    0.36594392876438875    0.3705201812789297    0.324019131763891    
  0.2438610248973233    0.17206607271739088    0.12498333317268784    0.10011271172295791    0.09243401005973356    
  0.10011273385724315    0.12498330168860518    0.17206606400950217    0.24386098933511763    0.32401908068828045    
  0.3705201421559316    0.36594391873978555    0.3538097436279739    0.27684061222439826    0.3102247079296315    
  0.36594388825226043    0.3537149939270698    0.27131056821854094    0.18577198753616203    0.1289174038871962    
  0.09927583905466476    0.09021037024133398    0.09927584752356983    0.12891741011227761    0.18577193646081283    
  0.27131059761252    0.3537150722277099    0.3659439423518225    0.31022465566451374    0.27684061222439826    
  0.23668436260487863    0.2768406153821647    0.35380969163538534    0.36082428195227456    0.28101712917239746    
  0.19104630442750714    0.1306134345535419    0.09920192492002594    0.08962577611704074    0.0992019628800561    
  0.13061341252444472    0.1910463115170122    0.28101712303302934    0.360824287216242    0.35380972929542814    
  0.27684055901296356    0.23668436260487863    0.36264317169904636    0.36870379899071    0.3608242600388962    
  0.3076865303588994    0.22938680295443434    0.16186963749567834    0.11791427128658914    0.09461655954563027    
  0.08738242511185608    0.09461659468270109    0.1179142732813543    0.16186960573553624    0.22938678026874534    
  0.3076865986111272    0.3608242523724798    0.36870373625419445    0.36264317169904636    0.36870383520080785    
  0.3701166158510662    0.3537150606273039    0.2978035522003395    0.22293443146450964    0.15968936016682866    
  0.11847396318559174    0.09654689086781533    0.08973548191330911    0.09654686718624156    0.11847396767432286    
  0.15968931773042142    0.2229344266908087    0.2978035815180487    0.35371504556166145    0.3701166731483837    
  0.36870383520080785    0.36082431349397104    0.35371501254875237    0.32401910221700553    0.26854043701153435    
  0.20577965893778125    0.15471465376022597    0.12113934153350907    0.10305784505008629    0.09743728666935654    
  0.10305782557710579    0.12113933556246992    0.15471467176729742    0.2057796699338526    0.2685403976081471    
  0.3240190878980891    0.3537150732512438    0.36082431349397104    0.30768653359033377    0.2978035392183336    
  0.26854043663032245    0.22622752648149605    0.18357923146699653    0.14989728784375161    0.12757240888098945    
  0.11551706542841353    0.11182999192615413    0.1155170375576642    0.12757243778690758    0.14989722089637378    
  0.18357927802806928    0.22622754053953664    0.2685403765166687    0.29780352901945606    0.30768653359033377    
  0.22938682655510112    0.22293440531074316    0.2057796401765335    0.1835792796266937    0.16293253111704706    
  0.14787141207279333    0.13884884706153622    0.13475454238398746    0.13376616944753494    0.1347545873470148    
  0.13884881535754068    0.14787138617205242    0.16293254013381678    0.18357925662589872    0.2057796683291441    
  0.222934356891277    0.22938682655510112    0.1618696444845429    0.15968932272123296    0.15471462308233802    
  0.14989723210141104    0.14787139901667679    0.14989725294309122    0.15471462813214631    0.15968934070903743    
  0.1618696299116345    0.1596893530524333    0.15471465418491043    0.14989723721274428    0.14787142365819894    
  0.14989723836347618    0.1547146290270537    0.15968934004641175    0.1618696444845429    0.11791428741598577    
  0.11847399521343724    0.12113931498624506    0.12757240767096029    0.13884882082335584    0.1547146382204608    
  0.1720660738416126    0.18577198751551655    0.19104631594802216    0.18577201344800473    0.1720660267903307    
  0.15471464341461177    0.13884884644533946    0.12757243817402808    0.12113937147398464    0.11847396812045867    
  0.11791428741598577    0.09461657515588894    0.09654688247554484    0.10305782597920202    0.11551705450550932    
  0.13475458339636254    0.15968934703512916    0.18577196312919106    0.20589661254499755    0.21351159979620413    
  0.20589663838627018    0.18577196556026224    0.15968930757997657    0.134754582897602    0.1155170721507787    
  0.1030578133140076    0.09654687088624828    0.09461657515588894    0.08738242865845078    0.0897354816940089    
  0.09743731043447314    0.11182997727554926    0.13376615799804217    0.1618696469596618    0.1910462980815784    
  0.21351152780808266    0.22201661701275566    0.2135115622654289    0.19104630291197974    0.1618695910690606    
  0.13376617139072733    0.11182999700404635    0.09743730412532835    0.08973544746417626    0.08738242865845078    
  0.09461659436966725    0.09654686517246008    0.10305782647754476    0.11551705674976591    0.13475459187062092    
  0.15968936250477234    0.1857719757400045    0.205896678443086    0.2135115876263217    0.20589662905869674    
  0.18577198007853143    0.15968933304661398    0.1347545942792173    0.11551708747032427    0.10305781633365554    
  0.09654688833218579    0.09461659436966725    0.11791425621214055    0.118473978432117    0.12113934896589602    
  0.12757243778679417    0.1388488469531938    0.15471462480601195    0.1720660736906911    0.18577199756568544    
  0.19104633569120805    0.18577194485742743    0.17206608073017554    0.15471463817693046    0.13884884817159082    
  0.12757242423169382    0.12113934551082488    0.11847398571759908    0.11791425621214055    0.16186961831911392    
  0.15968930002908796    0.15471467418837948    0.14989723144435277    0.14787141061358966    0.14989727371194086    
  0.15471460038153065    0.1596893207957459    0.1618695967089524    0.15968933676456606    0.15471464077307934    
  0.14989724888622621    0.14787137570967634    0.14989728534301577    0.15471463810730396    0.15968933183991924    
  0.16186961831911392    0.2293867887679732    0.22293441951265106    0.20577963445192038    0.18357923054340158    
  0.16293254897435835    0.147871397171651    0.13884885950791845    0.134754521407804    0.13376618768466791    
  0.13475457781475292    0.13884882903848866    0.14787140291001866    0.16293253809612465    0.18357927093935403    
  0.20577967497821648    0.22293436143265422    0.2293867887679732    0.30768653961683756    0.29780358108158694    
  0.2685404401716155    0.2262275105964087    0.18357927251353212    0.149897241167503    0.127572400557611    
  0.11551707552214796    0.11183000409035088    0.11551704980522465    0.1275724015076055    0.14989722948438025    
  0.18357925560464428    0.22622753536378332    0.2685404047620458    0.2978035568586002    0.30768653961683756    
  0.36082429361889184    0.35371508464248225    0.3240190339579378    0.2685404179906846    0.20577965161559839    
  0.15471466004198847    0.12113937678761416    0.10305781818588969    0.09743731587292516    0.10305784492381252    
  0.12113930955340879    0.15471462927406432    0.20577963264952628    0.2685404167100407    0.3240190958930692    
  0.3537150280366903    0.36082429361889184    0.3687038283297541    0.3701166128003383    0.3537150319288938    
  0.2978034796642562    0.22293441295942817    0.1596893418921659    0.11847396365695353    0.09654686983880928    
  0.08973545704304513    0.09654688261656044    0.11847397094195047    0.15968931989970714    0.22293441610958956    
  0.2978035456763694    0.35371502708183244    0.3701165646691119    0.3687038283297541    0.36264317169904636    
  0.36870379899071    0.3608242600388962    0.3076865303588994    0.22938680295443434    0.16186963749567834    
  0.11791427128658914    0.09461655954563027    0.08738242511185608    0.09461659468270109    0.1179142732813543    
  0.16186960573553624    0.22938678026874534    0.3076865986111272    0.3608242523724798    0.36870373625419445    
  0.36264317169904636    0.3263720433316877    0.31524378109714385    0.2810170798296591    0.2293868152229321    
  0.17602758321024725    0.13376617554470138    0.10610240329426296    0.09116788737534552    0.08650852530683263    
  0.09116792021433892    0.10610241015563944    0.13376618127488205    0.17602755987700344    0.2293868172393808    
  0.28101712595458805    0.315243687973311    0.3263720433316877    0.31524380097640764    0.30424408763672217    
  0.27131053807227073    0.22293437448919043    0.1736496213507851    0.13475456960004256    0.10922082357116392    
  0.0954449647072753    0.09116793007979788    0.09544493321127462    0.10922078823599352    0.13475454402524872    
  0.17364964654201875    0.22293443792404566    0.27131057209358206    0.3042441108985237    0.31524380097640764    
  0.28101712592328365    0.2713105808133973    0.24386101398872034    0.20577966175255194    0.1682107983347551    
  0.13884886520839257    0.11953292015637124    0.10922079789610596    0.10610242965212749    0.10922081753183596    
  0.11953290289537694    0.1388488590499622    0.1682108128734993    0.20577964413803077    0.24386100269581232    
  0.27131056815171783    0.28101712592328365    0.22938682073589295    0.22293440758013916    0.20577964936175894    
  0.1835792336148095    0.16293252073927916    0.147871388547568    0.13884881954985942    0.1347545482842411    
  0.13376614610271095    0.1347545265223147    0.13884882372679194    0.14787135484992914    0.16293252909461664    
  0.18357925145349063    0.20577961259383748    0.22293439445462482    0.22938682073589295    0.1760275343365021    
  0.17364961210153848    0.16821075786889597    0.16293252030963148    0.16072217340348188    0.16293253964770443    
  0.1682107919552871    0.17364956717825722    0.17602755949822507    0.173649621332993    0.16821074459974683    
  0.1629325067561252    0.16072216653951799    0.1629325470055762    0.1682107823174865    0.17364958980882825    
  0.1760275343365021    0.1337661844563974    0.13475456776798259    0.13884883330004366    0.14787136786127117    
  0.16293254818047923    0.18357923842349788    0.2057796231405728    0.22293440274289208    0.22938683793827197    
  0.22293439656480757    0.2057796238215697    0.18357919647941903    0.1629325329664886    0.1478714165618058    
  0.13884881065586605    0.13475459826057087    0.1337661844563974    0.10610241925460613    0.10922082934890802    