#     DFTpy    
  CRYSTAL 
    
  PRIMVEC    
  6.534965517241378    0.0    0.0    
  0.0    6.534965517241378    0.0    
  0.0    0.0    3.600344827586206    
  PRIMCOORD    
  4    1    
  Si    0.0    0.0    0.0    
  Si    3.267482758620689    3.267482758620689    1.800172413793103    
  Si    0.0    3.267482758620689    0.9000862068965515    
  Si    3.267482758620689    0.0    2.7002586206896546    
  BEGIN_BLOCK_DATAGRID_3D    
  3d_datagrid_density    
  BEGIN_DATAGRID_3D#0    
  29    29    17    
  0.0    0.0    0.0    
  6.534965517241378    0.0    0.0    
  0.0    6.534965517241378    0.0    
  0.0    0.0    3.600344827586206    
  0.06058780611217652    0.10641664488783538    0.25741229807997734    0.3642811156406729    0.29387607268239463    
  0.18336124879423926    0.11471938988678207    0.08481652511136419    0.08096767985367662    0.09811002897906869    
  0.13605543067680803    0.19247652173247037    0.25359773320076384    0.2976934427201861    0.31284544062513014    
  0.2976935048487504    0.25359773466546254    0.19247648085027344    0.1360554093494588    0.09811002679314461    
  0.08096769629043855    0.08481651485927773    0.1147193851511179    0.1833612628339476    0.2938760684432251    
  0.36428108650248114    0.25741230512663926    0.1064166360598664    0.06058780611217652    0.10641665004963109    
  0.158297827360906    0.29685594520295383    0.3626446218983854    0.2785253727447484    0.17310144378031048    
  0.10918377172791023    0.0812977233177873    0.07768866254984709    0.09368871065684115    0.128990899904774    
  0.18154442247597485    0.2392043830148744    0.28204050459773294    0.2972286985021701    0.2820405221967366    
  0.23920439582768685    0.1815444546981932    0.128990896086719    0.09368870734296117    0.07768866752922697    
  0.08129772814344752    0.10918376026938517    0.17310144094625673    0.2785253906077902    0.36264460851027835    
  0.29685601189355326    0.1582978088604522    0.10641665004963109    0.25741231287676847    0.2968559579955132    
  0.359309009489968    0.3340415561145648    0.23496187382161313    0.14637065459143764    0.09476944274678481    
  0.07205992764521617    0.069098602815361    0.08218675010547559    0.11083179594007796    0.1533557992101738    
  0.2009092279886141    0.23806681535715685    0.25195414974225644    0.2380667855347976    0.20090924107530936    
  0.15335578605671843    0.11083180447266272    0.08218674151108651    0.0690985983622201    0.07205991779999017    
  0.09476943389648135    0.14637064862506768    0.2349618678991506    0.33404158748503354    0.3593090291364023    
  0.2968560344391238    0.25741231287676847    0.3642811596494478    0.36264466571760084    0.3340416067445314    
  0.2609547894263091    0.17623461729028306    0.11297198577289838    0.07656249768903339    0.0602490410008197    
  0.05814062649462448    0.06765443147243362    0.08816399011664962    0.11814352113704497    0.15171469420946243    
  0.17863877086715088    0.18898472390698343    0.17863879341127134    0.1517146654863829    0.11814352008668404    
  0.08816398115846302    0.06765443319482731    0.05814063018454421    0.06024903888266417    0.07656248606226121    
  0.11297199128778604    0.1762346266144312    0.2609547910975123    0.33404159570359776    0.3626445719842259    
  0.3642811596494478    0.29387609690451516    0.2785253916561893    0.23496188424458775    0.17623462536077317    
  0.12166753679037437    0.0825426444241932    0.05954758131407254    0.04901014007057501    0.04767630650834143    
  0.053926115345905606    0.0671135389584901    0.08586114692684542    0.10652247541545279    0.12304146932565053    
  0.12936914380234776    0.12304141293142534    0.10652248462818845    0.08586114612044633    0.06711352664709298    
  0.05392611520136182    0.047676313557259    0.04901013991586241    0.05954759247241564    0.08254264894772738    
  0.1216675358742901    0.17623462680153595    0.23496190187482968    0.2785253696669989    0.29387609690451516    
  0.18336130159385833    0.1731014481766903    0.14637065699459462    0.11297197115702554    0.08254265129193272    
  0.060210211569473183    0.04658761997930869    0.04016374969119783    0.03933140392883395    0.043149515493910426    
  0.051039909283537424    0.061894437328107094    0.07355001642851579    0.08269110274222793    0.08613230768163996    
  0.0826910964060179    0.07355001749880245    0.06189442375783156    0.0510399001173202    0.043149517035727086    
  0.03933139802230759    0.0401637465955099    0.04658760699990907    0.06021021280404572    0.08254264096885555    
  0.11297198318185842    0.1463706556708558    0.1731014578884137    0.18336130159385833    0.11471938598380685    
  0.10918376330102623    0.09476944253152056    0.07656248801416957    0.05954758856218122    0.04658761982488736    
  0.038323046637738556    0.03425468743735353    0.0336509940197002    0.03592562440593917    0.04054317846300967    
  0.046697518614143035    0.05310364838515359    0.05801051677884406    0.05984236615103032    0.05801052036559165    
  0.05310365683852452    0.046697518881783834    0.04054318383060587    0.035925615573953774    0.03365099711267033    
  0.03425468322236053    0.03832304151701859    0.04658761790083056    0.05954757557894768    0.0765624952960938    
  0.09476944086645069    0.10918377521326862    0.11471938598380685    0.08481650540791545    0.0812977221447716    
  0.0720599178114588    0.060249034788240174    0.04901012451402685    0.040163740675709804    0.034254678261676295    
  0.03116930140212641    0.03055301575587426    0.031927395568639286    0.034789500617682136    0.03855348944138017    
  0.04235498422601856    0.045205705997494634    0.04627583462869799    0.04520570695544181    0.042354973926484074    
  0.038553486187330274    0.03478949432441192    0.03192740088403711    0.030553022995330102    0.031169296017374913    
  0.03425468264819712    0.040163735944714465    0.04901013619162269    0.060249019793089935    0.07205991683085237    
  0.08129771950664101    0.08481650540791545    0.08096769297316014    0.07768865868253433    0.0690986064902876    
  0.058140624552578464    0.04767631673278122    0.03933141067455399    0.03365099239626878    0.03055302427964811    
  0.02966345163740612    0.03052077510847032    0.032648454196609486    0.03550548225236893    0.038360077253492574    
  0.04048023983718833    0.04127883327886675    0.04048024337212019    0.03836007532461857    0.03550548422520005    
  0.0326484618600744    0.030520767779431853    0.029663461353619486    0.030553024053685148    0.03365099164600463    
  0.03933140388665471    0.04767631020845112    0.05814062043341474    0.06909860438861062    0.07768864815740693    
  0.08096769297316014    0.09811004328423664    0.09368870624843247    0.08218676025514243    0.0676544253203762    
  0.05392611968660042    0.0431495199371501    0.035925619388684896    0.03192740510252001    0.030520766634079016    
  0.031135141272117275    0.033212116731250414    0.03609206274326843    0.039021992140299326    0.041215069765440426    
  0.042027487869043804    0.04121507268804076    0.03902199103793588    0.036092052919736474    0.03321211584488111    
  0.03113514620039302    0.030520766889441026    0.0319274073688939    0.035925623428558054    0.043149514934699526    
  0.053926109898986566    0.06765443412469875    0.08218675505358572    0.09368871754476661    0.09811004328423664    
  0.13605543637604145    0.1289909008069618    0.11083179797518301    0.08816396790578973    0.06711352478576492    
  0.0510398995346555    0.04054318868744104    0.034789501376914105    0.032648461953368305    0.03321211734325385    
  0.035718061045291516    0.03930944206627986    0.043046808607617636    0.045867649698268904    0.046898599333486134    
  0.04586762300219507    0.043046807257898195    0.03930945461443337    0.03571806129230785    0.03321212017475389    
  0.03264845986648489    0.034789498169589046    0.04054318140624695    0.05103990421989537    0.06711353130023605    
  0.08816396378480254    0.11083181169533055    0.12899087468778964    0.13605543637604145    0.1924765060918621    
  0.1815444526234061    0.15335580695240167    0.11814352818309144    0.08586114855170043    0.06189443817576642    
  0.04669751902203369    0.03855350000328351    0.03550548280943733    0.03609205633468623    0.03930945715939109    
  0.04409799138214724    0.049171061559459044    0.05304562319868148    0.054478646612945734    0.05304562017782907    
  0.0491710494350413    0.04409799747086364    0.03930945000039949    0.03609205363087143    0.03550548607056009    
  0.03855350348594219    0.046697521454088405    0.06189443842315741    0.08586115580119606    0.11814352227171099    
  0.15335581466523782    0.18154443429147235    0.1924765060918621    0.25359777922604554    0.23920436370044437    
  0.2009092947610474    0.1517146560837941    0.10652250545210318    0.07355002083352224    0.05310365809058838    
  0.04235498698415709    0.03836007250376269    0.039021992554339906    0.043046791065362376    0.04917104393158098    
  0.05575112956178988    0.0608609419728529    0.0627878143927223    0.06086092777668904    0.055751130940666145    
  0.049171034157359135    0.04304680827597836    0.0390219952090177    0.03836007478740669    0.0423549869999559    
  0.0531036503923921    0.07355002406080909    0.10652248158331408    0.15171465712513243    0.20090925702614904    
  0.23920440642876742    0.25359777922604554    0.2976934895711975    0.2820404949344954    0.2380667727869636    
  0.1786387836976599    0.12304144973152253    0.08269111389030807    0.058010509838649374    0.04520571364169392    
  0.040480237867479334    0.041215074522214006    0.045867630525694446    0.0530456111386687    0.06086095615696498    
  0.06697094203527304    0.06928469135526123    0.06697095313866343    0.06086093500954868    0.0530456266982386    
  0.04586762753615028    0.04121506562507788    0.040480237676083    0.04520572193833631    0.05801051389498584    
  0.08269111371663955    0.12304143734418385    0.1786388101887564    0.23806681451795353    0.2820405068466889    
  0.2976934895711975    0.3128454537754868    0.29722866115508295    0.251954180436137    0.18898471326826255    
  0.1293691178308406    0.08613228362654235    0.05984235988749513    0.04627584394405981    0.041278812630832586    
  0.042027481255309036    0.04689857679671713    0.054478651104251916    0.06278780697775341    0.06928466444600352    
  0.07173394449126344    0.0692846815348397    0.06278780618988151    0.05447864260689566    0.046898586580421224    
  0.042027485351176105    0.04127882831234547    0.04627583348671288    0.0598423589126524    0.08613228605759951    
  0.12936912847297274    0.18898469164536844    0.25195415113516595    0.29722863188457677    0.3128454537754868    
  0.29769349571897274    0.2820405060950505    0.23806678672348477    0.17863880633294918    0.12304146040238137    
  0.0826911175762579    0.058010512261789236    0.045205714739687326    0.04048024461786508    0.04121507337975263    
  0.04586763401005054    0.053045619298065    0.060860938874153635    0.06697095525159315    0.06928467923176812    
  0.06697095167549016    0.06086093619727066    0.05304560942674259    0.04586762165676965    0.04121507379111288    
  0.04048024449062429    0.04520571969236263    0.05801051398306369    0.08269110660653685    0.1230414480570657    
  0.17863879501747973    0.23806678665938066    0.282040499796067    0.29769349571897274    0.25359774835466087    
  0.23920438689972678    0.2009092731406623    0.15171461434237649    0.10652247688498206    0.07355001201761091    
  0.0531036585772557    0.04235498807329233    0.038360074606878396    0.039021996484741216    0.04304680937581653    
  0.0491710485243852    0.05575112034516622    0.06086094010700658    0.06278781666469993    0.06086093736305418    
  0.055751127015962784    0.0491710277702475    0.043046818204655814    0.03902198911780216    0.03836007509688199    
  0.04235498992841131    0.05310364537340918    0.07355001335935532    0.10652248685899258    0.15171465322604968    
  0.20090928934366603    0.23920437659940536    0.25359774835466087    0.19247650440566375    0.18154447894542936    
  0.15335578928452176    0.1181435203951416    0.08586115351981806    0.06189444406261468    0.04669752340047496    
  0.03855349408682159    0.03550548363215022    0.03609204997368893    0.039309459844126995    0.04409799727380439    
  0.049171043037126064    0.05304562862550151    0.05447866261906986    0.053045623484199896    0.049171057922124756    
  0.04409800779279538    0.03930944873050408    0.036092063979004635    0.03550548730857231    0.03855348931587528    
  0.04669750987245673    0.061894440654050906    0.08586114377917983    0.11814350724433885    0.15335580200410975    
  0.18154443406412105    0.19247650440566375    0.1360554469816156    0.1289908883751594    0.11083179816724498    
  0.08816396849028837    0.06711353492476882    0.051039903908780104    0.04054318839593529    0.034789501751156124    
  0.0326484599326738    0.033212116112024535    0.035718062847596786    0.03930944055560911    0.043046819874765475    
  0.04586763482986785    0.046898586681392365    0.04586762481471788    0.04304680361876668    0.03930945082420476    
  0.035718058940297476    0.033212118900624824    0.032648466990802656    0.034789498293434855    0.04054319921549481    
  0.0510399017619209    0.06711352983857105    0.08816396817743075    0.11083180318778837    0.12899088192373645    
  0.1360554469816156    0.09811004188791626    0.09368871603515165    0.08218675196526302    0.06765443158563353    
  0.05392610522453994    0.04314952590457393    0.035925624094337    0.03192740890525308    0.030520765090642984    
  0.031135141051664022    0.033212119485997484    0.03609205583420754    0.03902199255304916    0.04121506869179122    
  0.04202749197135683    0.04121507063268562    0.039021991108236134    0.03609205212059911    0.03321212282567542    
  0.031135149353969733    0.030520759630003596    0.03192741028042314    0.0359256132705624    0.043149530821255305    
  0.05392610201633534    0.06765444319305888    0.08218673829339211    0.09368871599979542    0.09811004188791626    
  0.08096769571042452    0.07768864613956082    0.06909860571926067    0.05814061664956308    0.047676315233618934    
  0.03933140940557948    0.03365099150330743    0.030553025820527442    0.029663456119431237    0.030520766559456503    
  0.03264845775301248    0.035505483976981285    0.038360075064453825    0.04048024420889292    0.04127882458041396    
  0.040480239854544006    0.03836008468745845    0.035505484280436386    0.03264846566009591    0.030520759014086248    
  0.029663463337590994    0.030553017606338006    0.03365099319778104    0.039331395222681614    0.047676315053584786    
  0.058140619907215106    0.06909861285992872    0.07768865138176011    0.08096769571042452    0.08481650375611513    
  0.08129772979986823    0.0720599115683377    0.060249045167719804    0.04901012601837321    0.040163738574903254    
  0.03425467576708652    0.03116930503121535    0.030553006937943814    0.03192739673398985    0.03478949781657062    
  0.03855349440371753    0.042354978871039645    0.04520570695780486    0.046275832200082495    0.04520571522843429    
  0.04235497080352454    0.03855348874153052    0.03478949009689504    0.03192740423934959    0.030553013604630294    
  0.031169304609973532    0.034254674841976925    0.04016375103374545    0.049010126596683294    0.060249032313659086    
  0.0720599057527832    0.08129772946460084    0.08481650375611513    0.114719399237797    0.10918376224458178    
  0.09476944669517014    0.0765624741982364    0.0595475989823219    0.046587607246061695    0.038323050666456755    
  0.03425468337323247    0.033650990624321885    0.035925622296351815    0.040543189198168086    0.0466975063873809    
  0.053103655506911075    0.05801052213903315    0.059842376385290115    0.05801051299909254    0.053103658818726196    
  0.046697513554034856    0.04054319171018148    0.035925612993576765    0.03365100623954844    0.03425467914017319    
  0.03832305064753889    0.04658760951674316    0.05954759258195526    0.07656248273763042    0.09476945538479628    
  0.10918376224099197    0.114719399237797    0.18336128388209785    0.1731014450547518    0.14637065778455943    
  0.11297199762852399    0.08254264602231341    0.060210204143839145    0.04658761330453337    0.040163750821011805    
  0.03933140102639873    0.04314951204503322    0.051039899878493146    0.0618944531059922    0.07355000958521066    
  0.08269111957923622    0.08613229104139808    0.08269110981224505    0.07355000796966585    0.06189443639889743    
  0.05103990217219872    0.043149520542500146    0.03933140409785894    0.040163752381797764    0.046587613936771785    
  0.06021021355460687    0.08254262706929764    0.11297199241113691    0.1463706368221373    0.17310146442694674    
  0.18336128388209785    0.29387610974760475    0.2785254119240583    0.23496189566767767    0.176234590648318    
  0.12166754228569156    0.0825426453284479    0.059547603409130144    0.04901013991990694    0.04767631689179996    
  0.05392610858956786    0.06711353374188106    0.08586113850357498    0.10652250192352589    0.12304144678162848    
  0.12936916722370484    0.1230414344372331    0.10652249247571409    0.08586115296809947    0.06711354663690347    
  0.05392610078930527    0.04767632330335326    0.049010129600613454    0.0595475939025222    0.08254263654763398    
  0.1216675524155321    0.17623460506921546    0.23496190379734422    0.2785253739700158    0.29387610974760475    
  0.3642811245914481    0.36264464025778653    0.3340415718964424    0.2609548283479126    0.17623462079045135    
  0.11297199067263931    0.07656248938421864    0.060249041587627755    0.05814062021543237    0.06765444211627815    
  0.08816397690223002    0.11814351248441954    0.15171467122744112    0.1786387767379495    0.18898471016372784    
  0.17863878943567993    0.15171464827641123    0.11814351327605944    0.08816396008503867    0.06765443524079646    
  0.0581406224366623    0.060249043552994826    0.07656249626762553    0.11297199631663997    0.17623461761385975    
  0.26095481656498115    0.33404157956047165    0.36264462925364954    0.3642811245914481    0.2574123304138104    
  0.2968559706925125    0.3593090044382354    0.33404154127871716    0.23496187896008583    0.14637064369443153    
  0.09476945290012698    0.07205991331505227    0.06909859804409794    0.08218674898983432    0.11083178755462146    
  0.15335580790210887    0.20090925014526437    0.23806680611267964    0.2519541896228784    0.23806677209268384    
  0.200909273813642    0.15335577534697195    0.11083181694623274    0.08218674084744511    0.06909860967599779    
  0.07205991065487541    0.09476944681832186    0.14637064506031972    0.23496189162555042    0.33404158040517734    
  0.35930901157577455    0.29685595677552623    0.2574123304138104    0.10641665453769433    0.15829780948762287    
  0.29685596472373027    0.362644606947725    0.27852537611839906    0.17310144363282395    0.1091837782667953    
  0.08129773430691255    0.07768864566155309    0.09368871023371034    0.12899089646622808    0.1815444614785449    
  0.23920436393354796    0.2820405127931337    0.2972286963522945    0.2820404988452764    0.23920436199667394    
  0.18154445612015419    0.12899088346800736    0.0936887055056867    0.0776886635847574    0.08129773147522311    
  0.10918376438006012    0.17310145705911129    0.2785253418242707    0.36264464148082165    0.2968559933964741    
  0.1582978331912921    0.10641665453769433    0.06058780611217652    0.10641664488783538    0.25741229807997734    
  0.3642811156406729    0.29387607268239463    0.18336124879423926    0.11471938988678207    0.08481652511136419    
  0.08096767985367662    0.09811002897906869    0.13605543067680803    0.19247652173247037    0.25359773320076384    
  0.2976934427201861    0.31284544062513014    0.2976935048487504    0.25359773466546254    0.19247648085027344    
  0.1360554093494588    0.09811002679314461    0.08096769629043855    0.08481651485927773    0.1147193851511179    
  0.1833612628339476    0.2938760684432251    0.36428108650248114    0.25741230512663926    0.1064166360598664    
  0.06058780611217652    0.10320013546564266    0.15490213164898664    0.2944385682313603    0.3622088509515205    
  0.27811317358902077    0.17119483972753788    0.1053952818941847    0.07485015257181399    0.0665144753474848    
  0.07373454179549264    0.09396627785585797    0.125026206371463    0.16044793317485317    0.1889264458971789    
  0.19984142981018263    0.18892647243978059    0.16044789499161627    0.12502622458549836    0.09396626350793659    
  0.0737345524918676    0.06651448392743502    0.07485014162397716    0.10539528945406684    0.17119483333200836    
  0.2781131290789937    0.36220879778871184    0.2944385518943306    0.15490212207350343    0.10320013546564266    
  0.15495862139291952    0.20716495281298244    0.3252562733395811    0.3562558056814687    0.2632715880764387    
  0.16188270498170435    0.10056028539784831    0.07200111196354156    0.06417261163972378    0.07094446687190861    
  0.08988711935617204    0.1188561001666555    0.15181899493392514    0.1783905372869935    0.188625955087468    
  0.17839051481179352    0.15181900674427035    0.11885610949589784    0.0898871252575878    0.07094446779164362    
  0.06417261813947497    0.07200111766624818    0.10056029048570289    0.1618827147258822    0.26327159652162374    
  0.35625580473419705    0.3252562894964378    0.2071649138181645    0.15495862139291952    0.2952668671986911    
  0.32603069445094535    0.3641356737237107    0.3210598047494439    0.22181927672524646    0.13746259524593168    
  0.08786083889853548    0.06450509226153826    0.058049130904827724    0.06365595516027453    0.07925960139365025    
  0.10288094794109216    0.12952978384700833    0.15100715182653765    0.1593123607044404    0.1510071384471554    
  0.12952979844557508    0.10288093042230152    0.07925960396538018    0.06365595740002224    0.058049125270477904    
  0.06450508725965738    0.08786084242662788    0.13746258592176142    0.22181925708722358    0.32105985577923035    
  0.364135731083265    0.3260307517861782    0.2952668671986911    0.36470679621984525    0.35850813743569016    
  0.3223670903588231    0.24798681145006968    0.16690342781829384    0.10689339192386532    0.07173221708060303    
  0.05484073837164978    0.050145721649800405    0.05430478963445548    0.06574279621290981    0.08275728470419316    
  0.10165767246334434    0.11674243973543036    0.12253310381609916    0.1167424197351437    0.10165765027844731    
  0.08275730531888106    0.06574279810018518    0.05430478420581198    0.05014573337974136    0.054840735644730465    
  0.07173220294441182    0.1068933921753263    0.16690341463663433    0.24798683281910586    0.322367070938253    
  0.35850806635059007    0.36470679621984525    0.28240964120976875    0.2670812306170292    0.22449861588586792    
  0.16822904308888043    0.11640684950175863    0.07907385989627132    0.05662477730726044    0.04553835623965344    
  0.042444121499875954    0.04527587352424357    0.05289698259502649    0.06393760439397582    0.07595840935117629    
  0.08541984865065047    0.08899924082511264    0.08541981673771638    0.07595840204533923    0.0639376172457612    
  0.052896970647490126    0.04527587862505714    0.04244412331693709    0.045538353295889115    0.05662477982163602    
  0.0790738542731515    0.11640684664989509    0.16822903448761964    0.224498650200856    0.26708119891900073    
  0.28240964120976875    0.17798920909369342    0.1680120374581101    0.14214227236519425    0.10988486984213454    
  0.08045303869474212    0.05870339420462014    0.045120617620747545    0.038197036485249435    0.03623339485282955    
  0.03805383382132273    0.0428442205340228    0.049564644062479686    0.05670393147834388    0.0622361815567719    
  0.06430873766898905    0.06223618547207106    0.05670393172065467    0.04956462896071047    0.04284422101962541    
  0.038053842121853663    0.03623338915892828    0.03819703801135714    0.04512060679142645    0.058703391404813454    
  0.08045303407134238    0.1098848876527273    0.14214227618351485    0.16801206987711095    0.17798920909369342    
  0.11585814626763605    0.11017972810245247    0.09551123400864854    0.07705657922452945    0.05977779323110409    
  0.04654442896523501    0.03794981384310119    0.03339833380957184    0.032058933911560776    0.03320916926353838    
  0.03622036541369563    0.040338055168679256    0.04458536441875836    0.047816790901019667    0.04902659544646713    
  0.047816785213486826    0.04458537387210439    0.04033805880470902    0.036220369872205074    0.03320915955197472    
  0.03205893587610576    0.033398334230087694    0.03794980832433376    0.0465444239729906    0.05977779584503001    
  0.07705659078476766    0.09551124409919116    0.1101797352664932    0.11585814626763605    0.09184576651035754    
  0.0878003125625783    0.07730157512340204    0.06400164039139486    0.05138859343524324    0.041488490473257915    
  0.03483951239753276    0.031182397504012967    0.030009119708524032    0.030747421854253717    0.03283467468160181    
  0.03569183939757367    0.03857523689767171    0.0407274377127491    0.04153466124377059    0.04072744394867558    
  0.03857522769698993    0.035691834751498556    0.032834671259799914    0.030747427473196205    0.030009121758199923    
  0.03118239649438091    0.034839520672985916    0.04148848933777457    0.05138859212715381    0.0640016325680677    
  0.0773015750029804    0.08780031030234116    0.09184576651035754    0.09613941085538792    0.09182366174517269    
  0.08058556231007465    0.0663722241390938    0.052957787497109395    0.04242759412449918    0.03533826503325452    
  0.031380722299586744    0.029950123014458124    0.03042564340629064    0.03223024804655082    0.03477369229747598    
  0.037357603903786334    0.03928117512276073    0.039995679025154225    0.039281174335393874    0.03735759946608968    
  0.03477368871455883    0.032230247459011284    0.03042563944323284    0.029950133709371857    0.03138072316674135    
  0.035338270520764756    0.04242758588483775    0.05295778216092953    0.06637221731919692    0.08058557114736693    
  0.09182365818078064    0.09613941085538792    0.1277897414951983    0.12131078885425561    0.10448826788247066    
  0.08342891934413683    0.06391850341407698    0.04897908415413017    0.03915661926319269    0.03371837339248796    
  0.03160328051653258    0.03192632227024688    0.03394913447496202    0.03691189794791836    0.04000896524724821    
  0.042342561241953014    0.04319789938005349    0.04234255971350383    0.040008963459298164    0.036911896167347205    
  0.03394913158116205    0.03192632203139455    0.03160328230220858    0.033718373968481534    0.039156621305519924    
  0.04897908891494324    0.06391849310128846    0.08342892837643541    0.10448825099961886    0.12131079593459318    
  0.1277897414951983    0.19028266476849953    0.17947946565238743    0.15144551121128977    0.11649937868462534    
  0.0846578872336921    0.06101660836613259    0.045968127896338994    0.037821379080052446    0.0346081549585009    
  0.034844996175713294    0.03749454191582632    0.04154901659446967    0.045885342408756545    0.049190699944318454    
  0.0504002958499458    0.049190699966329306    0.04588533502151402    0.0415490348674992    0.037494545236434806    
  0.03484499229319888    0.03460815158188768    0.03782138408867331    0.04596812473751713    0.06101660593710436    
  0.08465788939595859    0.11649938448557483    0.15144550523070158    0.17947943379598463    0.19028266476849953    
  0.27588030770464306    0.2605913310224258    0.21891521015439355    0.16437573013019133    0.1140509224801264    
  0.07745641503570934    0.054924102659272396    0.043071436533441726    0.03843026978209126    0.03860697320259057    
  0.04216492728633966    0.04781649178270342    0.05395735764078754    0.05870304985753667    0.060474487752177696    
  0.05870303670775574    0.05395735792345517    0.04781649465259524    0.04216492335356105    0.03860696430544652    
  0.038430270794691385    0.043071443064926856    0.05492411122669408    0.07745642236159857    0.11405092097976001    
  0.16437576434887086    0.21891520807747872    0.26059131399944624    0.27588030770464306    0.3464830189978912    
  0.33301342593494526    0.2877643098494457    0.21699181927636144    0.1466947084535328    0.09530479184066633    
  0.06432982938457654    0.04839121694400566    0.042216922597375    0.042384742320688444    0.046962276946916445    
  0.05436254667358327    0.06249935267848914    0.06888894190758656    0.07132575012615339    0.06888893594183867    
  0.06249935483239999    0.054362520641910904    0.04696227266094743    0.042384740926011945    0.04221692414564828    
  0.04839121552442985    0.06432981927322205    0.09530479412210703    0.14669471501322046    0.21699184081250547    
  0.2877642971494587    0.33301343640926695    0.3464830189978912    0.3679808776201074    0.3639893610168709    
  0.3315216603323396    0.2570624863992463    0.17275531282678736    0.10942718455316824    0.07161930439097271    
  0.05244345667992757    0.04506753948712733    0.04522472683790386    0.05058340387752179    0.059354969038275605    
  0.0691161891015393    0.07683317138864079    0.07978835499252362    0.07683316858735831    0.06911618416115253    
  0.05935496842390882    0.0505834043078565    0.0452247185098477    0.045067543908048985    0.05244346250773345    
  0.07161930155451807    0.10942720083088636    0.17275529645222765    0.25706251745739844    0.3315217060798183    