#     DFTpy    
  CRYSTAL 
    
  PRIMVEC    
  1.780161843232758    -3.0833307581745997    0.0    
  1.780161843232758    3.0833307581745997    0.0    
  0.0    0.0    3.350840102275861    
  PRIMCOORD    
  1    1    
  Si    0.0    0.0    0.0    
  BEGIN_BLOCK_DATAGRID_3D    
  3d_datagrid_density    
  BEGIN_DATAGRID_3D#0    
  17    17    15    
  0.0    0.0    0.0    
  1.780161843232758    -3.0833307581745997    0.0    
  1.780161843232758    3.0833307581745997    0.0    
  0.0    0.0    3.350840102275861    
  0.06026459245170112    0.10151246053767343    0.24093164858828503    0.3621190719221545    0.3163489808290325    
  0.20669057229717497    0.1283879403293097    0.08915441830810682    0.07759772318881297    0.08915442478252023    
  0.12838794018405844    0.20669057876146882    0.3163490134856685    0.36211906871249766    0.2409316545868773    
  0.10151246461431666    0.06026459245170112    0.10151246189253248    0.10152561126490028    0.19602419280707573    
  0.33607410571813345    0.35098799489387533    0.25109023464776326    0.15638191302150364    0.10167752994330913    
  0.07853667296579311    0.07853604734852965    0.1016785692482245    0.1563806207855301    0.2510943884003968    
  0.35099158586531276    0.3360358058814011    0.19605855543682854    0.10151246189253248    0.24093168077456534    
  0.19602419122831843    0.2409410089052573    0.3360633149495887    0.3590807007384116    0.27635696071479193    
  0.1781485883616341    0.11329885602623536    0.08078047313440152    0.07111039981463789    0.08078104183074537    
  0.11329674741556169    0.17815123244843165    0.27634079309127924    0.3591304433037661    0.33603582223714273    
  0.24093168077456534    0.3621190879793323    0.3360741067396996    0.33606333517173637    0.36211556723454    
  0.35097211269563294    0.2763782408099649    0.18642446713858066    0.1204621094295729    0.08300497378437204    
  0.06681736798547204    0.06681216351810146    0.08301123790107871    0.1204559415834749    0.1864399241934384    
  0.2763408222276805    0.3509915703939682    0.3621190879793323    0.31634897989114175    0.35098798534395154    
  0.35908068608985827    0.3509721030674415    0.31636160073992714    0.25110464710190683    0.17812882948089453    
  0.12046205371250136    0.08393637448164037    0.06494693586906454    0.059164243383552154    0.06494633883053018    
  0.08393626884668144    0.12045594000160198    0.1781512387066404    0.25109439324493377    0.31634897989114175    
  0.20669057311652947    0.2510902345188701    0.27635695354341955    0.27637824079670953    0.2511046517642391    
  0.206671821361879    0.1563767568501001    0.11331249010473632    0.0830073043110106    0.06494589185777043    
  0.05677660643196156    0.056777045324763936    0.06494633399513673    0.0830112278189776    0.11329674734529932    
  0.15638059952805292    0.20669057311652947    0.12838794250186558    0.15638191714105787    0.1781485879321743    
  0.18642446313916916    0.17812883428815454    0.15637675390174055    0.12840278162146923    0.10168069553054275    
  0.08076808701233591    0.06681508387811991    0.0591649397620404    0.05677660539138205    0.05916424339965528    
  0.06681216289547809    0.08078103977248367    0.10167857735346711    0.12838794250186558    0.08915442585492903    
  0.10167753573234328    0.11329886092923187    0.12046211805309613    0.12046204631446797    0.11331248859429549    
  0.10168069736029763    0.08914095114328528    0.07853561345890549    0.07112218182960821    0.06681508475312678    
  0.06494589532731589    0.06494693455735545    0.06681736455067662    0.07111039954855833    0.07853604757274596    
  0.08915442585492903    0.07759772500537955    0.07853667563747736    0.08078047864315686    0.08300497947431787    
  0.08393637933702872    0.08300730008225816    0.08076808376316368    0.07853560850908715    0.07761050139720849    
  0.07853561855162666    0.08076809072067685    0.08300730805221729    0.08393637572934236    0.08300497294990375    
  0.08078047030489795    0.07853667375543226    0.07759772500537955    0.08915442921406536    0.07853605381108923    
  0.0711104016879757    0.06681737055397442    0.06494693455956131    0.06494589591733617    0.06681507806319749    
  0.07112217471489422    0.07853561267245032    0.08914095759867809    0.1016807133282384    0.11331250040261664    
  0.12046205859181855    0.12046211555790756    0.1132988699346502    0.10167754526680885    0.08915442921406536    
  0.12838794619711547    0.1016785745312741    0.08078104266750785    0.06681216397285998    0.05916424284157491    
  0.056776603622294856    0.05916493301452063    0.06681507564472139    0.0807680874870023    0.10168070741321626    
  0.12840278415508571    0.15637675352794886    0.17812883967732393    0.18642447064005324    0.1781485818688517    
  0.15638192599621492    0.12838794619711547    0.20669057455556375    0.15638061200990735    0.11329674952932423    
  0.08301123305360965    0.06494634175385156    0.05677704091128263    0.05677660315808183    0.06494589565673402    
  0.08300730600428506    0.11331249686363874    0.1563767670845655    0.2066718290865284    0.251104651746766    
  0.2763782293177965    0.2763569566528184    0.2510902298813319    0.20669057455556375    0.3163489818506301    
  0.2510943985853768    0.17815122917664927    0.12045594714050582    0.08393626323805221    0.0649463382185409    
  0.05916424242898023    0.06494693719603199    0.08393637715635252    0.120462057436577    0.1781288399033084    
  0.251104638776115    0.3163615969053248    0.35097210472783774    0.35908067572653923    0.35098799871431613    
  0.3163489818506301    0.36211905727056637    0.35099157303750883    0.2763407881643577    0.18643992878825752    
  0.12045594351568949    0.08301123360983717    0.06681216340195828    0.06681736617329688    0.08300497471191967    
  0.12046211807528048    0.18642447306613502    0.2763782298205442    0.35097210166962245    0.3621155536352055    
  0.33606331845227455    0.33607408395316524    0.36211905727056637    0.2409316487694267    0.3360357946638145    
  0.3591304193621079    0.27634078537253165    0.17815124118250578    0.11329675260091807    0.08078105340417226    
  0.07111039680083991    0.0807804783871777    0.11329887354495896    0.1781485922968414    0.2763569646555144    
  0.3590806799562053    0.3360633022364502    0.24094099357201829    0.19602419235241172    0.2409316487694267    
  0.10151245444053611    0.19605853599192546    0.33603576587946643    0.3509915856036465    0.2510943904906959    
  0.1563806073354538    0.1016785713728451    0.07853605005412176    0.07853667132503449    0.10167754069539878    
  0.1563819196701263    0.25109022421764143    0.3509880048579936    0.33607411292343853    0.19602418150691903    
  0.10152560800472779    0.10151245444053611    0.06026459245170112    0.10151246053767343    0.24093164858828503    
  0.3621190719221545    0.3163489808290325    0.20669057229717497    0.1283879403293097    0.08915441830810682    
  0.07759772318881297    0.08915442478252023    0.12838794018405844    0.20669057876146882    0.3163490134856685    
  0.36211906871249766    0.2409316545868773    0.10151246461431666    0.06026459245170112    0.10836019007243602    
  0.15560663109265213    0.2854070784243451    0.3654830375300455    0.30064727611212894    0.19471927609208348    
  0.1218323867727329    0.08532142064395604    0.07452018641390364    0.08532142494809489    0.12183238943668066    
  0.19471927431151076    0.3006473011106395    0.3654830335439846    0.2854070871453333    0.1556066334834105    
  0.10836019007243602    0.1556066344009903    0.15559515993312373    0.2472626137033807    0.35414363355247874    
  0.3384845177241685    0.23656685855933438    0.1478150606262927    0.09698304191107518    0.07539422449484254    
  0.07539130411548596    0.09698655742333766    0.1478105992414049    0.2365740261031589    0.3384827392457955    
  0.35411768485213496    0.24728007318157452    0.1556066344009903    0.2854070925745415    0.24726260081728016    
  0.2854413108948261    0.35412155680703716    0.34894706831622607    0.26077020269450923    0.16802989398555845    
  0.10779740923870425    0.07749440095084743    0.06845351391143316    0.07749460779296483    0.10779654501233862    
  0.16803088561885923    0.260760306823546    0.3489802145951404    0.35411768966076346    0.2854070925745415    
  0.3654830414533522    0.3541436374621565    0.3541215654644924    0.3654688120565791    0.3384763493339127    
  0.26078830617251475    0.17573648852069715    0.11448535019361995    0.07961143497157125    0.0644650031331094    
  0.0644607082581721    0.0796163864116639    0.11448017564839247    0.1757482974374679    0.2607603131641207    
  0.3384827278160416    0.3654830414533522    0.30064728593172174    0.3384845210459097    0.3489470534301465    
  0.3384763566829091    0.3006668421238224    0.2365751780234792    0.16801453270939715    0.11448450409827804    
  0.08050697068069412    0.06274293091251326    0.05731928419893873    0.0627425938635202    0.08050699759624884    
  0.11448017461331382    0.16803088222787305    0.23657402210124348    0.30064728593172174    0.1947192764372381    
  0.23656685445886713    0.2607701925894751    0.26078831681451936    0.2365751782047131    0.1946990909933774    
  0.14781108300752865    0.10780890711110579    0.07961296352690504    0.06274300460117267    0.055086874128500156    
  0.055087757337236955    0.0627425885683146    0.07961637994084476    0.10779654854385991    0.14781058037858777    
  0.1947192764372381    0.12183238705438416    0.14781506174763723    0.16802988494422968    0.17573648947931644    
  0.16801453164867436    0.14781107901587007    0.1218488435308223    0.09698522058579057    0.07748511093138429    
  0.06446268458025797    0.0573196855124827    0.05508686940392105    0.057319280078628985    0.06446070662909711    
  0.07749460991913314    0.0969865601357431    0.12183238705438416    0.08532142391385056    0.09698304639834322    
  0.10779741186082294    0.11448535164704    0.11448449875087008    0.10780891167097204    0.09698522092370872    
  0.08530816872423667    0.07539197257927112    0.06846312246978013    0.06446268266551472    0.0627430038152104    
  0.06274292657524388    0.06446500121659783    0.06845351096706878    0.07539130626550077    0.08532142391385056    
  0.07452018288960034    0.0753942241798918    0.07749440645030038    0.07961143465878498    0.08050697664687415    
  0.07961296149197228    0.07748511034127976    0.07539196782658837    0.07453368894286787    0.07539197684958539    
  0.07748511728497082    0.07961296663376731    0.08050697600398793    0.07961143689356788    0.07749440153408078    
  0.07539422357252726    0.07452018288960034    0.08532142291743249    0.07539130605167078    0.06845351221116076    
  0.0644650040672891    0.06274292976038635    0.06274299850284769    0.06446268141285205    0.06846311280393773    
  0.07539197373477488    0.0853081686606921    0.09698523078770234    0.10780892391122318    0.1144845070562518    
  0.11448535522969921    0.107797413202713    0.09698305043701651    0.08532142291743249    0.1218323905426404    
  0.09698655909284988    0.0774946090719435    0.06446070793112685    0.05731927947515949    0.055086870759383795    
  0.05731967837074347    0.06446267820896377    0.077485112009095    0.09698522395199297    0.1218488463717144    
  0.14781108192990247    0.16801453371057226    0.175736497066527    0.16802989432880086    0.1478150706113865    
  0.1218323905426404    0.19471928087260834    0.1478105955441409    0.10779654891738256    0.07961638709989108    
  0.06274259647627115    0.05508775666856721    0.055086872107476426    0.06274299885107992    0.07961296771342788    
  0.10780891841170029    0.14781108706875512    0.19469909788735737    0.2365751883141606    0.2607883136540228    
  0.2607702045690821    0.23656684798504538    0.19471928087260834    0.3006472644683676    0.23657403581000433    
  0.16803088129504604    0.11448018612446252    0.08050699212690506    0.06274259433480746    0.05731928527096541    
  0.06274293018858997    0.0805069784780102    0.11448450320939187    0.16801452818410734    0.23657517354488639    
  0.30066683931535765    0.3384763418736594    0.34894705111560587    0.33848452308647453    0.3006472644683676    
  0.36548300675033263    0.33848271895403914    0.2607603010965439    0.17574830105317432    0.11448018178329908    
  0.07961638240558734    0.06446070770424463    0.06446500072392877    0.07961143394852906    0.11448535728589788    
  0.17573649331509203    0.2607883119152819    0.3384763638480349    0.36546879910696517    0.3541215344154181    
  0.35414361125678373    0.36548300675033263    0.2854070778377475    0.3541176713062929    0.34898020109639194    
  0.26076030635923536    0.16803088813026493    0.10779655327789714    0.07749461766977717    0.06845350706884798    
  0.07749440640835105    0.10779741638465026    0.16802989971623228    0.26077020235647874    0.3489470451439758    
  0.35412154365046555    0.2854412923665397    0.2472625979664699    0.2854070778377475    0.15560662050682053    
  0.2472800670398711    0.3541176616255588    0.3384827237481515    0.2365740224199252    0.14781059034094088    
  0.09698655711680501    0.07539130928084659    0.07539421828798673    0.09698305426231635    0.14781505777161996    
  0.2365668444963425    0.338484520244639    0.3541436382328942    0.24726259494774808    0.15559516267670806    
  0.15560662050682053    0.10836019007243602    0.15560663109265213    0.2854070784243451    0.3654830375300455    
  0.30064727611212894    0.19471927609208348    0.1218323867727329    0.08532142064395604    0.07452018641390364    
  0.08532142494809489    0.12183238943668066    0.19471927431151076    0.3006473011106395    0.3654830335439846    
  0.2854070871453333    0.1556066334834105    0.10836019007243602    0.2648561569361997    0.2997379463386968    
  0.357931589198092    0.3430881470647501    0.2535635195068031    0.1630788987424347    0.10470914847176682    
  0.07533558548234799    0.06656922815636437    0.07533559270642846    0.10470914626504264    0.16307889520181773    
  0.2535635294980497    0.34308814264037973    0.35793157588345037    0.2997379431106913    0.2648561569361997    
  0.2997379357126993    0.29971415443427585    0.3459529768671183    0.3598543956524296    0.29272690431663534    
  0.19736138347781104    0.12547429775138946    0.08476489131782924    0.06727472985755467    0.06727361765628646    
  0.08476658793497185    0.12547206703999456    0.1973648826784037    0.29272362994220225    0.3598477036537038    
  0.34595390028753337    0.2997379357126993    0.3579315996357063    0.34595297585219287    0.35796153528288255    
  0.35984093530466227    0.30598543155547975    0.21782919645753118    0.14166440726482846    0.09349353950190774    
  0.06899185655217702    0.06161953811237457    0.06899118322940409    0.09349429060132948    0.14166291814455534    
  0.21782968634272054    0.3059928716242469    0.3598476975903629    0.3579315996357063    0.34308814161819196    
  0.3598543875930185    0.3598409501364512    0.34307673935341676    0.29272331673473634    0.21783937547867907    
  0.14786659903954882    0.09889116304304794    0.07073339931013868    0.058353448356868495    0.05835259962484636    
  0.07073474071463913    0.09889003196094213    0.14786929328389214    0.21782969584714607    0.2927236215892556    
  0.34308814161819196    0.2535635118206265    0.29272690375290594    0.3059854020803073    0.2927233115562775    
  0.25357711953329815    0.1973630336779769    0.14165711865287786    0.09889069289145425    0.07146484093919579    
  0.056932509215383155    0.0524702886690159    0.05693243458788369    0.0714644680634    0.09889003254211694    
  0.14166290869695444    0.1973649008238728    0.2535635118206265    0.16307889279768242    0.19736138113722246    
  0.2178292007196746    0.21783937388516753    0.19736302875525513    0.16306787060803946    0.12547334245039524    
  0.09349930836815804    0.07073359674963303    0.0569326407363806    0.050622175720351055    0.05062244056183157    
  0.056932429017765324    0.07073473715573517    0.09349429817859585    0.12547205858578095    0.16307889279768242    
  0.10470914823411052    0.12547430579473728    0.14166440547767228    0.14786660179191283    0.1416571182763442    
  0.12547333663608595    0.10471813874397562    0.08476505439150112    0.06898757986749902    0.05835299690446436    
  0.052470292543687624    0.0506221797924323    0.052470291859023487    0.05835259278212085    0.0689911872982244    
  0.0847665950590574    0.10470914823411052    0.0753355975027423    0.08476490111056993    0.09349354098232669    
  0.0988911685604895    0.09889068958591465    0.09349931467402949    0.0847650577599989    0.07532871193776304    
  0.06727407901357116    0.06162353825940279    0.05835299300099011    0.056932641060235885    0.05693250771305695    
  0.05835344576678959    0.06161953558170223    0.06727361786773225    0.0753355975027423    0.06656922567937537    
  0.06727473526840497    0.0689918576726398    0.07073340396098826    0.07146484044311566    0.07073359952349495    
  0.06898757211921781    0.06727407542328624    0.06657610721005791    0.06727408036852414    0.0689875776892372    
  0.07073360610661146    0.07146484582025128    0.07073339867352099    0.06899185455989655    0.06727473234823618    
  0.06656922567937537    0.07533559473868082    0.06727362115888134    0.06161953526014187    0.05835345063835843    
  0.056932509157424524    0.05693263828080998    0.05835298965116511    0.06162353407290681    0.06727408109090106    
  0.07532870821399515    0.08476506612715617    0.0934993235748045    0.09889069341206191    0.0988911695763978    
  0.09349354456367569    0.08476490414207309    0.07533559473868082    0.10470915152931613    0.08476659378350637    
  0.06899118693837064    0.05835259711334573    0.052470287723244205    0.05062217660602665    0.05247028772385431    
  0.05835298975851559    0.0689875770062282    0.08476506378056217    0.10471813833081285    0.12547334653661268    
  0.14165711863214053    0.14786659854083764    0.14166441565714527    0.1254743034585931    0.10470915152931613    
  0.1630788987477947    0.12547206168567185    0.09349429222151151    0.07073474007506798    0.05693243321976756    
  0.05062243355696451    0.05062217874082378    0.05693264112325763    0.07073360070748819    0.09349932537205623    
  0.12547334896339626    0.16306787078220364    0.19736302440726144    0.21783937677161253    0.21782920822224094    
  0.19736138193062114    0.1630788987477947    0.2535635124083155    0.1973648984325673    0.14166290675861207    
  0.09889004074036771    0.07146446703629927    0.056932433298463196    0.05247029219819184    0.05693250820938592    
  0.07146484503617671    0.09889069706290753    0.14165711787333451    0.19736301310654938    0.25357711116617    
  0.29272330800252166    0.3059854099428645    0.29272690894945597    0.2535635124083155    0.3430881431769236    
  0.2927236029213565    0.21782968141936054    0.14786929427546347    0.09889003723676776    0.07073473873038996    
  0.05835259607466402    0.058353445530559836    0.0707334009887155    0.09889116752227317    0.14786660602751783    
  0.2178393719154219    0.2927233079720207    0.34307673460458193    0.35984091412857466    0.3598543705800349    
  0.3430881431769236    0.3579315795684826    0.35984769484841345    0.3059928631323183    0.21782969148825398    
  0.1416629186468625    0.09349429841177363    0.0689911914153129    0.061619533262757056    0.06899186421681425    
  0.09349354489038686    0.14166441016883258    0.2178292015529682    0.30598539921677625    0.35984091266169554    
  0.35796153356653654    0.3459529576374489    0.3579315795684826    0.2997379324457393    0.3459538852393658    
  0.35984767585020616    0.2927236338596011    0.19736489945576913    0.12547206114655904    0.08476659185857909    
  0.06727362137508351    0.06727472651414804    0.0847649022664822    0.125474299837353    0.19736138141262072    
  0.2927269007128798    0.35985438864766267    0.3459529723484813    0.2997141353496605    0.2997379324457393    
  0.2648561569361997    0.2997379463386968    0.357931589198092    0.3430881470647501    0.2535635195068031    
  0.1630788987424347    0.10470914847176682    0.07533558548234799    0.06656922815636437    0.07533559270642846    
  0.10470914626504264    0.16307889520181773    0.2535635294980497    0.34308814264037973    0.35793157588345037    
  0.2997379431106913    0.2648561569361997    0.3633181394925709    0.3602012480857229    0.33327312955171495    
  0.26777000025673303    0.18801557954115022    0.12376425270305075    0.08338519152943845    0.0626774676006393    
  0.05642236830513902    0.06267747358723705    0.08338519041059156    0.12376425533801166    0.18801558345150454    
  0.2677699825315314    0.33327312022881755    0.3602012230661497    0.3633181394925709    0.36020122203522376    
  0.36019484387058487    0.34436628159352267    0.29454276385396005    0.2188411530178718    0.14760201869317924    
  0.09783605724436356    0.06938629241729954    0.05692777037280089    0.056927389815450126    0.06938677242489176    
  0.09783534127171252    0.14760255755986762    0.2188408735887787    0.29454043102204125    0.3443674285137838    
  0.36020122203522376    0.33327312746529303    0.3443662771607332    0.3332811977189498    0.294539372108778    
  0.23031417174014687    0.16212211947965083    0.10906842786568982    0.07557827403894524    0.05816919197039203    
  0.05286850381409982    0.058169113928757246    0.0755784631755254    0.10906873825155362    0.16212166247311607    
  0.23031664681826733    0.2945404346857158    0.33327312746529303    0.2677699818441844    0.29454275833853233    
  0.29453937774947053    0.26776586523715934    0.21884197091454394    0.16212328353851252    0.1133719248288819    
  0.07937847757508075    0.05940875209151578    0.050486664956900226    0.050486533955952005    0.059408795231300264    
  0.07937813888641802    0.11337188098281248    0.16212166481849746    0.21884086435499833    0.2677699818441844    
  0.18801556975375092    0.21884113487464638    0.23031414319625246    0.21884197294051866    0.18801822844464502    
  0.14760185950086002    0.10906751999392753    0.07937762235077017    0.059913419144634265    0.04941096251325212    
  0.04616698232864024    0.04941124199875131    0.05991327701693652    0.07937813425585746    0.10906874011589598    
  0.1476025752508024    0.18801556975375092    0.12376424598055633    0.14760201905423515    0.16212212849173754    
  0.16212329000076778    0.14760185544090929    0.12376223681349323    0.09783591796688779    0.07557963005973871    
  0.05940905277460234    0.04941117657296317    0.044792116446066524    0.04479180368541321    0.0494112391454767    
  0.059408792439305066    0.07557846304067475    0.09783534089872016    0.12376424598055633    0.0833851923704533    
  0.09783606095882595    0.10906842433874013    0.11337192956545483    0.10906751269336853    0.09783591692857604    
  0.08338660287492733    0.06938630846541759    0.05816805830080136    0.05048648380249473    0.046166834606194175    
  0.04479211419652858    0.046166982280397915    0.05048653233669687    0.05816911464506329    0.06938677624191121    
  0.0833851923704533    0.06267746943701119    0.0693862978361057    0.07557828456717208    0.07937847565965253    
  0.0793776202365588    0.07557963743312178    0.0693863111908907    0.06267659877327818    0.05692749439632384    
  0.052869684523155804    0.05048648129968152    0.04941117496853369    0.04941095796442843    0.050486661098997236    
  0.052868499969440305    0.05692738897044636    0.06267746943701119    0.05642236499962558    0.056927772269294845    
  0.05816919378183233    0.059408758934857725    0.05991342601613151    0.05940905201280652    0.05816805495342845    
  0.056927490685617754    0.05642340270813376    0.05692749788102648    0.05816805643690776    0.05940905821037684    
  0.05991342728737687    0.059408755126812075    0.0581691920503664    0.05692777129455879    0.05642236499962558    
  0.06267747186066111    0.056927391382907526    0.05286850092439551    0.050486663365865936    0.04941096140993846    
  0.049411175620199047    0.050486480661280864    0.05286968304080341    0.05692749791378052    0.06267660002002377    
  0.06938631332487741    0.07557963920543379    0.07937762623230557    0.07937847635415266    0.07557828519652196    
  0.06938630333031269    0.06267747186066111    0.08338519484394327    0.06938677246129711    0.058169113624906156    
  0.05048653382334122    0.046166980281837994    0.04479211363007199    0.04616682918927214    0.050486477661801296    
  0.058168057674599614    0.06938631117737493    0.08338660000969862    0.09783591712741917    0.1090675122109049    
  0.11337192958525198    0.10906843891107716    0.09783606387962152    0.08338519484394327    0.12376425026990943    
  0.09783534292294943    0.07557846241438593    0.05940879434329968    0.04941124416678242    0.044791801428391    
  0.0447921114763557    0.049411178410152155    0.05940905868753022    0.07557964315226319    0.09783591509704712    
  0.1237622394687853    0.14760185827762748    0.16212329059194994    0.1621221280655432    0.1476020189686384    
  0.12376425026990943    0.18801556955890852    0.14760257309483418    0.10906873793383029    0.07937814048869583    
  0.059913271195040016    0.04941124496146965    0.046166982279712304    0.049410958242906505    0.05991342749698894    
  0.07937762330480806    0.10906751241983204    0.1476018477778336    0.18801822984943556    0.21884196686737462    
  0.23031415118311813    0.21884112981934198    0.18801556955890852    0.26776998391354384    0.21884086044620288    
  0.16212166590331187    0.11337189184494482    0.07937814168014772    0.05940879317057925    0.05048653110559904    
  0.0504866588641085    0.059408751986767816    0.07937847998826393    0.11337192872797801    0.1621232843929552    
  0.21884197892456558    0.2677658519879962    0.2945393647468322    0.2945427484631451    0.26776998391354384    
  0.33327313343526316    0.2945404199048945    0.23031666158397754    0.16212166633454558    0.10906873916888714    
  0.07557846988985151    0.058169117746583586    0.05286849765781557    0.05816919680390574    0.07557828272115494    
  0.10906842822444052    0.16212212947470414    0.2303141496124578    0.294539355715198    0.3332811988119318    
  0.34436628479076425    0.33327313343526316    0.36020120617352025    0.34436743625213045    0.29454041864366853    
  0.21884086722556967    0.1476025636029383    0.09783534099270923    0.0693867702559905    0.056927394652055464    
  0.05692776676523351    0.06938629831405761    0.09783605701148289    0.14760201666744655    0.21884113878738334    
  0.2945427520248825    0.3443662921225611    0.36019481000414183    0.36020120617352025    0.3633181394925709    
  0.3602012480857229    0.33327312955171495    0.26777000025673303    0.18801557954115022    0.12376425270305075    
  0.08338519152943845    0.0626774676006393    0.05642236830513902    0.06267747358723705    0.08338519041059156    
  0.12376425533801166    0.18801558345150454    0.2677699825315314    0.33327312022881755    0.3602012230661497    
  0.3633181394925709    0.2830008099336637    0.2692691345726218    0.2309036585749245    0.17851999875629104    
  0.12772265785180842    0.08891350391318713    0.06400920822908675    0.05080208249649252    0.046747497785269994    
  0.050802087605645786    0.06400920780922485    0.08891350581983762    0.12772265638568142    0.17851998099072613    
  0.23090365872865062    0.26926912249467516    0.2830008099336637    0.2692691140991508    0.269268337925539    
  0.24318511415842092    0.19777942252673708    0.1467387870909902    0.10332379835056026    0.07302622474286977    
  0.055117613015038806    0.047068077275797975    0.04706767760956421    0.05511791003738281    0.07302572277863327    
  0.1033242175702142    0.14673833890829455    0.19778046560070542    0.24318400818307753    0.2692691140991508    
  0.2309036642567513    0.24318511007586524    0.23090337938410502    0.1977805688972567    0.15402369006949407    
  0.11209705458249414    0.07994056409445727    0.05907991531595251    0.047879783624808374    0.04441474608879152    
  0.047879886987494284    0.05908012525026697    0.07994070099678015    0.11209687263707828    0.15402336295890456    
  0.19778046541766917    0.2309036642567513    0.17851998240576566    0.1977794157524778    0.19778057473271152    
  0.17851912626079403    0.14673855389340654    0.11209654401111041    0.08257560761648322    0.0615028408248029    
  0.04870859583618242    0.04285697577534476    0.04285723799727854    0.048708051297863784    0.06150285395824421    
  0.0825756037463014    0.11209687792672808    0.14673833034134892    0.17851998240576566    0.12772264633853544    
  0.14673877559985696    0.15402367819393295    0.14673855081736872    0.12772343694687427    0.10332391007201511    
  0.07994100571432718    0.06150286008256616    0.0490450414903256    0.04214314797756703    0.03997920581049491    
  0.042143376105885186    0.04904532152877309    0.061502851049733756    0.07994070167638873    0.1033242204142852    
  0.12772264633853544    0.08891349255864452    0.10332379950027529    0.11209706157135121    0.1120965444145681    
  0.10332390856484627    0.08891303656397309    0.07302608284371255    0.05907942844900156    0.048708706534947015    
  0.04214305804734528    0.039044850175479345    0.0390440834808695    0.042143374856188055    0.048708047249574817    
  0.05908012217032611    0.07302572164921248    0.08891349255864452    0.06400921124055009    0.07302622565746199    