#     DFTpy    
  CRYSTAL 
    
  PRIMVEC    
  4.345586206896551    0.0    0.0    
  0.0    4.345586206896551    0.0    
  0.0    0.0    2.3941379310344826    
  PRIMCOORD    
  4    1    
  Si    0.0    0.0    0.0    
  Si    2.1727931034482757    2.1727931034482757    1.1970689655172413    
  Si    0.0    2.1727931034482757    0.5985344827586206    
  Si    2.1727931034482757    0.0    1.795603448275862    
  BEGIN_BLOCK_DATAGRID_3D    
  3d_datagrid_density    
  BEGIN_DATAGRID_3D#0    
  19    19    11    
  0.0    0.0    0.0    
  4.345586206896551    0.0    0.0    
  0.0    4.345586206896551    0.0    
  0.0    0.0    2.3941379310344826    
  0.04951582608214639    0.09762532840721548    0.2870936055176227    0.5015654513713926    0.550919894133746    
  0.5328969985918608    0.5202372121977772    0.47973310682518705    0.40536118776660085    0.3673715351776675    
  0.4053612018433367    0.47973318569207585    0.5202371870872287    0.5328970322695613    0.5509199004639848    
  0.5015655236916117    0.2870935398905978    0.09762535894915252    0.04951582608214639    0.09762535017475034    
  0.15542676926190432    0.3349622185457632    0.4930250865829068    0.5106407742563571    0.4885469494281822    
  0.48281632038804306    0.4632120359883156    0.4146897664944338    0.3874074537457946    0.41468972726733094    
  0.4632120446145221    0.4828161995420268    0.4885469809277491    0.5106407453999059    0.49302502056130976    
  0.33496214126046303    0.1554267279684185    0.09762535017475034    0.2870935793952112    0.33496226469518997    
  0.42572619829032804    0.45078039469435377    0.4137227288950308    0.38666455431726293    0.39195582368097986    
  0.4074058945405695    0.409289241620126    0.40583353586425086    0.4092892380801799    0.4074060152296989    
  0.39195584482870743    0.386664527188618    0.41372264122299857    0.4507803661442632    0.4257261218618622    
  0.33496230171350166    0.2870935793952112    0.5015654550958258    0.4930249550083403    0.4507803896639001    
  0.37671102087387104    0.31232225995181595    0.285002894654471    0.295224059562311    0.32783922266066445    
  0.3599902015287914    0.3728583906006573    0.35999013437337046    0.32783928322708633    0.2952239818735108    
  0.28500290403369666    0.31232227381564254    0.3767111104224971    0.45078045442127573    0.49302507079905966    
  0.5015654550958258    0.550919966585641    0.5106407838908512    0.41372273965115863    0.3123222319880799    
  0.2443546874809971    0.21893477204702175    0.23008949597624698    0.2658129377005884    0.3049733933680747    
  0.32183713528441477    0.3049733361684848    0.2658129131493396    0.23008950836778844    0.21893477509262133    
  0.2443547134801756    0.3123222974750963    0.41372262988391134    0.5106407434989771    0.550919966585641    
  0.5328969608831323    0.4885470449434002    0.3866645522017124    0.2850028551265381    0.2189347008285894    
  0.19516432388878915    0.20702038532853828    0.2433672250041194    0.28352852040125814    0.30085750658939087    
  0.2835285248285984    0.2433672508590036    0.20702039167319042    0.1951643466591082    0.21893478564909946    
  0.28500278225234926    0.38666457811560495    0.4885470268292748    0.5328969608831323    0.5202371095472809    
  0.4828161999119037    0.39195585158531676    0.2952239473188456    0.23008945260300956    0.2070204030735384    
  0.22052215200745048    0.25953651220353546    0.3027249177648481    0.3215138287854858    0.30272495495149526    
  0.2595364753879658    0.22052214067341033    0.2070203700079701    0.23008948271607088    0.29522405847801686    
  0.3919558687871013    0.48281624760403297    0.5202371095472809    0.4797330981875043    0.4632120764842687    
  0.4074059698427883    0.3278392069613436    0.26581298867442954    0.24336721978991113    0.25953644594315195    
  0.3035930255289285    0.35231927410497416    0.373671199223005    0.35231928744148056    0.3035930108396279    
  0.259536495439178    0.24336722017286466    0.2658129330025288    0.3278392138779258    0.4074058506107946    
  0.46321211269671625    0.4797330981875043    0.40536110215666976    0.41468961192375375    0.40928922317574096    
  0.3599901721608273    0.3049733235420034    0.2835284922321263    0.302724913920298    0.35231927273019475    
  0.40680015139976794    0.43079732781723323    0.40680011683277456    0.35231932617378364    0.302724980758696    
  0.28352838925621254    0.304973376849521    0.35999012670499714    0.4092892176108902    0.41468984352571536    
  0.40536110215666976    0.36737154093768865    0.3874074072482477    0.4058335898074805    0.3728584653912237    
  0.3218371301141706    0.30085747344214897    0.32151387096900075    0.3736712323564245    0.4307973100266428    
  0.45604756811436226    0.4307973692462393    0.37367126450532007    0.3215138097226353    0.30085752582991887    
  0.3218371564012879    0.3728584728284941    0.4058335110314701    0.3874074393214625    0.36737154093768865    
  0.40536118154977596    0.41468976548652775    0.409289326455773    0.35999014777795296    0.3049733510616951    
  0.28352845390419745    0.30272501298549714    0.35231928621194514    0.40680011452684267    0.43079735194646435    
  0.40680006401693036    0.35231934053414143    0.30272497518806496    0.2835284446685585    0.3049733577501932    
  0.3599902415333219    0.40928909511995426    0.4146896609252121    0.40536118154977596    0.47973314802358646    
  0.4632120857059781    0.40740593418484916    0.3278392100535665    0.2658129400461785    0.2433672742949912    
  0.2595364434969022    0.30359302450285736    0.3523192188123957    0.37367128180570874    0.35231935281047044    
  0.30359299738746337    0.25953650956608215    0.24336727371378444    0.2658129202580264    0.3278391612981389    
  0.4074059533249484    0.46321213115697946    0.47973314802358646    0.5202371342654647    0.4828161389950902    
  0.3919558317910289    0.2952239836571367    0.23008949431960904    0.20702037796809988    0.220522198170455    
  0.25953647226238613    0.3027250037351949    0.3215138235094852    0.30272497824123507    0.2595365027894867    
  0.2205221575482098    0.2070203786930535    0.23008949343982982    0.2952240648642415    0.39195583975715437    
  0.48281623573173954    0.5202371342654647    0.532897001776793    0.4885470022412535    0.38666459722893204    
  0.2850028325043865    0.21893474410169927    0.19516431158879988    0.20702035923693138    0.24336722186763388    
  0.28352845380499514    0.30085751566625646    0.28352846254134295    0.2433672283303163    0.20702038590593555    
  0.1951643193655483    0.21893478963631147    0.28500287185510537    0.38666450197618535    0.48854699203484286    
  0.532897001776793    0.5509198269518771    0.5106406942163954    0.4137226882869252    0.31232228021165664    
  0.24435465803281597    0.2189347649546893    0.23008951484105408    0.2658129698740452    0.3049734042318804    
  0.32183718645951936    0.3049734552355271    0.2658129822617032    0.23008949951895705    0.21893478582509135    
  0.24435467370079164    0.31232220539535144    0.4137226967124815    0.5106408807927247    0.5509198269518771    
  0.5015654318399537    0.49302498908359116    0.450780473865793    0.3767110207477262    0.31232227627143316    
  0.28500289204335816    0.2952240602128035    0.32783919805346745    0.3599901261744087    0.37285839204172616    
  0.3599901134449373    0.32783921151253964    0.29522397978129644    0.28500287921299733    0.31232227205852486    
  0.37671113012658397    0.45078042376776783    0.4930250581963092    0.5015654318399537    0.2870935409083585    
  0.33496224396542656    0.4257261404448764    0.4507803843045826    0.4137227123496371    0.3866645257365677    
  0.39195585508312997    0.4074058931814947    0.40928919117743157    0.4058334088624454    0.40928925855074716    
  0.4074058960284683    0.39195590467322794    0.38666457834968354    0.4137226572072159    0.45078042646142147    
  0.4257260469731722    0.33496225863273454    0.2870935409083585    0.09762533293848759    0.15542675662326633    
  0.3349622106451065    0.4930250027259151    0.5106407594896255    0.4885470275353659    0.4828162572299308    
  0.4632120754300187    0.41468979021350366    0.38740742147407636    0.4146897830555691    0.4632121321195688    
  0.4828162554818125    0.4885470130503151    0.5106407961439443    0.49302500495037266    0.33496212826257604    
  0.15542679205647578    0.09762533293848759    0.04951582608214639    0.09762532840721548    0.2870936055176227    
  0.5015654513713926    0.550919894133746    0.5328969985918608    0.5202372121977772    0.47973310682518705    
  0.40536118776660085    0.3673715351776675    0.4053612018433367    0.47973318569207585    0.5202371870872287    
  0.5328970322695613    0.5509199004639848    0.5015655236916117    0.2870935398905978    0.09762535894915252    
  0.04951582608214639    0.09437348006862166    0.14903997953100973    0.3151569950437031    0.4516729454620979    
  0.45331122173702254    0.4242144367424183    0.4262796720957639    0.44871711817965876    0.4661083777428692    
  0.4710980457748845    0.4661084177133517    0.44871722228671407    0.42627969874846844    0.4242145341639196    
  0.4533112226658518    0.4516730320690105    0.3151569634094193    0.14903998322605053    0.09437348006862166    
  0.15492762030064328    0.2123482112450017    0.3566269001267933    0.4449165493399613    0.42447604316850385    
  0.3923677800344796    0.3949355249253632    0.4202590676332473    0.44283443948959106    0.4506740859393664    
  0.4428344627802531    0.4202592264126424    0.3949354039459903    0.3923678048024667    0.4244759877505022    
  0.4449165539661561    0.35662681411977243    0.21234819721453407    0.15492762030064328    0.35350697253160507    
  0.3869485757727418    0.4336220566261932    0.41369257954656796    0.3549424873662113    0.31906094819786196    
  0.3220633200319996    0.3505377947715904    0.3809554583821496    0.3935329458448202    0.3809554885609384    
  0.3505378233396933    0.32206330138180844    0.31906093127172375    0.3549424073754271    0.41369252128486866    
  0.433622014201105    0.3869486746562195    0.35350697253160507    0.5507700718238319    0.5289177224818434    
  0.45852851104138087    0.3610813039810454    0.28322140715234767    0.24734869684479663    0.24996057456214046    
  0.277710955002299    0.3102442784663639    0.32456665423481657    0.3102442280489868    0.27771104216740977    
  0.24996051846173378    0.24734871586354865    0.2832214075892729    0.3610813069815536    0.4585285056304654    
  0.5289177696860603    0.5507700718238319    0.603568435322117    0.5547444593685893    0.4391591313587372    
  0.3197970324790432    0.23927883904862052    0.20491838257565234    0.20715870033730366    0.23334418457402073    
  0.2647883175655272    0.27864956867172985    0.26478827422568874    0.23334416678386194    0.2071587126184622    
  0.20491836927257503    0.23927889676557887    0.31979710841044845    0.43915898283534616    0.5547443625275915    
  0.603568435322117    0.60015941318428    0.5501454847468312    0.43308546860702113    0.3135806358702972    
  0.23354221341585302    0.19969266264552604    0.20224166200046365    0.22865652371542564    0.2602753328652524    
  0.2741736149408602    0.26027531018047667    0.22865657022427027    0.20224165953795079    0.19969263947665    
  0.23354228430038526    0.31358053279994236    0.43308542377309234    0.5501455224099131    0.60015941318428    
  0.5604779646783522    0.5305815442610566    0.44668587231231627    0.34291701926996615    0.2648655157902359    
  0.23030602096619687    0.23388634649555984    0.2628019153418376    0.29693029717514374    0.3119967467114392    
  0.29693035410820023    0.2628019421818607    0.23388636837211582    0.23030598784260234    0.2648655259924763    
  0.34291707348080186    0.4466858691789663    0.5305815686529812    0.5604779646783522    0.40878360304733824    
  0.4263792020338391    0.435197858238893    0.38749970276397155    0.3223005174256591    0.2878801389109758    
  0.2930372743159621    0.32563774446163385    0.36269874958623943    0.3788177828008265    0.3626987439861567    
  0.32563773008078767    0.29303732969133406    0.2878801048816012    0.32230042443408335    0.3874997152139865    
  0.4351977158167722    0.4263792170240855    0.40878360304733824    0.228569815039909    0.27918182771458433    
  0.3828894806924267    0.41856495719235437    0.37944425743198024    0.3476375216411113    0.35442769187946244    
  0.3896368535631434    0.4277739382541851    0.4439200767389148    0.42777389564221124    0.38963684586217817    
  0.3544276975987644    0.3476374553950638    0.37944428889583864    0.41856488627234006    0.3828894236794644    
  0.2791819570347529    0.228569815039909    0.1628642981548823    0.21822753704788128    0.35211619228056706    
  0.42742019767549977    0.4032978364585589    0.3734461271225506    0.3809555442993057    0.4168343233514642    
  0.45490297407645097    0.47084276268349984    0.4549030920233089    0.416834308039355    0.3809554850773203    
  0.3734460910707296    0.4032978664317878    0.4274202646143991    0.3521162028605881    0.2182275421362916    
  0.1628642981548823    0.22856984946876216    0.27918187852252085    0.38288952436567064    0.41856492620497365    
  0.3794443188850266    0.34763745875216323    0.3544277536885612    0.3896368687798659    0.42777381745259246    
  0.4439200896316539    0.42777391495954464    0.38963692830519286    0.3544277254846282    0.3476374622563722    
  0.3794442816133655    0.418565041526798    0.38288939044890424    0.27918183920146533    0.22856984946876216    
  0.4087836815897749    0.4263791851621324    0.43519785253471466    0.3874997095965566    0.32230045347484293    
  0.28788016673058875    0.29303723686979677    0.3256377309689848    0.36269871891223004    0.3788178392550226    
  0.36269882451970425    0.3256376972530945    0.29303730864285643    0.28788012899721654    0.32230047529392664    
  0.38749966872001373    0.43519782002644475    0.4263792502056444    0.4087836815897749    0.5604778985517639    
  0.5305814989623815    0.44668583044236465    0.3429169851487012    0.2648655158527513    0.23030604019259654    
  0.23388635552495762    0.26280191461787594    0.29693034500010873    0.31199674299295344    0.2969303283742322    
  0.2628019377146018    0.23388632370635376    0.23030599914324262    0.2648654987351687    0.34291710443538415    
  0.44668587910893626    0.5305815513791549    0.5604778985517639    0.600159478632152    0.5501454884472015    
  0.4330854812097958    0.3135805678866613    0.23354225306536786    0.1996926016208606    0.20224165042780742    
  0.22865654273872543    0.26027525348330477    0.27417365458827375    0.26027527308070325    0.22865653712462417    
  0.2022416596809088    0.19969264262370937    0.23354223378626376    0.3135806455611653    0.43308538783993805    
  0.5501454586562545    0.600159478632152    0.6035683001296709    0.5547443459098347    0.43915911187690587    
  0.3197970884110415    0.23927882461654013    0.20491838670650184    0.20715871504994068    0.2333441893407263    
  0.26478831759268157    0.27864963772292883    0.2647883734012599    0.2333442301441102    0.20715870174544596    
  0.2049184061009489    0.23927881636281603    0.3197970052222522    0.43915908331169407    0.5547444922912993    
  0.6035683001296709    0.5507700545668577    0.5289177971987055    0.45852854339188415    0.36108131071880956    
  0.28322142387878874    0.24734867495911805    0.24996053963661363    0.2777109841601197    0.31024419756076477    
  0.32456671353637695    0.3102442213884375    0.2777109651721936    0.24996047508817024    0.24734872398676655    
  0.28322144267767385    0.36108135520307266    0.45852850746643087    0.5289178711942829    0.5507700545668577    
  0.3535069309196109    0.3869486246136336    0.4336219654054861    0.41369254890391716    0.3549424698905926    
  0.31906095325580464    0.3220634125686525    0.350537754962143    0.3809554303529452    0.3935328686588279    
  0.38095549247276955    0.3505377551327379    0.322063392708119    0.3190609432630589    0.354942445617279    
  0.41369254487734664    0.4336219383635842    0.386948650526747    0.3535069309196109    0.1549276506252922    
  0.21234817825264357    0.35662688812102794    0.44491652598010156    0.4244759645817992    0.3923678277357919    
  0.39493544654550633    0.42025910122368926    0.44283450262790225    0.45067411571232063    0.4428345391205507    
  0.4202591865189328    0.394935460762316    0.39236781721520725    0.424476037059461    0.44491649310697806    
  0.35662685080260303    0.21234822601368217    0.1549276506252922    0.09437348006862166    0.14903997953100973    
  0.3151569950437031    0.4516729454620979    0.45331122173702254    0.4242144367424183    0.4262796720957639    
  0.44871711817965876    0.4661083777428692    0.4710980457748845    0.4661084177133517    0.44871722228671407    
  0.42627969874846844    0.4242145341639196    0.4533112226658518    0.4516730320690105    0.3151569634094193    
  0.14903998322605053    0.09437348006862166    0.2628903378506199    0.3064982328395058    0.38667673965173743    
  0.40100891006166073    0.3585918956325787    0.3316905253278854    0.34518462546242784    0.3897477849080612    
  0.4392016755130294    0.4609617700987532    0.4392016991208392    0.3897478789680307    0.3451845629129391    
  0.33169057170515004    0.35859194506026676    0.4010089860137398    0.38667664527985296    0.3064982675756429    
  0.2628903378506199    0.3214629783338032    0.354652869147085    0.40355115327956403    0.38982074228935426    
  0.33874297167351014    0.3107825032257484    0.32300903949817966    0.36540466290166246    0.41275667804982935    
  0.433555357315531    0.41275661347422893    0.36540475022528557    0.3230089645339681    0.310782507687883    
  0.33874294424940143    0.3898207663892948    0.4035510927493296    0.35465294338720565    0.3214629783338032    
  0.4564774664826778    0.455623597412146    0.4270464840063144    0.35803807802934623    0.2918219673341006    
  0.2622033031203568    0.27180839401993845    0.30926584672238544    0.35182255020090575    0.370532303019716    
  0.3518225637432498    0.3092658906024884    0.27180836173806494    0.26220319847637735    0.2918218683767631    
  0.35803799304466294    0.42704646542377267    0.4556236801361953    0.4564774664826778    0.55058471889224    
  0.5149712819693575    0.42363001947112877    0.3201162934133029    0.24659872042692282    0.21655726807664272    
  0.22389875983273178    0.2565660819613041    0.29412070462745565    0.31058070750839367    0.29412070748622904    
  0.2565661169635623    0.22389870481842733    0.21655727391475335    0.24659871121999774    0.3201163771089477    
  0.4236300358344221    0.5149713394969709    0.55058471889224    0.5754002391528237    0.5269143990954157    
  0.41467948317951425    0.30147104541012837    0.22651168051080162    0.19632780710423978    0.20218123861917064    
  0.23205313153851523    0.2665728261222612    0.2816008566083125    0.26657280987604703    0.2320531200836027    
  0.20218126934313208    0.19632780913732134    0.2265117241508587    0.30147114450694984    0.41467932459013107    
  0.5269143289106485    0.5754002391528237    0.5859347288434018    0.5405973310816141    0.4322348261385087    
  0.31934478043450537    0.24304296292800825    0.2115228845192231    0.21663642697106092    0.2459401695313344    
  0.2799159525112228    0.2947792215664591    0.2799159622656695    0.2459402572807346    0.21663637420402526    
  0.21152283867933527    0.24304303815603803    0.31934469856511355    0.43223493072191227    0.5405974337711563    
  0.5859347288434018    0.5283512213367054    0.5143256454338421    0.45926912570908857    0.37271414067364844    
  0.29971450722051024    0.26623210572225586    0.27101509750585223    0.3000879447532907    0.3322393622177398    
  0.3460137568805725    0.33223941223854575    0.3000879952744331    0.27101506201666403    0.26623210908987693    
  0.2997144964086374    0.372714247991337    0.4592691969396782    0.5143257369505543    0.5283512213367054    
  0.30916490349026465    0.35272254507811535    0.4283526681346815    0.4351184630205831    0.38667150757108454    
  0.3532620085935199    0.3563935605444074    0.37979760054559075    0.39947163475212555    0.4059702982592774    
  0.3994716724106998    0.3797976196801685    0.35639370339466914    0.3532620534127616    0.38667137274632146    
  0.43511851041095145    0.4283525389771663    0.3527225257851258    0.30916490349026465    0.11189870706179361    
  0.16967219387838886    0.3374229008531698    0.4694631961680489    0.46996609470803685    0.4413156242780404    
  0.44008424679402025    0.4485247795629637    0.4432336427380566    0.43654250900830105    0.4432336628741439    
  0.44852477648934247    0.44008423671022956    0.44131553005448737    0.46996620960565805    0.46946311070903074    
  0.33742288201844955    0.16967225085854534    0.11189870706179361    0.05958034934759909    0.10937411855004524    
  0.29026048041222546    0.47571312682101335    0.5044751098358023    0.47971050844473895    0.4755999386925111    
  0.47421334618541083    0.45461232160474485    0.4409348408579124    0.4546123872289252    0.47421345776986923    
  0.4755998658323104    0.4797104513926785    0.5044751703176421    0.47571317832848886    0.2902604350202524    
  0.10937413076981115    0.05958034934759909    0.11189871204695906    0.1696722289880579    0.33742298381986113    
  0.4694631781984038    0.46996622935696114    0.4413155824563399    0.4400842692142032    0.44852474963787986    
  0.4432335304729366    0.4365425380256483    0.44323358935164947    0.4485248228886416    0.4400842992971471    
  0.4413155698463137    0.46996619480791346    0.46946328804007226    0.33742282776233107    0.16967220179422166    
  0.11189871204695906    0.30916494894472957    0.35272253109870033    0.4283526750988355    0.4351185038668493    
  0.3866713992075988    0.3532620696422253    0.3563936276418849    0.3797975835617014    0.39947168302572267    
  0.405970414417069    0.39947169189882126    0.37979762070063505    0.3563936311369806    0.3532620308623011    
  0.3866714588902821    0.43511845110054037    0.4283526687987661    0.3527226154259715    0.30916494894472957    
  0.5283511723781498    0.5143256582618773    0.45926908100434916    0.3727141425805687    0.299714517286951    
  0.2662321434295658    0.2710150565324454    0.30008795423565043    0.33223942340610096    0.3460137719941493    
  0.33223936429616596    0.3000879237728003    0.27101503300897195    0.26623207527606635    0.2997145161123899    
  0.3727142516775936    0.4592691407377368    0.5143257233314179    0.5283511723781498    0.5859348808134636    
  0.5405973621754684    0.4322349277070603    0.31934472689545457    0.24304303804147714    0.2115228287685072    
  0.2166364156379671    0.2459402281180062    0.2799159210445187    0.29477922647669974    0.27991586138818364    
  0.2459401888287362    0.21663639809009974    0.2115228540514077    0.24304306079655588    0.31934478731389837    
  0.4322347896552983    0.5405973018482698    0.5859348808134636    0.5754001432760513    0.5269143256963679    
  0.4146794419900519    0.30147108300991715    0.2265116573769756    0.19632782998480242    0.20218127003609038    
  0.2320531292867134    0.2665728496485889    0.28160086667118517    0.266572841475647    0.232053194055836    
  0.2021812783439284    0.19632784076686785    0.22651169807976404    0.30147107793616595    0.41467939851904156    
  0.526914416335631    0.5754001432760513    0.550584767940339    0.5149713227318288    0.423630022254786    
  0.32011630892818943    0.2465986974811238    0.21655725574780862    0.2238986864571819    0.2565660735967063    
  0.2941206659063367    0.3105808177125064    0.2941206676734084    0.2565660596191414    0.22389867537802896    
  0.2165572698718588    0.24659870131814715    0.3201164052728868    0.42363011645612025    0.5149714107683971    
  0.550584767940339    0.45647744685997327    0.4556235881979862    0.4270464462031715    0.35803802781929256    
  0.2918219541987806    0.2622032209939694    0.27180845425322403    0.30926588428847823    0.3518224844409833    
  0.3705322708112836    0.35182252858361934    0.3092658396310589    0.27180844160419393    0.26220324035595544    
  0.2918219585339912    0.3580380300146597    0.427046358078747    0.45562354423054213    0.45647744685997327    
  0.3214630269112263    0.35465291879795624    0.4035511224195136    0.38982077772722457    0.3387429221547984    
  0.31078252427174635    0.3230090129580422    0.3654046778776335    0.41275666502709263    0.4335553490060867    
  0.41275668475490457    0.3654046953062226    0.3230089696176165    0.3107825263576564    0.3387429479220619    
  0.38982068597443226    0.40355110788376847    0.3546529753587338    0.3214630269112263    0.2628903378506199    
  0.3064982328395058    0.38667673965173743    0.40100891006166073    0.3585918956325787    0.3316905253278854    
  0.34518462546242784    0.3897477849080612    0.4392016755130294    0.4609617700987532    0.4392016991208392    
  0.3897478789680307    0.3451845629129391    0.33169057170515004    0.35859194506026676    0.4010089860137398    
  0.38667664527985296    0.3064982675756429    0.2628903378506199    0.4409361687790724    0.4365412485785054    
  0.40597174175203815    0.34601270584162375    0.2947803351385131    0.2815997795072511    0.3105818689547975    
  0.3705310945166416    0.43355665018095285    0.46096045003373004    0.4335566939171045    0.37053115113239526    
  0.3105818264809308    0.2815998539098232    0.29478028483832514    0.3460127149519007    0.40597164010136194    
  0.43654129254514645    0.4409361687790724    0.4546109781733868    0.4432347956159921    0.3994704190944463    
  0.33224052665186016    0.27991485672894356    0.2665738134197846    0.2941196287700909    0.35182368267249603    
  0.4127554175897524    0.43920298910607286    0.4127553596019765    0.35182379870320074    0.29411959376070596    
  0.2665738395404336    0.2799148466157753    0.332240544538138    0.39947036106828165    0.44323489796754223    
  0.4546109781733868    0.4742147317181891    0.4485234690569498    0.37979891183997044    0.30008682664147174    
  0.24594121025932478    0.23205219232374263    0.25656706658638173    0.30926475472003806    0.3654058939807642    
  0.38974661473088296    0.3654059173508268    0.30926479008759034    0.25656706587480954    0.23205211792145583    
  0.24594113181678168    0.3000867941234518    0.37979884548047294    0.44852355524489984    0.4742147317181891    
  0.47559850785986124    0.4400855136764892    0.35639240080199736    0.2710160884841254    0.21663545710832977    
  0.20218216598843877    0.22389780950352492    0.2718094344312836    0.32300787244812695    0.3451856802021448    
  0.3230078692203127    0.271809475053042    0.2238977479629699    0.20218217490790852    0.2166354431451552    
  0.2710161605218862    0.35639241671643157    0.44008554305488784    0.47559850785986124    0.4797118240357795    
  0.44131428835369707    0.35326329792516126    0.26623102942670246    0.21152377711541312    0.19632686913417274    
  0.21655819250234923    0.26220221094381585    0.31078361237004376    0.3316893781178859    0.3107835763952275    
  0.262202201825549    0.21655821326381056    0.19632690393640093    0.21152381851612678    0.26623109692228836    
  0.35326318311328975    0.44131426359380904    0.4797118240357795    0.5044736427488941    0.4699675312164578    
  0.3866702044652405    0.29971561320731366    0.24304196644719592    0.2265126624275032    0.24659774889875172    
  0.2918229989753786    0.33874187994905347    0.3585930623279042    0.3387418906236761    0.29182308390098943    
  0.2465976850491853    0.22651264658100173    0.24304203347831296    0.29971556400327576    0.3866702929807949    
  0.4699676261238963    0.5044736427488941    0.47571454143430747    0.46946182978082257    0.43511973472672477    
  0.372712938116189    0.319345885107353    0.3014700169306266    0.3201174834624215    0.3580369205007891    
  0.389821941635289    0.4010076071070868    0.38982196611726483    0.35803695226550025    0.320117456447342    
  0.3014700094880481    0.3193458802187623    0.3727130696453982    0.4351198091970823    0.4694619054600624    
  0.47571454143430747    0.2902593153366678    0.3374240933496143    0.4283514151657003    0.45927045418051743    
  0.432233599012066    0.41468058855606793    0.423628779294417    0.4270476669822462    0.40354989648702944    
  0.3866777591295422    0.4035499207690351    0.42704765547783785    0.42362890002339604    0.41468066397041337    
  0.4322335173403934    0.45927047408048177    0.4283512747187758    0.33742408554244274    0.2902593153366678    
  0.1093748445422844    0.1696713074813468    0.35272369205504195    0.5143243605745633    0.540598624960236    
  0.5269129470787343    0.5149726913131834    0.45562229724603154    0.35465417026031604    0.3064970750629796    
  0.35465417866327015    0.45562230198670434    0.5149726798092739    0.5269129109491106    0.5405987594709268    
  0.514324254305467    0.3527236329088113    0.16967136829163645    0.1093748445422844    0.059579753362637725    
  0.11189948668561187    0.30916381856649705    0.5283525636007954    0.5859333406016203    0.5754017140422385    
  0.5505834486244369    0.4564787546215766    0.3214618450120176    0.26289137141637653    0.3214619103183922    
  0.4564788017358857    0.5505833723237428    0.5754017125328695    0.5859334105350908    0.5283526502530739    
  0.30916376466194373    0.11189950680499713    0.059579753362637725    0.10937483685046524    0.16967132016831135    