#     DFTpy    
  CRYSTAL 
    
  PRIMVEC    
  4.2620689655172415    0.0    0.0    
  0.0    4.2620689655172415    0.0    
  0.0    0.0    4.2620689655172415    
  PRIMCOORD    
  2    1    
  Si    0.0    0.0    0.0    
  Si    2.1310344827586207    2.1310344827586207    2.1310344827586207    
  BEGIN_BLOCK_DATAGRID_3D    
  3d_datagrid_density    
  BEGIN_DATAGRID_3D#0    
  19    19    19    
  0.0    0.0    0.0    
  4.2620689655172415    0.0    0.0    
  0.0    4.2620689655172415    0.0    
  0.0    0.0    4.2620689655172415    
  0.06105992347436588    0.10866202262825808    0.26397568133935334    0.365277826407202    0.2850285616911792    
  0.16985797162276572    0.09733601848702245    0.06076728435131298    0.044544315544382034    0.04003803728453512    
  0.044544320819018136    0.06076728531011633    0.09733601047152003    0.16985800035024623    0.2850285690520562    
  0.36527779908220775    0.2639756715010857    0.10866203720771947    0.06105992347436588    0.10866202055740638    
  0.16247125146944594    0.3035054100509295    0.3620725411591436    0.26952203006465314    0.16052467171425466    
  0.09317073872434906    0.059023605700977345    0.04377478575166774    0.03952711419269014    0.04377479151075373    
  0.05902359776160913    0.09317075273304859    0.16052468444891682    0.26952194451649597    0.36207252006069135    
  0.30350540754834526    0.16247129197410276    0.10866202055740638    0.263975677307195    0.303505433281828    
  0.36295448283886844    0.3301992811429212    0.22662327876668498    0.1364946277517939    0.0823923915974267    
  0.054485967764750946    0.0418084783723494    0.03823996132581224    0.04180848294427126    0.05448596755839549    
  0.08239242414612274    0.13649464096720024    0.22662323111026558    0.33019928070556437    0.3629545151081405    
  0.3035054303165336    0.263975677307195    0.3652777825124413    0.36207254131788097    0.33019934327388895    
  0.2546957938050164    0.16979013872556947    0.10677292637785911    0.06898107986417856    0.048883761567627755    
  0.039508743367643984    0.0368157063941611    0.03950872987979068    0.04888375182681293    0.06898109756601697    
  0.1067729392254066    0.16979012058394607    0.2546957937106361    0.33019925980560005    0.36207253543586276    
  0.3652777825124413    0.2850285344494623    0.2695219277887758    0.2266232646891594    0.1697901173864423    
  0.11750991885497647    0.07986824098205189    0.056653932391668875    0.04387068750143108    0.037738078314437616    
  0.03593772381706243    0.037738074945658125    0.0438706766079272    0.056653925561473466    0.07986825292292385    
  0.11750991256940532    0.16979013508857718    0.22662328852908983    0.26952198397772675    0.2850285344494623    
  0.16985800753740674    0.16052467686916658    0.13649462061616813    0.10677293634091968    0.07986825880900722    
  0.06004231589297242    0.047445561764806576    0.040367847549216976    0.036945257632328206    0.035937676911757976    
  0.03694527141612817    0.04036785179037561    0.04744557201704313    0.060042340394235956    0.07986823459478992    
  0.10677294835558498    0.13649463424860822    0.16052466664859594    0.16985800753740674    0.0973360218801508    
  0.09317075376745361    0.08239242445613103    0.06898106368313874    0.056653938031675906    0.04744556173489874    
  0.04166746171873327    0.038563983127084235    0.03718190227755175    0.03681571760483682    0.0371819128521175    
  0.03856397765118712    0.041667466924045195    0.04744557634294329    0.056653908803908394    0.06898109575206404    
  0.08239240550950896    0.09317077127446138    0.0973360218801508    0.06076728125996171    0.05902359038873033    
  0.054485949401767396    0.04888376349762379    0.04387068248808121    0.0403678325223894    0.0385639728763217    
  0.038026674743371694    0.038114113811609826    0.03823993448291151    0.038114121912220154    0.03802666476919478    
  0.03856396770554731    0.04036784530374066    0.04387067831193913    0.04888376304321195    0.054485962728816534    
  0.05902362291445368    0.06076728125996171    0.04454432944612069    0.04377478767304518    0.041808465560928466    
  0.03950872642138666    0.037738076585417044    0.03694525865902218    0.0371819127352147    0.03811411616290862    
  0.03910577922979724    0.039527134038601384    0.039105771619467364    0.038114107394634306    0.03718190794365352    
  0.03694527745472003    0.03773805762702264    0.039508719664871454    0.04180848361383298    0.043774792486249776    
  0.04454432944612069    0.04003801231408372    0.039527112943795094    0.038239973848262665    0.0368156951128479    
  0.035937710253916386    0.035937681960724104    0.03681573265379135    0.03823994127725406    0.03952713382282596    
  0.0400380099718867    0.039527133099434175    0.03823992997655682    0.036815732484984674    0.03593767345756837    
  0.03593771149698465    0.03681569845946315    0.03823998130099321    0.03952712585003772    0.04003801231408372    
  0.044544325815220144    0.0437747721595382    0.04180848876145005    0.03950873970345746    0.03773806316683816    
  0.036945259256102765    0.0371819091903744    0.038114095883671734    0.03910577176266728    0.03952716098452613    
  0.0391057539738243    0.03811409301692282    0.037181907287663796    0.03694527723071671    0.03773806339775066    
  0.03950872083248818    0.04180847884913869    0.04377478747219921    0.044544325815220144    0.06076728692060006    
  0.05902361752724629    0.054485964097597664    0.0488837586386715    0.04387070276333087    0.0403678306321861    
  0.03856396084508322    0.038026662127547566    0.03811409056270375    0.03823993206045399    0.038114108080953134    
  0.03802667694874545    0.03856398747375021    0.040367847720537905    0.043870678925650684    0.048883762109679076    
  0.054485985582287774    0.05902360381027399    0.06076728692060006    0.0973360065849259    0.09317075125933272    
  0.08239243397577177    0.06898107498843008    0.056653933067709564    0.04744555763792076    0.041667462311523705    
  0.038563982041725564    0.03718193115122935    0.03681573084195007    0.037181922790514604    0.038563953270892966    
  0.04166745461962969    0.04744557901122303    0.056653915881394    0.06898109165772559    0.08239241443644241    
  0.09317075424504248    0.0973360065849259    0.16985798542568697    0.16052460703455582    0.1364946233232139    
  0.10677295208193781    0.07986824787162276    0.06004230675131637    0.0474455689357638    0.040367826121293006    
  0.03694527969719811    0.035937690168470225    0.03694527385986365    0.04036784336130783    0.04744558037078463    
  0.06004232827180223    0.07986822491618804    0.10677294198328088    0.13649462784518213    0.16052466167158355    
  0.16985798542568697    0.28502859834730476    0.26952199832082246    0.22662322219092712    0.16979014281190397    
  0.11750992490128401    0.07986824662703093    0.056653917387431106    0.04387070023102406    0.03773806861390954    
  0.03593769941269431    0.037738060285856766    0.043870698328208814    0.056653910805344564    0.07986824879642161    
  0.1175099003581539    0.16979013936926643    0.22662325230723926    0.26952201305004747    0.28502859834730476    
  0.3652778566343559    0.3620725621588209    0.33019929822725536    0.2546957339129746    0.16979014114927604    
  0.10677291897301633    0.0689810722073575    0.048883754202030734    0.039508729502834794    0.03681570474863713    
  0.039508739723299297    0.04888375237246822    0.06898107556513604    0.10677293056052552    0.1697901087502251    
  0.25469585411669843    0.3301992542189276    0.3620725135640587    0.3652778566343559    0.2639756538493054    
  0.30350540235640616    0.36295444310245895    0.33019927077390565    0.22662327179684946    0.13649463800844094    
  0.08239243283907266    0.05448596125010316    0.04180847773083041    0.03823998472486215    0.04180847851233243    
  0.05448596076697877    0.08239240667042028    0.13649462132539694    0.2266232395236271    0.33019929492713956    
  0.36295447750680637    0.3035054505172913    0.2639756538493054    0.10866202821695989    0.1624712644828943    
  0.303505343158134    0.3620725495733678    0.26952198825899415    0.16052468812314385    0.09317077990151953    
  0.05902361053351506    0.043774789164101734    0.03952710427243683    0.04377478760053822    0.05902362211413935    
  0.09317074674302296    0.16052471302607427    0.26952194425076426    0.3620725216562671    0.30350545421058606    
  0.16247129488172002    0.10866202821695989    0.06105992347436588    0.10866202262825808    0.26397568133935334    
  0.365277826407202    0.2850285616911792    0.16985797162276572    0.09733601848702245    0.06076728435131298    
  0.044544315544382034    0.04003803728453512    0.044544320819018136    0.06076728531011633    0.09733601047152003    
  0.16985800035024623    0.2850285690520562    0.36527779908220775    0.2639756715010857    0.10866203720771947    
  0.06105992347436588    0.10866202421275792    0.16247127950462112    0.30350544972277804    0.3620724940263137    
  0.26952195917125343    0.1605246397818494    0.09317075474640091    0.05902361118059638    0.04377478062745809    
  0.039527119761058764    0.043774796027316605    0.059023613818145054    0.09317074170663582    0.1605246523018276    
  0.2695219773055322    0.3620724816671928    0.3035054204041686    0.16247128604894107    0.10866202421275792    
  0.16247128126531887    0.21597463994119745    0.3328278315418024    0.3542743071277954    0.25461057165603107    
  0.15196942307625363    0.08937687692912934    0.05746140293594055    0.04311551628032146    0.039105808294044815    
  0.04311551893447488    0.057461400860953256    0.08937688789667364    0.15196943247995667    0.25461050921938705    
  0.35427425973917215    0.3328278120735508    0.21597466577325755    0.16247128126531887    0.3035053745218902    
  0.3328278693865731    0.36550939356577516    0.31555074396727345    0.21390431841077084    0.12984298395310867    
  0.0795438236448559    0.053432026135519076    0.04149156627752246    0.03811407178039692    0.04149156785967711    
  0.05343202270185947    0.07954386012377491    0.12984299563315738    0.21390430433013752    0.31555074067027794    
  0.3655094064244124    0.332827858885577    0.3035053745218902    0.36207256075662153    0.3542743358505176    
  0.31555077287540956    0.2404542579996242    0.16084059064346795    0.10244690092538214    0.06732677502969563    
  0.04854372138211336    0.03972807561147443    0.03718193494929586    0.03972806405500335    0.04854370725361027    
  0.0673267877407277    0.10244689959647679    0.1608405575230487    0.24045426896589622    0.31555072711291915    
  0.3542743112987898    0.36207256075662153    0.2695219732362613    0.2546105160001351    0.21390434355703633    
  0.1608405429852108    0.11249441241046772    0.07772702732177063    0.05621355578170257    0.04433830850794988    
  0.03862910225960638    0.03694525288962628    0.038629099638447295    0.044338306180598384    0.05621354599832538    
  0.07772703060076981    0.11249438080100366    0.16084056020300455    0.21390432140494003    0.25461062569298093    
  0.2695219732362613    0.16052466653752392    0.1519694501538123    0.12984299769645288    0.1024469055258213    
  0.07772703104651424    0.05957209371678011    0.048071994859339835    0.04167627075669358    0.03862907743019576    
  0.03773809034119058    0.03862906190472508    0.04167628232383789    0.0480720027556525    0.05957209119268429    
  0.077727012193532    0.10244691942448268    0.12984302365055236    0.1519694150457974    0.16052466653752392    
  0.0931707580052047    0.08937689666826175    0.0795438514071513    0.06732676979184551    0.05621354981324076    
  0.048071997271702284    0.043143401297201    0.04068464999083962    0.039728096580894344    0.03950869576840102    
  0.039728093255417665    0.04068464181900385    0.04314340552651366    0.04807200228238711    0.056213533063197076    
  0.0673267822835454    0.07954381920508029    0.08937690495680549    0.0931707580052047    0.05902361468797581    
  0.057461389717857005    0.053432003767757634    0.0485437212773987    0.04433830715906281    0.04167627028974871    
  0.040684649860209185    0.04087507966781932    0.041491539177385996    0.04180851038181755    0.041491543098435835    
  0.040875104879339576    0.040684610721047856    0.04167627743410964    0.04433829102498914    0.04854371363673784    
  0.05343202289263464    0.05746143455831116    0.05902361468797581    0.043774801749351715    0.0431155172320396    
  0.041491549269518195    0.039728067472045735    0.03862910326309411    0.03862906350950972    0.039728094810100575    
  0.041491536449002005    0.04311555338212565    0.043774749986748615    0.04311553970587961    0.04149154636413976    
  0.03972807678106105    0.03862907286644932    0.03862909149090512    0.03972805147299988    0.04149157896426338    
  0.043115527687153404    0.043774801749351715    0.03952710829314688    0.03910578978864293    0.03811408447243007    
  0.03718193791702208    0.03694523604810681    0.037738084940019734    0.03950870457019758    0.041808537486227024    
  0.043774747290349914    0.044544372948185224    0.04377476255862606    0.041808510833016115    0.03950870222390039    
  0.03773809303315535    0.03694522598470595    0.037181928919406255    0.038114081081756276    0.0391058024214793    
  0.03952710829314688    0.043774792190445624    0.04311550101485749    0.04149157456807154    0.03972807150612708    
  0.038629108000597136    0.03862907007068801    0.03972808748410353    0.04149153687149758    0.04311555800823593    
  0.04377476892327155    0.04311554572512353    0.04149152720623231    0.03972808204689094    0.03862908534623267    
  0.03862909064447963    0.03972806527403288    0.041491570884598934    0.04311551358954291    0.043774792190445624    
  0.059023609633161035    0.057461422843042995    0.053432011752346284    0.04854371163903034    0.044338323126001805    
  0.041676269210939115    0.04068462417916292    0.04087510937931017    0.04149152825656474    0.04180849579198117    
  0.041491535089067146    0.04087509610414882    0.04068463591608206    0.04167627173850516    0.0443382989757943    
  0.04854372795974587    0.05343204959628214    0.05746140439876874    0.059023609633161035    0.0931707432361385    
  0.08937689099020124    0.07954386666740648    0.06732676247452314    0.05621355589425129    0.04807198065251457    
  0.04314340993667859    0.04068462893101479    0.03972810674184897    0.0395086874727347    0.039728105808182736    
  0.04068463897905389    0.043143415653565755    0.04807201263152055    0.05621354603623609    0.06732678369854722    
  0.07954382204710501    0.08937689946019865    0.0931707432361385    0.16052468830598032    0.15196942595417798    
  0.1298430069874407    0.10244691521009983    0.07772704537127252    0.059572084981980654    0.04807200264853853    
  0.041676259323608224    0.03862910042086141    0.037738108476717845    0.03862908293196456    0.041676271046178166    
  0.04807198824423016    0.05957210394652058    0.07772701812575457    0.10244692256221394    0.12984300073854815    
  0.1519694420389067    0.16052468830598032    0.26952196589664795    0.2546105496652242    0.2139042837782274    
  0.16084056108255884    0.11249439674109137    0.07772702849224743    0.056213545835306925    0.044338314027628625    
  0.03862909613125458    0.036945226463408344    0.03862910194559873    0.04433830143619949    0.05621353499956848    
  0.07772702953858499    0.11249441488699274    0.1608405553500921    0.21390431380420585    0.2546105832147396    
  0.26952196589664795    0.362072567307949    0.35427428518805465    0.3155507461557754    0.2404542033693535    
  0.16084058803128368    0.10244688733505324    0.0673267820275672    0.04854370768902679    0.039728054788336936    
  0.03718192694329852    0.039728069213608865    0.04854371419321236    0.06732676525982012    0.10244689568665782    
  0.16084056717039077    0.2404542646057865    0.31555069923801526    0.3542743237173315    0.362072567307949    
  0.3035054449801474    0.3328277835505062    0.36550932467375874    0.3155507412547032    0.21390434524293703    
  0.12984299723843296    0.07954385877298241    0.05343201412080556    0.041491575021118846    0.038114095814533226    
  0.0414915747090188    0.05343200361256141    0.0795438161239455    0.12984300319878708    0.2139042719651766    
  0.31555077116734287    0.36550936179018856    0.332827815119935    0.3035054449801474    0.1624712951137127    
  0.2159746070923782    0.33282780396087147    0.3542743130505266    0.25461054624073326    0.15196943119073744    
  0.08937688859618363    0.05746141216501672    0.043115520671412    0.03910579685345011    0.04311551886194216    
  0.057461415313324604    0.0893768747097574    0.151969448904155    0.25461049359174764    0.3542742792585062    
  0.33282787360246413    0.21597466117780356    0.1624712951137127    0.10866202421275792    0.16247127950462112    
  0.30350544972277804    0.3620724940263137    0.26952195917125343    0.1605246397818494    0.09317075474640091    
  0.05902361118059638    0.04377478062745809    0.039527119761058764    0.043774796027316605    0.059023613818145054    
  0.09317074170663582    0.1605246523018276    0.2695219773055322    0.3620724816671928    0.3035054204041686    
  0.16247128604894107    0.10866202421275792    0.26397562327387303    0.30350540535021014    0.36295447969485145    
  0.33019927225064355    0.2266232554351881    0.13649460095551444    0.08239243112969097    0.05448597288279495    
  0.041808477807904    0.038239968829451326    0.04180849142877095    0.05448596638539779    0.08239239654290467    
  0.13649462208836316    0.22662321513951883    0.3301992791491497    0.3629544754483103    0.30350543653424006    
  0.26397562327387303    0.3035054247605482    0.33282779941439333    0.36550938589278814    0.3155507846752405    
  0.2139043486087619    0.12984298964114252    0.07954381058134694    0.053432028363709305    0.041491564219403275    
  0.03811408359678934    0.04149156721575558    0.05343201275962959    0.07954381908334482    0.12984301207963983    
  0.21390429547679454    0.31555075638748953    0.3655093612366989    0.3328278161280266    0.3035054247605482    
  0.36295449682343944    0.365509433679632    0.34330192336989135    0.2696604291518419    0.1802486061740741    
  0.11266025873085499    0.07220258971145621    0.05081905876893968    0.0408750699809838    0.03802669097486899    
  0.04087507577992178    0.05081906359635157    0.072202607191968    0.11266026279633272    0.18024857920255424    
  0.2696604823033391    0.3433019855286906    0.36550938841536157    0.36295449682343944    0.33019927415578987    
  0.31555077005317606    0.2696605160462373    0.2022513901234206    0.1378357611423208    0.0914545425504433    
  0.06324366675942862    0.04794789775347398    0.04068467772072625    0.038563942943868675    0.04068467434779656    
  0.047947887800021224    0.06324367681728503    0.09145454013525224    0.13783573352150563    0.20225139847727555    
  0.26966042002745505    0.3155507457057457    0.33019927415578987    0.22662326581665462    0.21390429537307495    
  0.18024862978663247    0.13783574318508465    0.09982898513051787    0.07247704205807083    0.055462439733692505    
  0.04611590127556344    0.04167624201849213    0.040367870921994904    0.041676241581265566    0.046115883299387095    
  0.05546243479041021    0.07247704577101086    0.09982894304290667    0.13783574544835886    0.18024861718538546    
  0.21390435213888692    0.22662326581665462    0.13649464514786178    0.12984302294551095    0.11266024454738031    
  0.09145455653059997    0.07247705350807608    0.05876832313576825    0.050398571705800185    0.04611587757925793    
  0.04433833391710368    0.04387064973275008    0.044338337611926376    0.046115881840199414    0.05039858634194478    
  0.05876833149090028    0.07247703302584904    0.09145453141735392    0.11266028263248588    0.12984298107260886    
  0.13649464514786178    0.08239240866645761    0.07954383471350374    0.07220261586083844    0.06324365740511569    
  0.05546243430387849    0.05039857938518208    0.04816693647608074    0.04794792759733398    0.04854368879139418    
  0.04888378959596465    0.04854367864639622    0.0479479344746511    0.04816694807546414    0.05039859244766336    
  0.055462426630313845    0.06324368188471344    0.07220258530785573    0.07954384937343628    0.08239240866645761    
  0.054485964997553496    0.053432005272179756    0.0508190461715529    0.047947899612159645    0.0461158988009702    
  0.04611586295488017    0.047947919131156654    0.05081901344618938    0.05343207553706742    0.05448594425255896    
  0.05343206748735407    0.05081902832661933    0.04794791537086252    0.04611587222833213    0.04611588853505909    
  0.0479478934504015    0.05081906656667699    0.05343204775219924    0.054485964997553496    0.04180848814960412    
  0.04149156101942286    0.04087505447251072    0.040684670099246284    0.041676235361959836    0.0443383248313924    
  0.04854367879058101    0.053432057660312726    0.0574613680183774    0.05902363070073784    0.05746135175530397    
  0.053432057947408906    0.048543671203879125    0.044338351534663666    0.041676214092093614    0.040684662150366986    
  0.04087508315159342    0.041491573054239    0.04180848814960412    0.038239958679806    0.03811407293962771    
  0.03802670381200371    0.03856393928936599    0.040367856467022296    0.04387064911411903    0.04888381435070249    
  0.054485954220676314    0.05902362975682143    0.06076727205612559    0.059023646043757996    0.05448593215434143    
  0.048883778183916406    0.0438706575141419    0.040367862467679885    0.03856394082589077    0.03802670783091493    
  0.0381140858737412    0.038239958679806    0.04180849016104567    0.041491542519625356    0.04087508588093108    
  0.04068466677606429    0.04167623370125305    0.044338338298572394    0.04854366632232249    0.05343206305273569    
  0.05746138349490435    0.05902365488693149    0.05746138469625601    0.05343205940131614    0.048543677952043424    
  0.04433834541509276    0.04167621339380672    0.04068466534036174    0.04087507485572909    0.04149155809615196    
  0.04180849016104567    0.05448595560285821    0.053432024882323154    0.05081905559402275    0.047947900845078543    
  0.04611590588774795    0.04611586890555584    0.04794791137265623    0.05081903033855694    0.053432057797730234    
  0.05448589737273138    0.053432053244230705    0.05081903433674537    0.047947921561950414    0.04611586495077211    
  0.04611588134558672    0.04794789799174215    0.05081909289634848    0.05343202208575643    0.05448595560285821    
  0.08239241398355038    0.07954382939312091    0.07220261237824993    0.06324367285474357    0.05546245250899965    
  0.05039856000472783    0.04816694353362502    0.047947931851233486    0.0485436837469138    0.048883782850788746    
  0.04854368185345052    0.04794792130848749    0.048166939976574466    0.05039859870555603    0.05546242686186397    
  0.06324369259275268    0.07220258360383296    0.07954384709373784    0.08239241398355038    0.1364946288172659    
  0.1298429889795647    0.1126602514158172    0.09145455602338513    0.07247705975777184    0.05876833163557315    
  0.0503985948377448    0.04611586598013131    0.04433836519208781    0.043870654094133384    0.04433835388049002    
  0.04611585995496156    0.050398585435983426    0.058768338627173275    0.0724770376743442    0.09145453300007468    
  0.11266024967372078    0.12984302590434066    0.1364946288172659    0.22662320968707506    0.21390431291690032    
  0.18024858082867956    0.1378357544024204    0.09982895588341743    0.07247704106905299    0.0554624370483435    
  0.04611590705595488    0.041676228724006247    0.04036785469940033    0.04167624642475411    0.046115901410265725    
  0.05546241970949017    0.07247704649257211    0.09982894205028249    0.13783573330827958    0.1802486094680938    
  0.21390433186822075    0.22662320968707506    0.33019932700504273    0.31555074408994616    0.2696604445239762    
  0.20225135957400864    0.13783575388512875    0.09145453029010345    0.06324366450743402    0.04794790343741959    
  0.04068466870997421    0.038563937674487195    0.04068466697693238    0.047947901036081174    0.06324364998448702    
  0.09145454058980947    0.13783573531842983    0.20225140649050308    0.26966040316870715    0.3155507741034239    
  0.33019932700504273    0.36295450452044453    0.36550935917298466    0.3433018723302193    0.2696604261193297    
  0.1802486164453963    0.11266027002603314    0.07220261955393595    0.050819045212136475    0.04087506809278284    
  0.038026714820286835    0.04087507624124051    0.050819051123943276    0.07220258891695451    0.11266025689109868    
  0.18024858480527128    0.26966044743432144    0.3433019217829737    0.36550939740611876    0.36295450452044453    
  0.30350545342722374    0.3328278616564287    0.36550938397799015    0.3155507994009501    0.2139043197679882    
  0.12984301239206572    0.07954383673302028    0.053432023144902994    0.04149157267745205    0.03811407171299587    
  0.041491570174346515    0.053432033450874994    0.07954383163625948    0.1298430328968676    0.21390429430719976    
  0.31555075238133967    0.36550939516856723    0.3328278384599064    0.30350545342722374    0.26397562327387303    
  0.30350540535021014    0.36295447969485145    0.33019927225064355    0.2266232554351881    0.13649460095551444    
  0.08239243112969097    0.05448597288279495    0.041808477807904    0.038239968829451326    0.04180849142877095    
  0.05448596638539779    0.08239239654290467    0.13649462208836316    0.22662321513951883    0.3301992791491497    
  0.3629544754483103    0.30350543653424006    0.26397562327387303    0.3652777974940941    0.3620725799660823    
  0.3301993637040876    0.2546957842823965    0.16979008477667648    0.10677292176352257    0.06898108671619671    
  0.048883761771802724    0.03950873160826666    0.03681571672892871    0.03950874483397378    0.048883757145581096    
  0.0689810741765238    0.10677294086550461    0.16979013625468456    0.25469579641638185    0.33019931870935476    
  0.36207252862707273    0.3652777974940941    0.3620724850048932    0.35427424285627784    0.3155507645117944    
  0.24045426668752468    0.16084060586999324    0.10244692272844423    0.0673267681956065    0.04854371063729916    
  0.03972807105004723    0.03718195216469175    0.03972806571469229    0.04854370696814181    0.0673267693989101    
  0.1024469198524982    0.16084056122864723    0.24045422158405105    0.3155507059467414    0.35427429630005125    
  0.3620724850048932    0.3301992879346867    0.3155507619067283    0.2696604701570607    0.2022513570195377    
  0.13783577340419786    0.09145453626607863    0.06324364225309391    0.0479479068888041    0.04068466838351213    
  0.03856394174967679    0.04068466785495469    0.04794788886345883    0.06324368113904758    0.09145454882508232    
  0.13783572070336914    0.20225134606221679    0.2696604788378112    0.3155507543112649    0.3301992879346867    
  0.2546957784189177    0.24045427064261352    0.202251401899045    0.15349888170743425    0.10964017594851203    
  0.07818561459800648    0.05876846686042193    0.04816698287602249    0.04314338785979306    0.04166749313112237    
  0.04314336727374871    0.048166971701787256    0.05876846936858159    0.07818561820042495    0.10964014525823176    
  0.15349889152030285    0.20225134105237882    0.24045423739445124    0.2546957784189177    0.1697900952739726    
  0.16084054147546273    0.13783575059419467    0.10964015783903888    0.08461939222162251    0.06673722348641434    
  0.05591954927226751    0.050398552336589006    0.04807205048137263    0.04744556707475044    0.04807203800652299    
  0.050398537211025156    0.055919546520831774    0.06673723742851374    0.0846193885609506    0.10964014616421024    
  0.13783577686342985    0.16084058692856723    0.1697900952739726    0.1067729580587168    0.10244691595064176    
  0.09145453089442872    0.07818562317968411    0.06673723681454692    0.05928664921413773    0.05591951043604238    
  0.05546247834634711    0.05621350695217226    0.05665396937960335    0.056213507247200846    0.0554624851069083    
  0.055919512592780087    0.05928665385178203    0.06673720408412881    0.07818563102421323    0.09145454962577693    
  0.10244691172167872    0.1067729580587168    0.06898108710135128    0.06732678659476382    0.0632436767497906    
  0.05876844795469849    0.05591956157627182    0.05591951069802177    0.05876848139912034    0.06324363704265758    
  0.06732682126554194    0.06898102368509282    0.06732680646420129    0.06324362624154584    0.058768499965652185    
  0.05591951468344643    0.055919530522312945    0.058768471561686825    0.06324366353733314    0.06732678189725538    
  0.06898108710135128    0.04888376463473796    0.048543699245642453    0.047947879345158664    0.04816697926238766    
  0.050398542864658294    0.055462456018457465    0.06324362234331185    0.07220264138613364    0.07954379578968933    
  0.08239245864987538    0.07954381245159484    0.07220262221932963    0.06324363912480499    0.05546246885616914    
  0.0503985330028546    0.048166977615718747    0.04794789413767721    0.04854372904953247    0.04888376463473796    
  0.03950873380562536    0.03972805178462541    0.04068466030474073    0.04314337534798221    0.04807204506715673    
  0.05621350846339701    0.06732679660164766    0.07954380303992047    0.08937695224967776    0.09317068346618408    
  0.0893769299254761    0.0795438062642041    0.06732681322209204    0.056213525870889965    0.04807202331023438    