#     DFTpy    
  CRYSTAL 
    
  PRIMVEC    
  3.686689655172413    0.0    0.0    
  0.0    3.686689655172413    0.0    
  0.0    0.0    3.686689655172413    
  PRIMCOORD    
  2    1    
  Si    0.0    0.0    0.0    
  Si    1.8433448275862065    1.8433448275862065    1.8433448275862065    
  BEGIN_BLOCK_DATAGRID_3D    
  3d_datagrid_density    
  BEGIN_DATAGRID_3D#0    
  17    17    17    
  0.0    0.0    0.0    
  3.686689655172413    0.0    0.0    
  0.0    3.686689655172413    0.0    
  0.0    0.0    3.686689655172413    
  0.05877184555775193    0.10263485601320568    0.2503208166719736    0.3668290945761019    0.3094700492913258    
  0.20015501223999804    0.12640836655099308    0.09005445171443123    0.07938059284549902    0.09005440593303429    
  0.12640852249025214    0.20015474023891452    0.30947039701663537    0.36682875179560304    0.25032097924034397    
  0.10263477036747676    0.05877184555775193    0.10263473150749124    0.15267139785454256    0.29061345779759734    
  0.36831182257894013    0.2960724270054261    0.19131072072044605    0.12240231756430661    0.08837577656629257    
  0.07835112578646018    0.08837584532086584    0.1224021225150068    0.19131096735343978    0.29607214908969237    
  0.3683121286370437    0.290613218866235    0.1526714581731    0.10263473150749124    0.25032111520384154    
  0.290613262242847    0.3603304443970586    0.34865553975874664    0.25758949119281027    0.16850252291665316    
  0.11229938272384615    0.08422753949743204    0.07588116361617211    0.08422751702833424    0.11229953219045033    
  0.16850227218449665    0.25758975631464515    0.3486552374521976    0.3603306739127389    0.290613173471277    
  0.25032111520384154    0.3668286660981455    0.3683120719543019    0.3486554577653894    0.2846354557893045    
  0.20395398618862137    0.13994545143500928    0.1000583489307291    0.07964162111095352    0.0735054722723379    
  0.07964171497083464    0.10005818578394228    0.13994563164211585    0.20395364308001654    0.2846357517700633    
  0.34865532717395675    0.3683121308934452    0.3668286660981455    0.3094703921617405    0.29607227899732763    
  0.25758959725173475    0.20395394691088814    0.15230563648073095    0.11364517205240704    0.0891999703728574    
  0.07642349026558921    0.07256805964937929    0.07642344512083953    0.08920009111976039    0.11364495419596535    
  0.15230585958064216    0.20395375011823805    0.2575897403611355    0.29607215075815235    0.3094703921617405    
  0.20015467604584336    0.1913108811929126    0.16850246178091488    0.139945397633142    0.11364520862730727    
  0.09405159678763574    0.08173392483035968    0.07539375802246574    0.07350559820183543    0.07539385738810035    
  0.08173374841024726    0.09405179347020143    0.11364498548880775    0.1399456390080683    0.16850231049560366    
  0.1913109427496459    0.20015467604584336    0.12640850070659335    0.12240231413773589    0.11229926884525308    
  0.1000584832342679    0.0891998475825778    0.08173399036380755    0.07782290221790371    0.07627087381118833    
  0.07588091675478244    0.07627083324015856    0.07782304794074628    0.0817338170559107    0.08920003352024322    
  0.10005832526249446    0.11229947450381023    0.1224022260035403    0.12640850070659335    0.09005442762380876    
  0.0883756371195616    0.08422771691378782    0.07964137893147025    0.07642367959165407    0.07539357869040246    
  0.0762709985927817    0.0777137372808655    0.07835142983317199    0.07771378605040728    0.07627084016404138    
  0.07539374281511751    0.07642350924533425    0.07964153148112377    0.0842276421293655    0.08837571419316137    
  0.09005442762380876    0.07938045268112301    0.07835137339962665    0.0758808778600542    0.07350581739949323    
  0.07256774935019591    0.07350590977705598    0.07588074285368372    0.0783515600213588    0.07938025207947194    
  0.07835153176524648    0.07588083818259876    0.07350573642720377    0.07256791651166426    0.07350565512138825    
  0.0758810199303859    0.07835131479284609    0.07938045268112301    0.09005461820647959    0.08837547543817106    
  0.0842278962250419    0.07964121173921619    0.07642387048170236    0.07539345312076765    0.07627114485757265    
  0.07771354220831639    0.07835158135387701    0.07771361420493027    0.07627103729540942    0.07539361328040213    
  0.07642367260026554    0.07964137296961378    0.08422777524749495    0.08837553465509844    0.09005461820647959    
  0.1264081422847833    0.12240266336723829    0.11229897749385971    0.10005881040279108    0.08919950044365586    
  0.08173428252845331    0.07782263601003739    0.07627119209938965    0.0758806462550916    0.07627115237352917    
  0.07782275798548223    0.08173413180721846    0.0891997108701186    0.10005865973337119    0.1122991146664694    
  0.12240259051297572    0.1264081422847833    0.2001552995172876    0.19131025840656485    0.16850302190786823    
  0.13994486114248084    0.11364569153339174    0.09405118564778933    0.08173428686109495    0.07539340849490249    
  0.07350599234359714    0.07539345861474427    0.08173413805643714    0.09405134316741559    0.11364547836524767    
  0.13994508378123208    0.16850290909053203    0.19131031449933159    0.2001552995172876    0.30946961857236666    
  0.2960730394897343    0.2575888408150727    0.2039545853181935    0.15230503444150537    0.11364566313279895    
  0.0891995074069803    0.07642390060558674    0.07256766088200353    0.07642384677439067    0.08919964655369915    
  0.11364544509150919    0.15230529135472204    0.20395435361969372    0.25758907716389995    0.2960729384575183    
  0.30946961857236666    0.36682935532303745    0.3683113021716142    0.34865623188517314    0.2846347140017415    
  0.20395452936700845    0.1399449008534807    0.10005879575074564    0.07964121580894754    0.07350585384346153    
  0.07964134205219114    0.10005861650132515    0.13994514311266446    0.20395430139820114    0.2846350355253063    
  0.34865601684615416    0.3683114066682987    0.36682935532303745    0.25032054959730954    0.29061379894014305    
  0.3603298071948136    0.3486561223062226    0.257588999655802    0.1685029390398768    0.11229902791470191    
  0.08422783854744309    0.07588086912425418    0.08422780124280008    0.11229917371864719    0.16850268469063603    
  0.25758929059946284    0.3486558770494342    0.3603300384011855    0.29061368891522094    0.25032054959730954    
  0.10263488472315094    0.15267118629392867    0.29061368786756947    0.3683115344931362    0.29607275254087584    
  0.19131047038120075    0.12240251870518844    0.08837559640012174    0.0783512993916063    0.08837565359354287    
  0.1224023092080221    0.1913107113717304    0.29607244131919547    0.3683117928405901    0.2906135419496263    
  0.15267126326172153    0.10263488472315094    0.05877184555775193    0.10263485601320568    0.2503208166719736    
  0.3668290945761019    0.3094700492913258    0.20015501223999804    0.12640836655099308    0.09005445171443123    
  0.07938059284549902    0.09005440593303429    0.12640852249025214    0.20015474023891452    0.30947039701663537    
  0.36682875179560304    0.25032097924034397    0.10263477036747676    0.05877184555775193    0.10263475613008784    
  0.15267131871051137    0.2906135605717487    0.3683116325913359    0.2960726280243902    0.19131065116777046    
  0.12240237343130991    0.08837570488131563    0.07835118103304281    0.08837579858077528    0.122402191165931    
  0.1913108518599703    0.2960723373665956    0.36831199899937633    0.29061335191461146    0.1526713912200552    
  0.10263475613008784    0.1526714544435959    0.20343515523869565    0.3223370886925439    0.36510654846359125    
  0.2831399530067745    0.1834355507435723    0.11904348761782999    0.0871475108891182    0.07771401484299939    
  0.08714744171005563    0.11904363532833012    0.1834353125528339    0.28314032877685635    0.3651062532813879    
  0.32233731840388136    0.20343503411243213    0.1526714544435959    0.290613177755554    0.3223372453211873    
  0.36778659211795034    0.3378425061410498    0.24670227992429783    0.1629875917604334    0.11049400950952379    
  0.08414239035027164    0.07627059442078224    0.08414251792955327    0.11049382947134574    0.16298776829956826    
  0.2467020026377149    0.33784284774561624    0.3677863693612026    0.3223373420812258    0.290613177755554    
  0.3683121522758405    0.3651062619159563    0.3378425732196513    0.2730663337132368    0.19698466580585966    
  0.1374291562089121    0.10026833328311384    0.081161625062579    0.07539392093779418    0.08116157831383806    
  0.10026845088267745    0.1374288925168668    0.19698489202985633    0.27306599151366334    0.33784285710321244    
  0.3651061722025481    0.3683121522758405    0.2960720655076138    0.28314019992091394    0.24670220655413924    
  0.1969846673068357    0.1495999705123206    0.11413647356428806    0.09168077217736557    0.07995463410837603    
  0.07642340113102325    0.07995471224197356    0.09168060201347061    0.11413665091175355    0.14959972053515017    
  0.19698491731762877    0.246702011561938    0.28314039141557495    0.2960720655076138    0.19131089909399393    
  0.18343545125442928    0.16298754299022225    0.13742921343311926    0.11413639062430377    0.09699812118335764    
  0.08642826359726635    0.08116174858067325    0.07964149513867244    0.08116168976392625    0.08642837829570399    
  0.09699791744506539    0.11413662528845592    0.1374289981699396    0.1629877590300895    0.1834353302835272    
  0.19131089909399393    0.12240221713884149    0.11904349590577061    0.11049409173357355    0.10026818062208702    
  0.09168092327201242    0.08642816296776369    0.08439339318785374    0.0841421793359327    0.08422769739373495    
  0.08414227735623636    0.08439327499513415    0.08642832058523159    0.09168073054018433    0.1002683724074178    
  0.1104939868266697    0.11904353626618333    0.12240221713884149    0.08837567090444241    0.08714761820114705    
  0.08414218407785613    0.0811618865379501    0.07995436687537705    0.08116194508245966    0.08414207216687038    
  0.08714784504362602    0.0883754534571907    0.08714776041156956    0.0841421653216566    0.08116175295047717    
  0.07995454092614047    0.08116173249830858    0.08414235751119363    0.08714756278880302    0.08837567090444241    
  0.0783512698704501    0.07771380694061594    0.0762709175565761    0.07539357557620975    0.07642380897804293    
  0.07964121710785078    0.08422796529242726    0.08837536852529318    0.0900547222035494    0.0883754456874392    
  0.08422781692631995    0.07964134559040745    0.0764236055182356    0.07539373407258744    0.07627081333760592    
  0.0777138813619996    0.0783512698704501    0.0883755256759568    0.08714778803835378    0.08414202250608784    
  0.08116202737943733    0.07995420489645308    0.08116210362052169    0.08414186121284678    0.0871480077272544    
  0.08837529090605557    0.08714795315606862    0.08414200069586855    0.08116197402138157    0.07995437304785143    
  0.0811618815518854    0.08414216735827221    0.08714770671855869    0.0883755256759568    0.12240259418199592    
  0.11904311946576014    0.11049450281912813    0.10026783399968392    0.0916812460070615    0.08642788371903744    
  0.0843937607986888    0.08414186976939753    0.08422800464184747    0.08414195283735425    0.0843936265386725    
  0.08642801457198622    0.09168106505314982    0.10026802668746079    0.11049434452813656    0.1190431953122699    
  0.12240259418199592    0.19131032814213722    0.18343601132476814    0.16298698569935288    0.13742968901597144    
  0.11413596865535756    0.09699853935872008    0.08642785155648695    0.08116216697014837    0.07964112142980673    
  0.08116210252758603    0.0864279662122885    0.09699835257967569    0.11413616993405543    0.13742944805875246    
  0.16298719316792598    0.183435887965558    0.19131032814213722    0.2960728470328708    0.2831394375534053    
  0.2467029289448864    0.19698397172829954    0.14960051375807568    0.11413595405982135    0.09168121353472997    
  0.0799542160937019    0.07642384131841558    0.07995428095002033    0.09168107370818249    0.11413612746337269    
  0.1496002842911823    0.19698433231095985    0.24670271894654996    0.2831395977663845    0.2960728470328708    
  0.36831129638961096    0.36510710812885794    0.3378418127347357    0.2730670171467804    0.19698406710649632    
  0.13742959468140975    0.100267896626493    0.0811620154467144    0.07539355210527854    0.08116197571941981    
  0.10026801869076363    0.13742944284647798    0.1969843598893757    0.27306673037059975    0.3378421266678646    
  0.3651068572310617    0.36831129638961096    0.2906136701283566    0.3223366938081219    0.3677871623720632    
  0.3378419259213325    0.24670279767126468    0.16298714753228816    0.11049437438770689    0.08414209156930366    
  0.07627090122454676    0.08414219020828052    0.11049422358046525    0.1629873648993361    0.24670247054005937    
  0.3378422587829304    0.367786870259914    0.32233682937097746    0.2906136701283566    0.15267124174830532    
  0.20343547132712828    0.3223367685374605    0.3651069407488849    0.28313967012616637    0.18343578169657762    
  0.11904330815580719    0.08714769771512289    0.07771388186420902    0.0871476105986708    0.11904340346386093    
  0.18343553834553925    0.28314001313037557    0.3651064999192397    0.3223370599609339    0.20343533163970343    
  0.15267124174830532    0.10263475613008784    0.15267131871051137    0.2906135605717487    0.3683116325913359    
  0.2960726280243902    0.19131065116777046    0.12240237343130991    0.08837570488131563    0.07835118103304281    
  0.08837579858077528    0.122402191165931    0.1913108518599703    0.2960723373665956    0.36831199899937633    
  0.29061335191461146    0.1526713912200552    0.10263475613008784    0.25032097087513544    0.29061341714478256    
  0.36033035577305267    0.34865562964517055    0.25758943338445234    0.16850254645168727    0.11229932106203919    
  0.08422759100221747    0.07588113114057225    0.08422754426112844    0.11229947263929271    0.16850229069580158    
  0.25758972756594645    0.34865528054964484    0.3603305744224042    0.2906132560707442    0.25032097087513544    
  0.29061317826493194    0.3223372800394257    0.3677864987844512    0.33784251354892175    0.2467022441110492    
  0.16298757979055456    0.11049401815263278    0.08414243788456773    0.07627058992654114    0.0841425007803774    
  0.11049383803596804    0.1629877950007122    0.24670194483893243    0.3378428777692    0.3677863006502816    
  0.3223373632525181    0.29061317826493194    0.3603306784004324    0.3677863406237129    0.359773923540593    
  0.30087766773304464    0.21725229179744732    0.14876320221354208    0.10612915490857522    0.08439313393696866    
  0.07782323320285664    0.08439310586846896    0.10612930211105602    0.1487629721662463    0.21725254859715257    
  0.3008773920617203    0.3597742326459175    0.3677861921391938    0.3603306784004324    0.348655196357332    
  0.33784277975911825    0.300877592699711    0.24094266612210732    0.17887204192911046    0.13152105246426526    
  0.10184581648900867    0.08642845638867347    0.08173367610938806    0.08642854924867313    0.10184565024977141    
  0.13152123422870837    0.1788717703340242    0.24094291772294088    0.3008774627111159    0.3378429035083875    
  0.348655196357332    0.2575897308207369    0.24670207556766396    0.21725233865443955    0.17887202875538064    
  0.1431881597354745    0.11669652600049304    0.10012252739287505    0.09168073617743198    0.08920003680427926    
  0.09168068023427296    0.10012267022088493    0.11669632655660903    0.143188396071266    0.17887184432302927    
  0.21725256737203644    0.24670195123993122    0.2575897308207369    0.1685022312106713    0.1629877122936865    
  0.148763175020293    0.13152101551222725    0.11669657737081897    0.10680670967950628    0.10184596802803021    
  0.10026824284555111    0.10005837912775396    0.10026835619248971    0.10184579168764538    0.1068069127435961    
  0.11669635701443332    0.13152124002803814    0.1487630178133651    0.16298777496747974    0.1685022312106713    
  0.11229945510074338    0.11049401896839021    0.10612904491273861    0.10184592357063094    0.10012241821946821    
  0.10184603932480536    0.10612887226708047    0.11049422542719022    0.11229916664164219    0.11049419549145177    
  0.10612902126242742    0.10184583700317543    0.10012260137957667    0.10184577279967547    0.10612925237943523    
  0.11049392398472992    0.11229945510074338    0.08422757397515815    0.08414230974482953    0.08439331512019668    
  0.0864281936619831    0.09168094892398881    0.10026801985993997    0.1104943666874027    0.11904322423568199    
  0.122402540629228    0.11904329947080332    0.11049417509705606    0.10026821335961691    0.09168077924786323    
  0.08642835750268517    0.0843932339973229    0.08414238050322771    0.08422757397515815    0.0758809869334656    
  0.0762708344666017    0.07782294678367749    0.08173404677684927    0.08919969274480567    0.10005873520300415    
  0.11229893582995322    0.12240272672513063    0.1264080815657045    0.12240267654162205    0.11229907097533412    
  0.10005852947539086    0.08919987410155968    0.08173388654594359    0.07782307677586568    0.07627077430708047    
  0.0758809869334656    0.08422775449660508    0.0841421483362153    0.08439349301029342    0.08642803257703091    
  0.09168115105838531    0.10026786755305601    0.11049453246052748    0.11904299615770428    0.12240273104092471    
  0.11904308329510756    0.11049439643664519    0.10026805824287423    0.09168093796380757    0.08642820195126233    
  0.0843933767377462    0.08414218762861154    0.08422775449660508    0.11229908956730006    0.11049435961404291    
  0.10612871698038229    0.10184628134259309    0.10012205082899037    0.10184638129902725    0.10612853574362685    
  0.11049462273955737    0.11229885555243149    0.11049452831252742    0.10612870683630879    0.10184618612017457    
  0.10012228349924819    0.10184611769720951    0.10612888088794949    0.11049426046414927    0.11229908956730006    
  0.16850282031266506    0.16298710865456292    0.14876374251398997    0.1315204930900357    0.11669706844605379    
  0.10680626203490777    0.10184639080118753    0.10026781485798766    0.10005881105468448    0.10026788337720359    
  0.1018462089714931    0.10680644487090568    0.11669685413182626    0.13152069414252632    0.14876360765258695    
  0.16298719669701628    0.16850282031266506    0.2575890115817274    0.24670278277344784    0.21725166305178298    
  0.178872626606945    0.14318757820608188    0.11669703866761229    0.10012205914617946    0.09168119142822818    
  0.08919958945920448    0.09168113551996436    0.10012217649681143    0.1166968137324615    0.143187815543304    
  0.17887243177800397    0.2172519189412863    0.24670265476417907    0.2575890115817274    0.34865592635120607    
  0.337842072977957    0.3008782991558309    0.24094203208033843    0.17887259986236126    0.13152053196721877    
  0.10184627546103991    0.08642804366918438    0.08173407431648931    0.08642813364139426    0.10184606897029169    
  0.13152077820317443    0.1788723889053171    0.2409423006497193    0.3008781433958782    0.3378421203270398    
  0.34865592635120607    0.3603300602078467    0.3677869767579913    0.35977334338497474    0.3008782404851079    
  0.21725183981522303    0.14876361614814512    0.1061288088032508    0.08439345735852373    0.07782291708428225    
  0.08439339808611701    0.10612894221953711    0.14876337098077455    0.2172520899134319    0.30087798640742897    
  0.3597736176586948    0.3677868268823777    0.3603300602078467    0.29061344866980093    0.3223369992819491    
  0.3677868032466803    0.33784225773625776    0.24670252423774644    0.16298733341263885    0.11049420408212683    
  0.0841422578023312    0.07627075296556039    0.0841423305699039    0.11049401688918076    0.16298757637105626    
  0.24670222056311664    0.3378425490695673    0.3677866277620395    0.3223370986911339    0.29061344866980093    
  0.25032097087513544    0.29061341714478256    0.36033035577305267    0.34865562964517055    0.25758943338445234    
  0.16850254645168727    0.11229932106203919    0.08422759100221747    0.07588113114057225    0.08422754426112844    
  0.11229947263929271    0.16850229069580158    0.25758972756594645    0.34865528054964484    0.3603305744224042    
  0.2906132560707442    0.25032097087513544    0.3668285018250396    0.36831212097525057    0.34865543267097693    
  0.2846354489401314    0.20395390479702943    0.1399454923878793    0.10005830087698281    0.07964165535387409    
  0.07350543831952601    0.0796417480656366    0.10005814869687135    0.13994567077514392    0.20395367531748945    
  0.2846357443857502    0.3486552097546022    0.36831220684865756    0.3668285018250396    0.36831226080439033    
  0.36510611485577543    0.33784272127199116    0.27306619810048066    0.1969847395331251    0.13742897808132534    
  0.1002684216412402    0.08116153933820394    0.07539400704869009    0.08116147012554611    0.10026856338944025    
  0.13742880401401336    0.19698506605049348    0.27306591415856263    0.337842999991967    0.3651059241577836    
  0.36831226080439033    0.3486550243142342    0.337842889813182    0.3008774869972423    0.24094275169687634    
  0.17887190224969296    0.1315211669974709    0.10184571735137112    0.08642850677321855    0.08173358400043304    
  0.08642862570574229    0.10184554791022078    0.13152135056489067    0.17887173143476678    0.2409431114789445    
  0.3008772808784366    0.3378429874844027    0.3486550243142342    0.2846358791957307    0.27306591410957237    
  0.24094287199854936    0.19764880989881725    0.15653185873998343    0.12590036146077188    0.10680695242171563    
  0.09699789227792015    0.09405188711294454    0.09699781174861034    0.10680704724716653    0.1259001311931095    
  0.15653206626044808    0.1976485238991017    0.24094307892506847    0.27306583688578195    0.2846358791957307    
  0.20395347361447574    0.1969849804753527    0.17887185388174334    0.15653183328964942    0.13696449573223907    
  0.1236755469250933    0.11669643673110924    0.11413662254476618    0.11364497326827139    0.11413669115912918    
  0.11669628752200031    0.12367573051627545    0.13696428859178644    0.15653210549410354    0.17887168517030008    
  0.19698515511519366    0.20395347361447574    0.13994572604813016    0.13742893175638732    0.13152116207646203    
  0.12590044083056945    0.12367545246687248    0.12590051102988206    0.13152099104577467    0.13742916520057805    
  0.13994544449220123    0.13742909503787487    0.13152111938760713    0.12590029437768718    0.12367569621632732    
  0.12590022300963696    0.13152134161441045    0.13742879566437058    0.13994572604813016    0.10005815563094193    
  0.10026842803603814    0.10184579057392548    0.10680676252952057    0.11669661995177619    0.13152085207236067    
  0.1487633901559065    0.16298735299976141    0.16850255023774288    0.16298751086828422    0.14876324823363743    
  0.13152104496480654    0.11669640053202356    0.10680696906567094    0.10184569147686687    0.10026848061838048    
  0.10005815563094193    0.07964163956809489    0.08116164850421557    0.08642830630817176    0.0969981565607036    
  0.11413630659978358    0.13742940423208608    0.1629872426114262    0.18343587313428597    0.19131045951564837    
  0.18343575320120842    0.1629873667771692    0.1374291468833356    0.1141365097660803    0.09699796246368374    
  0.08642847661209486    0.08116156710541282    0.07964163956809489    0.07350552330555216    0.07539379310933228    
  0.08173392817897182    0.09405149618777754    0.11364542073870657    0.13994506260420808    0.1685028871230444    
  0.19131032558791974    0.20015523519647954    0.19131044181790677    0.16850269572660068    0.13994523000108322    
  0.1136452087681759    0.09405167732780977    0.08173380837591147    0.07539386531192074    0.07350552330555216    
  0.07964147799550861    0.08116181718673869    0.0864281389587814    0.0969983019073629    0.11413612925219725    
  0.13742962228907077    0.16298699479631243    0.1834360998982571    0.19131017967432548    0.18343604608431055    
  0.16298714601766356    0.13742942603080816    0.11413631832350138    0.09699813607294268    0.08642829040889698    
  0.08116172118172217    0.07964147799550861    0.1000585050574029    0.1002680839860074    0.10184616484408052    
  0.10680642256173434    0.11669698507995703    0.13152046013672086    0.14876383857763573    0.16298695629874765    
  0.16850298087181179    0.16298707918464891    0.14876365808466563    0.13152067725695965    0.11669679056076404    
  0.10680662424062388    0.10184604399591414    0.10026815827514074    0.1000585050574029    0.13994521199365664    
  0.1374294002701836    0.13152064054867654    0.12590089478880018    0.12367501179182458    0.12590097259523872    
  0.13152046937240985    0.137429669773901    0.13994494479313657    0.13742958275737688    0.1315206022549176    
  0.125900758651597    0.12367520370258209    0.1259006839772328    0.13152083935252776    0.13742929410125143    
  0.13994521199365664    0.20395414621440244    0.19698435611540213    0.17887253447420748    0.15653125675732008    
  0.13696505143441293    0.12367500243256724    0.11669694054654596    0.11413611633131115    0.11364548684369045    
  0.1141362250753402    0.11669679284593855    0.1236752040896757    0.13696483872866463    0.1565315392998617    
  0.17887229516076103    0.1969844363044647    0.20395414621440244    0.284635193679564    0.27306665494272264    
  0.24094221979288824    0.19764939016766922    0.1565313239993052    0.12590082562844204    0.1068064700728794    
  0.09699829699648084    0.09405148324871097    0.09699823642389514    0.10680659459954976    0.12590063697999984    
  0.1565315944213594    0.19764918400978976    0.24094243926380102    0.2730664799838304    0.284635193679564    
  0.3486555599525968    0.33784236161635867    0.3008780219115291    0.24094226391031362    0.17887239422528936    
  0.13152077049516692    0.10184603905378722    0.08642820411145631    0.08173390155309088    0.08642829079615309    
  0.10184590601712867    0.13152097798415427    0.17887212946175893    0.24094259487129904    0.30087784994388167    
  0.3378424778164297    0.3486555599525968    0.36831200661735863    0.3651064947103698    0.3378424006114986    
  0.27306647839983356    0.19698455176864327    0.1374292085059677    0.10026825931799252    0.08116171948634832    
  0.07539385428480631    0.08116164338613084    0.10026836155193787    0.13742898459350045    0.19698479783855471    
  0.2730661839783852    0.3378426887045371    0.36510636856020373    0.36831200661735863    0.3668285018250396    
  0.36831212097525057    0.34865543267097693    0.2846354489401314    0.20395390479702943    0.1399454923878793    
  0.10005830087698281    0.07964165535387409    0.07350543831952601    0.0796417480656366    0.10005814869687135    
  0.13994567077514392    0.20395367531748945    0.2846357443857502    0.3486552097546022    0.36831220684865756    
  0.3668285018250396    0.3094707299282565    0.2960720348757681    0.257589862556742    0.20395369842138877    
  0.15230584635178251    0.1136449544622889    0.0892001180427868    0.07642331348366957    0.07256823588903012    
  0.07642327145127813    0.08920024883563857    0.11364475291890987    0.15230612210310734    0.20395343339897246    
  0.2575900712596607    0.2960718464713154    0.3094707299282565    0.2960717738779785    0.28314060205728464    
  0.2467018434207357    0.19698502806206294    0.14959960963601796    0.11413673942689388    0.09168053168390798    
  0.07995485786666069    0.07642319196258494    0.07995492589360668    0.09168038807950128    0.11413695826418889    
  0.14959941132913537    0.19698526671007768    0.2467016452176504    0.2831407462919283    0.2960717738779785    
  0.2575901929747715    0.24670169501164707    0.21725269423511792    0.17887169205521025    0.14318841901381701    
  0.1166963188592785    0.10012275751377944    0.09168047832408292    0.08920025892501385    0.09168046369027952    
  0.10012291019589317    0.116696089507316    0.14318863873272866    0.1788715122927342    0.21725290992697197    
  0.246701590219059    0.2575901929747715    0.2039533329566317    0.196985234266055    0.17887165720480164    
  0.15653206798164895    0.13696433825832718    0.12367571210261824    0.11669630857942168    0.11413675440208024    
  0.11364480733658434    0.1141368713068884    0.11669612730018368    0.12367588944115211    0.13696407213079698    
  0.15653230281321817    0.17887154899535035    0.1969853005952922    0.2039533329566317    0.1523061059679655    
  0.14959953495844786    0.14318849493919247    0.1369643308080362    0.13444974113114389    0.13696445592761355    
  0.14318829917573153    0.14959975855703253    0.15230586271038898    0.14959971062559313    0.14318843026467326    
  0.1369642210946716    0.1344499710825311    0.1369641491376451    0.14318863495440762    0.1495994170346341    
  0.1523061059679655    0.11364473054290682    0.11413687495201932    0.11669629135574301    0.12367566854799787    
  0.1369644822291917    0.15653173575648618    0.17887207588932105    0.19698472435467504    0.20395383582464477    
  0.19698484809971498    0.17887187452467054    0.15653199622238684    0.13696424179703395    0.12367588368360799    
  0.1166961502469875    0.11413692736868128    0.11364473054290682    0.08920023366135278    0.09168054447989575    
  0.10012265242835605    0.11669643521508018    0.14318812673142356    0.17887221381598625    0.21725201447269846    