#     DFTpy    
  CRYSTAL 
    
  PRIMVEC    
  6.366206896551724    0.0    0.0    
  0.0    6.366206896551724    0.0    
  0.0    0.0    6.366206896551724    
  PRIMCOORD    
  8    1    
  Si    0.0    0.0    0.0    
  Si    1.591551724137931    1.591551724137931    1.591551724137931    
  Si    0.0    3.183103448275862    3.183103448275862    
  Si    1.591551724137931    4.774655172413793    4.774655172413793    
  Si    3.183103448275862    0.0    3.183103448275862    
  Si    4.774655172413793    1.591551724137931    4.774655172413793    
  Si    3.183103448275862    3.183103448275862    0.0    
  Si    4.774655172413793    4.774655172413793    1.591551724137931    
  BEGIN_BLOCK_DATAGRID_3D    
  3d_datagrid_density    
  BEGIN_DATAGRID_3D#0    
  29    29    29    
  0.0    0.0    0.0    
  6.366206896551724    0.0    0.0    
  0.0    6.366206896551724    0.0    
  0.0    0.0    6.366206896551724    
  0.0709021324001644    0.12047394052166845    0.2829277300872209    0.4047645177277319    0.33148850105147953    
  0.2026676177258321    0.1156043451393007    0.06905330099876016    0.045619255460968774    0.033881177200002645    
  0.02782450568741022    0.0246044294624617    0.02286929696215364    0.021996448304698327    0.02173587842454913    
  0.021996495436971544    0.022869213037582267    0.024604568064895308    0.027824334298532167    0.03388139414490248    
  0.04561897571333535    0.06905364894766595    0.11560391342240638    0.2026681470898002    0.3314879344944048    
  0.4047649967239374    0.2829274682186651    0.12047406146310974    0.0709021324001644    0.12047399149396532    
  0.176327576478547    0.32749731130300597    0.4075544309712696    0.31863187858680986    0.19487357363171928    
  0.11293311598351098    0.06872382379426738    0.04610175442447374    0.03455307791525086    0.028444510849653735    
  0.025106569889223957    0.023250662243534538    0.022291134724505744    0.0219964880180896    0.02229109608257167    
  0.023250742794516596    0.025106438069722806    0.02844469614870039    0.034552849580997115    0.04610202226726176    
  0.06872345876055738    0.1129335662493154    0.19487305589034823    0.31863244788315304    0.40755398695703804    
  0.3274976249732205    0.17632745986844145    0.12047399149396532    0.2829275374059488    0.32749739941170447    
  0.4036971905750177    0.3872221436827605    0.27958772704285606    0.17395273487461876    0.1059120204133494    
  0.06795795920524414    0.04758938763961884    0.03657736865512748    0.03033139622859921    0.026648960061294837    
  0.024450181594323137    0.0232506728664154    0.022869259743018094    0.02325072903678115    0.024450085179516797    
  0.026649103760997394    0.030331217333719063    0.036577604012111256    0.047589087035437974    0.06795829685081876    
  0.10591163272520779    0.1739532192125437    0.27958720525129427    0.3872225750002055    0.40369688316791885    
  0.3274975413259011    0.2829275374059488    0.4047648540337288    0.4075542000527545    0.38722220303061067    
  0.3154730421555943    0.222377487349671    0.14637012729995008    0.09680947671781603    0.06734507206753226    
  0.0502098934449221    0.03999075937179676    0.033545013484712255    0.029348783596344075    0.02664899528744307    
  0.025106516293004384    0.024604519173372426    0.02510645862118785    0.026649086477284728    0.029348637968300777    
  0.03354520800288654    0.039990512950713306    0.05021019111100563    0.06734472026069574    0.09680988133793278    
  0.1463696749673846    0.22237792712166116    0.31547259103862346    0.3872226047109973    0.40755405534172306    
  0.4047648540337288    0.3314881127375847    0.3186322273758672    0.27958748445398357    0.22237760017655994    
  0.16482713194703358    0.119316900433453    0.08785535295818615    0.06734471752245368    0.053959965166847215    
  0.04480337638500672    0.03824749656936978    0.03354505853140669    0.030331336743269367    0.028444611237954394    
  0.027824382906428573    0.02844466470773538    0.030331227733802795    0.03354519113809343    0.038247303395449773    
  0.04480362449521492    0.053959667023493786    0.0673450622172548    0.08785497095257415    0.11931730118830723    
  0.16482670413402906    0.22237796526220804    0.2795872412218804    0.3186323783420146    0.3314881127375847    
  0.2026680595836479    0.1948731874483709    0.17395299995254815    0.14636995038351763    0.11931696151631943    
  0.09705767539763896    0.08029375037288759    0.06795830208425718    0.058561976156088415    0.05098036727461608    
  0.04480338414247783    0.03999068146282793    0.03657747648937476    0.03455293539698706    0.03388133132027823    
  0.03455287946677517    0.03657758684053061    0.039990524579300704    0.04480361616882156    0.05098010404376386    
  0.05856228312480433    0.06795794041931554    0.08029413375707112    0.09705732137516118    0.11931730676758032    
  0.1463696411781517    0.17395324661023936    0.1948730783081423    0.2026680595836479    0.11560394627431284    
  0.11293347941410284    0.10591176258699014    0.09680968038178822    0.08785520381781024    0.08029382542329515    
  0.0741150862197184    0.06872350127055186    0.06358992117260098    0.05856200340484834    0.053959893060231155    
  0.05020999722937876    0.047589230376064495    0.04610193190640743    0.04561902508180245    0.04610199039547327    
  0.047589101627479855    0.050210191683912775    0.053959640119399827    0.05856230628877642    0.06358959516086689    
  0.06872383068703576    0.07411473887091254    0.08029416055905311    0.08785490644336916    0.09680993514604562    
  0.10591157429093168    0.11293355659647739    0.11560394627431284    0.06905368186281235    0.06872349111918594    
  0.06795824031569155    0.06734487637693935    0.0673448842743743    0.06795820602939591    0.06872354808536056    
  0.06905359124521529    0.06872353123132491    0.06795824509360136    0.06734483476218266    0.06734492698007617    
  0.06795817520084008    0.06872356178407608    0.06905361342489792    0.06872347820798613    0.06795832400669764    
  0.06734470946103799    0.06734512835780858    0.06795792300778479    0.06872387190318217    0.0690532472841976    
  0.06872389242168987    0.06795790029873348    0.06734515101353296    0.06734465057614616    0.0679583874842285    
  0.06872341723831868    0.06905368186281235    0.04561891819286625    0.04610204208053151    0.04758912745892901    
  0.050210117039918616    0.053959791344988    0.058562103297541926    0.06358982821650337    0.06872354792305335    
  0.07411504040353441    0.08029385546516127    0.08785517641028426    0.0968096983919398    0.10591175130123766    
  0.11293348383184369    0.1156039293736295    0.11293355533856374    0.10591157383908655    0.09680995260405711    
  0.08785489025953723    0.08029420753540016    0.0741146858665592    0.06872390753939192    0.06358953096196028    
  0.058562379759512194    0.05395954925381127    0.050210287911825045    0.04758900219707367    0.04610210530215564    
  0.04561891819286625    0.03388147210299743    0.034552799716601496    0.036577611911375825    0.039990544200166636    
  0.044803544451925685    0.050980232464646766    0.05856209682726418    0.06795816734355109    0.08029390916835526    
  0.09705755652981175    0.11931706545111113    0.14636983263064604    0.17395313511220858    0.19487307856440642    
  0.20266817479211457    0.19487298676879158    0.17395334222369324    0.14636952988250568    0.11931743004386228    
  0.09705718521082851    0.08029426127710704    0.06795779865012984    0.058562425186841786    0.050979953439168314    
  0.04480376454237593    0.039990371334687434    0.03657772625097591    0.03455273874940868    0.03388147210299743    
  0.027824220741949433    0.028444789765052613    0.030331159636323376    0.033545231340525825    0.03824732380489003    
  0.044803541809807085    0.05395978138975633    0.0673449197273566    0.08785514943065127    0.11931711861827243    
  0.16482689869589057    0.22237782317008922    0.2795872538703637    0.31863248145045914    0.3314878312581073    
  0.31863264998569985    0.27958698804893745    0.22237822926834103    0.16482650804114407    0.11931750909287979    
  0.08785478873485011    0.06734525162949706    0.05395947125315605    0.044803805375382186    0.038247114866696165    
  0.0335453688635806    0.03033107040617969    0.02844483571067963    0.027824220741949433    0.024604705276777963    
  0.0251063221912965    0.02664918306442437    0.029348598523604937    0.03354521865145018    0.0399905474319359    
  0.050210109174952784    0.06734484560920322    0.09680975419417465    0.14636981499950516    0.2223778270183915    
  0.31547267984536925    0.3872226673037643    0.4075538155328572    0.4047652341723785    0.4075536364610217    
  0.3872229501359252    0.3154722298917483    0.22237830739498113    0.14636936727865504    0.09681015516456383    
  0.06734448534786135    0.05021040962300061    0.0399903061004652    0.03354540663910561    0.02934843766005654    
  0.026649287364020047    0.025106275910198293    0.024604705276777963    0.02286903664104643    0.02325088004269239    
  0.024449962214112764    0.02664917584306329    0.030331171619002655    0.03657759871714023    0.04758913276512888    
  0.06795825432873635    0.10591171782252083    0.17395313043792227    0.27958726515835236    0.38722259952310967    
  0.4036966791391297    0.32749781091095304    0.282927139572631    0.3274979768754912    0.40369636152874633    
  0.38722308831311547    0.2795867670973728    0.17395361295839806    0.10591128776995498    0.06795857965559848    
  0.047588853887136295    0.036577829907505514    0.030330980741324922    0.026649300565726543    0.0244498848409873    
  0.023250931115872932    0.02286903664104643    0.02199669551262358    0.02229092761770914    0.023250861188739924    
  0.025106359998451535    0.028444751136331044    0.034552830528208345    0.0461020061730303    0.06872351791406697    
  0.11293348497151877    0.19487315059452914    0.3186323993464148    0.40755389002205983    0.32749781000762884    
  0.17632716417384425    0.12047434878003359    0.1763270466472026    0.3274980847072701    0.4075533925338785    
  0.31863293342038773    0.19487260190220929    0.11293391429465745    0.06872315292868272    0.04610228681856899    
  0.034552606298361335    0.028444926176195925    0.025106226705587386    0.023250965914717956    0.022290879771814206    
  0.02199669551262358    0.021735662077128022    0.021996667615028047    0.02286908993160106    0.02460465707104711    
  0.02782427683513044    0.03388140538512006    0.04561897651840433    0.06905362750323227    0.11560397194656308    
  0.20266810506274632    0.3314879399807998    0.40476513720206286    0.28292722769581663    0.12047429228454577    
  0.070901837767855    0.12047439703292369    0.28292696952829877    0.40476560460621147    0.33148743740266345    
  0.2026686319898837    0.11560352539098227    0.06905396619254899    0.04561869877548526    0.033881635667381234    
  0.027824099913935123    0.024604803614910915    0.02286899424474072    0.021996716488637647    0.021735662077128022    
  0.021996695225349364    0.02229092706937671    0.023250861731099297    0.025106351524326918    0.02844474929722014    
  0.03455283383306035    0.04610199520899685    0.0687235084803101    0.11293350722014274    0.19487311456360557    
  0.3186324269131281    0.4075538912684931    0.32749780839047826    0.176327175140774    0.12047435960535074    
  0.17632704442205002    0.32749811176656574    0.4075534358434143    0.3186329869124168    0.1948726327065816    
  0.1129339157552976    0.06872315934328446    0.04610229632216417    0.034552604952213746    0.028444923100229176    
  0.025106214053896896    0.023250968491137617    0.02229088091642381    0.021996695225349364    0.0228690516331424    
  0.023250883640781927    0.024449967256300182    0.026649169194522558    0.030331172255751968    0.03657759964887283    
  0.04758913605123668    0.06795825050903957    0.10591171517116117    0.173953130448382    0.2795872627779366    
  0.387222625547031    0.4036967105120372    0.32749780184085353    0.2829271358563557    0.3274980220868563    
  0.4036964157417123    0.38722312762838684    0.2795867646400435    0.17395362371155432    0.10591129003539633    
  0.06795856801133138    0.04758884610846359    0.0365778269312115    0.030330991908108597    0.026649306573208537    
  0.024449878873690753    0.02325092750253316    0.0228690516331424    0.024604707195278474    0.025106328106254357    
  0.026649173154499852    0.02934858902533738    0.03354520137895965    0.039990553460879166    0.0502101086416861    
  0.06734483547976221    0.09680973602952243    0.14636982389895148    0.2223777985937014    0.315472665129149    
  0.3872226351692195    0.40755381696214193    0.40476525061560753    0.4075536454460857    0.3872229316432307    
  0.3154722677790649    0.2223783030208081    0.14636938090270452    0.09681014862020082    0.06734448892251824    
  0.050210395075752944    0.03999030805851541    0.03354539581729523    0.029348449581517205    0.026649286605492255    
  0.025106273907745433    0.024604707195278474    0.027824228569621176    0.028444784069026903    0.030331158842644385    
  0.0335452220987694    0.03824733098807822    0.0448035441443406    0.0539597760949723    0.06734491046485032    
  0.08785515438946029    0.11931710829390917    0.1648269082492913    0.22237783502119374    0.27958727716244847    
  0.31863247859639593    0.3314878161232093    0.31863264058517776    0.2795869960234291    0.22237819605405365    
  0.16482651901813503    0.11931749169592215    0.0878547682379883    0.06734525155337497    0.05395947631758071    
  0.04480380032117124    0.038247116122567405    0.033545365472559624    0.03033107716441949    0.028444840954222422    
  0.027824228569621176    0.03388147157917604    0.034552797821696506    0.03657760853464779    0.0399905501129256    
  0.044803534541964715    0.050980226853234556    0.05856210860924369    0.06795817477076652    0.08029389815573067    
  0.09705757785767156    0.1193170861194427    0.14636984246549853    0.17395312328131002    0.19487310932006432    
  0.20266816620233705    0.1948729725661475    0.17395334908405746    0.14636954734321575    0.11931742625481234    
  0.09705720284986621    0.08029425979507109    0.06795781154491518    0.05856242110056402    0.05097995739912047    
  0.04480375611223642    0.039990374010201654    0.03657772689146351    0.034552736673457346    0.03388147157917604    
  0.04561892783886496    0.04610203479561266    0.04758911943525482    0.050210111976805125    0.05395979051759017    
  0.058562100832215205    0.06358983986320967    0.0687235602768894    0.07411505174140773    0.0802938485650071    
  0.08785519857162113    0.09680968481373672    0.1059117536623652    0.11293346148067536    0.11560392783970669    
  0.11293356023561446    0.10591156955050252    0.09680992825069333    0.08785489545260144    0.08029419539635906    
  0.07411468786539213    0.0687239038363892    0.06358951392074311    0.05856238324211028    0.05395954316889609    
  0.05021029381757287    0.047589002655005014    0.04610209436754813    0.04561892783886496    0.06905367567722384    
  0.06872350591220147    0.06795822776078443    0.06734487897641435    0.06734487460363536    0.06795821631958678    
  0.06872354358489866    0.06905361161145672    0.06872354002461754    0.06795824746010279    0.06734483953207278    
  0.0673449278260893    0.06795817198404025    0.06872356312734011    0.06905360249847393    0.06872348657612551    
  0.06795832471610339    0.06734471264839763    0.06734511856730829    0.06795794033711594    0.06872386560207297    
  0.06905325040783125    0.06872388166073458    0.06795791036950188    0.06734513447457371    0.06734466943503994    
  0.06795838796652658    0.0687234374931876    0.06905367567722384    0.11560393991765085    0.11293346689836233    
  0.10591175907699593    0.09680967598894298    0.0878552058615712    0.08029381485550038    0.07411510071117555    
  0.06872348185216808    0.0635899359737782    0.058561998412261715    0.05395989079242412    0.05020999290216144    
  0.04758923392319499    0.04610192644745522    0.04561903129585454    0.046101990527718066    0.047589110304426266    
  0.050210181319690635    0.053959653579072606    0.05856228888249025    0.06358960640446251    0.06872382989920063    
  0.07411474627047365    0.08029413828230128    0.08785492505493246    0.09680991688264012    0.10591158512499285    
  0.11293356409828534    0.11560393991765085    0.20266808278119722    0.19487321637330446    0.173952975243387    
  0.14636996716051254    0.11931696132353607    0.09705768862919109    0.08029374819267271    0.06795830373273865    
  0.058561971466417624    0.050980389850492615    0.04480338437261969    0.03999068948106239    0.036577471673019904    
  0.03455292885465626    0.033881319730580596    0.03455288778124871    0.036577584105615873    0.03999053678208499    
  0.044803624339306215    0.05098011170414787    0.058562282778311756    0.06795794872074433    0.08029412690937243    
  0.09705731500691334    0.11931730323055086    0.1463696449435414    0.17395325379043447    0.19487308817778534    
  0.20266808278119722    0.331488130962795    0.3186322090832168    0.2795874875704976    0.2223775819746225    
  0.16482712751650608    0.11931687957133265    0.08785533878780687    0.06734472532470484    0.05395995996529137    
  0.04480336122434272    0.03824750391490954    0.033545048198244797    0.03033133727830772    0.02844461197270995    
  0.02782438478335223    0.028444660561546497    0.030331241375090797    0.033545205784102326    0.038247312698251074    
  0.04480362062758489    0.053959676713715855    0.06734506270907208    0.08785497494180751    0.11931729089642369    
  0.1648267157878207    0.22237794132716102    0.2795872394931389    0.31863238019194057    0.331488130962795    
  0.40476486986869953    0.4075542391335506    0.3872222099983265    0.3154730696259273    0.22237750322189317    
  0.14637011826395738    0.09680948056621823    0.06734507960430447    0.05020989242590077    0.03999076426146801    
  0.03354500657748118    0.029348788643632908    0.0266489878406341    0.025106520835787852    0.02460452324424502    
  0.025106470096778747    0.026649079759117237    0.029348647090427366    0.03354520393766938    0.039990524199364025    
  0.050210170322467815    0.06734472384006852    0.09680987641752    0.1463696811721175    0.2223779496830934    
  0.3154726369226905    0.38722258283674654    0.4075540474911186    0.40476486986869953    0.2829275604149541    
  0.3274973797055033    0.4036971747042385    0.3872221319894834    0.2795876916426874    0.1739527115813408    
  0.10591202436374775    0.06795795907772624    0.04758938724334575    0.03657737603378607    0.03033138647012263    
  0.026648959600874145    0.024450175281531414    0.023250680364932164    0.02286925033990517    0.023250732114343847    
  0.024450085885883727    0.026649085021830443    0.0303312236251638    0.036577598121894525    0.047589101474443125    
  0.06795829611866305    0.10591163008027911    0.1739532207995229    0.2795872052712297    0.3872225474317894    
  0.40369693641800575    0.327497553484678    0.2829275604149541    0.12047399061922559    0.17632756981583692    
  0.32749727580691307    0.4075544488905623    0.31863187170788443    0.19487357362201058    0.11293311569439167    
  0.06872382132265259    0.046101745030695515    0.03455307667500374    0.028444524903861276    0.02510657200538685    
  0.023250647834817888    0.022291134266025584    0.02199648150375383    0.022291093702271798    0.02325074734153933    
  0.02510644141932006    0.02844470566568452    0.034552846787542266    0.04610203556650763    0.0687234597729381    
  0.11293356746318159    0.19487307414556862    0.31863243643187134    0.4075539672179697    0.3274975944749282    
  0.17632746266786845    0.12047399061922559    0.0709021324001644    0.12047394052166845    0.2829277300872209    
  0.4047645177277319    0.33148850105147953    0.2026676177258321    0.1156043451393007    0.06905330099876016    
  0.045619255460968774    0.033881177200002645    0.02782450568741022    0.0246044294624617    0.02286929696215364    
  0.021996448304698327    0.02173587842454913    0.021996495436971544    0.022869213037582267    0.024604568064895308    
  0.027824334298532167    0.03388139414490248    0.04561897571333535    0.06905364894766595    0.11560391342240638    
  0.2026681470898002    0.3314879344944048    0.4047649967239374    0.2829274682186651    0.12047406146310974    
  0.0709021324001644    0.12047398963584867    0.17632759437591894    0.3274972562854001    0.40755449808320854    
  0.3186318777306869    0.19487356988561266    0.11293312072324921    0.06872381896344476    0.04610173846748896    
  0.03455308546063169    0.028444514097364516    0.025106569780802696    0.02325065480036578    0.02229113764546617    
  0.021996481598144546    0.02229109124858456    0.02325074423244942    0.025106443291838518    0.028444698934461707    
  0.03455285779404884    0.04610203158808251    0.06872346821198871    0.1129335534078204    0.1948730766696534    
  0.3186324112639723    0.40755402076213576    0.32749759977948    0.17632748299979775    0.12047398963584867    
  0.1763275164651475    0.23538609738960642    0.37016638129076485    0.4161296072980235    0.3169345368684557    
  0.19700000551251953    0.1178918373172161    0.07411477067083076    0.05085418919052179    0.03837278312560514    
  0.03133048646589269    0.027161499775554748    0.02459440066134484    0.023049323888239406    0.022291117610734223    
  0.022195761986907973    0.022775152394328792    0.02422794620067935    0.02708726326111894    0.03252670529311266    
  0.04297637687765207    0.06358993408458517    0.10397776588308894    0.17907584222909162    0.2953208486683623    
  0.3945613969751922    0.35587506073781916    0.23004914039674051    0.1763275164651475    0.32749747711326366    
  0.3701662742584167    0.42838114030361496    0.3969803629576669    0.2892961600733338    0.1870299343901328    
  0.11966363685170599    0.08029410907767538    0.05774643832557175    0.0444593052576054    0.03611396473656126    
  0.030641739347003358    0.026975645881580274    0.02459436839710642    0.023250708079949084    0.022775166004397156    
  0.023126307623473636    0.024402981245494525    0.027006553522424558    0.031893367955852035    0.04103633456462842    
  0.05856194627774519    0.09198107610143663    0.15287045098284993    0.24972843398686717    0.3571964043647695    
  0.3982780415312591    0.35587506331138324    0.32749747711326366    0.40755412660152923    0.41612986764189314    
  0.396980232400822    0.3299431014049507    0.24304263672560752    0.17002238180372828    0.11992721179164773    
  0.08785495379046196    0.06719814186126064    0.053205044129777904    0.0431564972089112    0.03584277050139272    
  0.03064170148871218    0.027161560617537127    0.02510648379131674    0.024227920872052094    0.024402984259870707    
  0.025603544616809554    0.028044679215675133    0.03241037074029883    0.04009507389914036    0.05395995426329193    
  0.079041153694226    0.12266775377176191    0.19155696573579184    0.2799640905546406    0.35719645357317203    
  0.39456128402264984    0.40755412660152923    0.3186323431252595    0.31693418584418914    0.28929638884260267    
  0.24304257018063274    0.19338942260589695    0.15143671756958893    0.11992677063851682    0.09680986854297499    
  0.07904114485682952    0.06457822385080565    0.05264667423860768    0.04315647190450073    0.036114047709360574    
  0.03133040005805478    0.02844464363614139    0.027087294709300432    0.027006544322111734    0.028044674497156693    
  0.030239954564493802    0.03398595770908932    0.040095319624545045    0.05020989510550287    0.06719814020531109    
  0.09484495442494102    0.136563878660526    0.19155700217653152    0.249728458151122    0.2953208967422075    
  0.3186323431252595    0.19487311934884585    0.1970003474309678    0.18702964213427792    0.1700225649281961    
  0.1514366080799709    0.1344761188252301    0.119664055913868    0.10591162104571021    0.09198106257656329    
  0.07786696141848569    0.06457815586436659    0.053205111907389246    0.04445919528172978    0.03837291656951139    
  0.03455291301809602    0.03252666424997269    0.03189338554504537    0.0324103614998862    0.03398594862014927    
  0.03674706239070586    0.04103608157178528    0.047589373669521026    0.05774644383209756    0.07308739291264499    
  0.09484492075333378    0.12266776145907472    0.1528704694971432    0.1790758100796592    0.19487311934884585    
  0.11293353762845912    0.11789148372922412    0.11966395999934108    0.11992697082199442    0.11992691646800725    
  0.11966400399368571    0.11789145674939595    0.11293351831194234    0.10397778252323463    0.09198100085471587    
  0.07904124387229723    0.06719800189174917    0.0577466080925302    0.05085398329711927    0.04610196541935091    
  0.0429764072160898    0.041036334114227274    0.04009505911153375    0.04009532237832576    0.04103607943270034    
  0.04297666682162594    0.046101701827742814    0.05085420957765792    0.05774640538351092    0.06719817274523765    
  0.07904109778983218    0.09198110315573856    0.10397772105121277    0.11293353762845912    0.06872345085489158    
  0.07411509857330432    0.08029382228696075    0.08785521744629009    0.09680969007647622    0.1059117573755774    
  0.1129334503971005    0.11560398377895931    0.11293346877776551    0.10591171443305494    0.09680973361574337    
  0.08785514327832815    0.08029389516031074    0.07411503434577145    0.06872351929420392    0.06358993015393537    
  0.05856195233383648    0.05395998653905933    0.050209861935561616    0.047589430032923125    0.04610170245923908    
  0.04561927638181118    0.04610169800521829    0.047589445940828146    0.05020982196680904    0.0539600370747349    
  0.05856189028834458    0.06359000302142562    0.06872345085489158    0.04610207762289886    0.05085386114682249    
  0.05774672122366977    0.06719789634415625    0.07904134615268849    0.09198090015657183    0.10397788255045493    
  0.11293341762386268    0.11789154605328885    0.11966393622233862    0.11992694548835074    0.11992697585580708    
  0.11966394682486034    0.11789148765922264    0.11293353271221562    0.1039777143082144    0.09198110304528921    
  0.07904108095352351    0.06719820245244222    0.057746373148705    0.05085425169209961    0.046101654339467966    
  0.04297673005237323    0.04103599400114715    0.04009541403986423    0.040094963296739124    0.04103644490734838    
  0.04297628825727267    0.04610207762289886    0.03455276535859008    0.0383730758456185    0.04445902671253095    
  0.05320529047235537    0.06457799658789476    0.07786713947343356    0.09198086357757268    0.1059117925037376    
  0.11966393318915529    0.13447630500279678    0.15143647890043602    0.1700226898375511    0.18702956583408187    
  0.19700047736321957    0.19487301823659112    0.17907592831911126    0.15287034598734536    0.12266787539362731    
  0.0948448069609168    0.07308749771362139    0.05774632371378483    0.04758948219142416    0.04103595804634856    
  0.036747177594965194    0.03398582293430004    0.03241049327401639    0.03189324489443195    0.03252679800303103    
  0.03455276535859008    0.028444816100156076    0.031330223611920935    0.03611423298017698    0.043156276844232774    
  0.052646887659304566    0.06457798734844133    0.0790413732509669    0.09680964237512005    0.11992701363470434    
  0.15143647655170778    0.1933896503409609    0.24304227494376288    0.28929663559079616    0.31693393613789833    
  0.31863257446129173    0.2953206470308736    0.24972868130104756    0.1915567809980292    0.13656409564733496    
  0.09484475426884316    0.06719831923675405    0.050209714106427106    0.0400954783060316    0.03398579859591822    
  0.03024010535369715    0.02804450994798645    0.027006710580109432    0.027087134426869112    0.028444816100156076    
  0.025106297859032803    0.027161752490274048    0.03064149502113524    0.03584298968595245    0.04315626446849497    
  0.05320527446620508    0.06719787856190004    0.08785524438284882    0.1199269113331471    0.1700227172589902    
  0.24304225798424112    0.3299434956164678    0.3969798269139981    0.4161302866163266    0.4075537110404844    
  0.39456168804517927    0.35719604769778635    0.27996444713564617    0.19155669267372433    0.1226680330623521    
  0.0790409061904864    0.0539601679655032    0.040094866147392626    0.03241055776561567    0.028044482923784062    
  0.025603705247675884    0.024402810497838264    0.02422811282803832    0.025106297859032803    0.023250916162428054    
  0.02459415252674479    0.026975849877868014    0.030641509163928236    0.03611420370985879    0.04445904494411469    
  0.057746707134846996    0.08029381218728217    0.11966400676163083    0.1870295185950873    0.2892966184062861    
  0.3969798809796794    0.4283816443369116    0.37016574950702463    0.32749793803211297    0.3558746220104103    
  0.3982785087960273    0.35719596059620673    0.24972890334852216    0.1528701002758556    0.09198136176334662    
  0.05856168481669541    0.041036581928465626    0.031893159747153274    0.027006760399737186    0.024402766430141366    
  0.023126516887900756    0.02277495679727381    0.023250916162428054    0.02229090532437703    0.023049542500884524    
  0.02459417759442238    0.02716172559343822    0.03133025506094047    0.03837303063378667    0.05085389852852694    
  0.0741150823843772    0.11789146202221971    0.19700047220147465    0.3169339730132237    0.4161301992982407    