#     DFTpy    
  CRYSTAL 
    
  PRIMVEC    
  1.7280295577930862    -2.9930349910784044    0.0    
  1.7280295577930862    2.9930349910784044    0.0    
  0.0    0.0    5.842611191448276    
  PRIMCOORD    
  2    1    
  Si    1.7280295577930864    0.9976783303594682    1.4606527978620687    
  Si    1.7280295577930866    -0.9976783303594682    4.381958393586205    
  BEGIN_BLOCK_DATAGRID_3D    
  3d_datagrid_density    
  BEGIN_DATAGRID_3D#0    
  15    15    25    
  0.0    0.0    0.0    
  1.7280295577930862    -2.9930349910784044    0.0    
  1.7280295577930862    2.9930349910784044    0.0    
  0.0    0.0    5.842611191448276    
  0.04180135430144946    0.04317910623846443    0.04732617151602173    0.054145831744975434    0.0631362667535686    
  0.07285859857527942    0.08069679320267803    0.08375263596177442    0.08069677463820792    0.07285861772786333    
  0.06313625853685954    0.05414583835372247    0.0473261797147365    0.04317909797657416    0.04180135430144946    
  0.04317909361693076    0.04317948183665177    0.04594961489452493    0.051504916457455384    0.05964325732209111    
  0.0694518257796152    0.07881417594933378    0.08472075496417328    0.0847200094587801    0.07881659334059504    
  0.06945180964259044    0.059642934871041796    0.05150473956260428    0.04594951837652703    0.04317909361693076    
  0.04732617368018716    0.045949614503964495    0.047325228078155104    0.05150469284951145    0.05856034868704866    
  0.06808142708182145    0.07844680127867051    0.08682235147267842    0.09010384297599022    0.08682080275525812    
  0.07844573669335583    0.06808152323064297    0.05856159457761682    0.05150473751183513    0.04732617368018716    
  0.05414583355317612    0.05150491746228809    0.051504702523578846    0.05414706957805797    0.059642671653170755    
  0.06808155888154216    0.07852033653907317    0.08850872107922532    0.09479873124216948    0.09479806753193218    
  0.08851049072642186    0.07852068368677072    0.06808152526116765    0.05964293486188584    0.05414583355317612    
  0.06313625486178212    0.05964326235463645    0.058560339522074095    0.05964267453499044    0.06313539959664795    
  0.0694516078899602    0.0784470751732206    0.08850884211472519    0.09670174906713952    0.0999261313250517    
  0.096701331635149    0.08851050134075149    0.0784457378010606    0.06945183009520192    0.06313625486178212    
  0.07285861481648646    0.06945182929905938    0.06808142746170923    0.06808155883389065    0.06945160334664736    
  0.07285941289052451    0.07881508096688704    0.08682179093282397    0.0947988982060404    0.09992656156010964    
  0.09992614179218229    0.0947980645818328    0.086820820114113    0.07881659598639833    0.07285861481648646    
  0.08069676569350048    0.07881418620698241    0.07844679756039481    0.07852034871761138    0.07844706609421645    
  0.07881505155768369    0.08069556570414044    0.08472014232510197    0.0901032382676789    0.09479889589581506    
  0.09670174180738224    0.09479871536730604    0.09010384158269927    0.08472001274535473    0.08069676569350048    
  0.08375261780939515    0.08472075597421361    0.08682234443858584    0.08850872119552186    0.08850884852195622    
  0.0868217948128289    0.08472016086540386    0.08375522909000499    0.08472015084818403    0.08682179742460429    
  0.08850884733043923    0.08850871516701644    0.08682236631293652    0.08472075283015075    0.08375261780939515    
  0.08069678403337084    0.08472002632859431    0.09010383571784462    0.0947987104586902    0.0967017628023118    
  0.09479885997713439    0.09010322640945015    0.08472014674612709    0.08069560173301889    0.07881508177345829    
  0.07844706254561484    0.07852034638231367    0.07844679292092968    0.07881416606483649    0.08069678403337084    
  0.07285860545108544    0.07881658447900353    0.0868208254907375    0.09479807816907246    0.0999261466648959    
  0.09992654417748449    0.0947988834082378    0.08682180814780731    0.07881506822294275    0.07285942689469192    
  0.06945160693390748    0.06808155859965279    0.06808143813688083    0.06945182368179303    0.07285860545108544    
  0.0631362553350593    0.06945183326143897    0.07844574282473553    0.08851049802885073    0.09670134023365008    
  0.09992613288253806    0.09670173534975245    0.08850885104856007    0.07844706965893511    0.06945157756877225    
  0.06313537789101883    0.059642669940217156    0.058560335014826256    0.059643256751716736    0.0631362553350593    
  0.05414584275007473    0.05964294554406705    0.06808152259466939    0.0785206823065003    0.08851050288849571    
  0.0947980691675085    0.09479872147462252    0.08850872662427615    0.07852034917104825    0.06808155386014046    
  0.05964267659023875    0.05414707028140553    0.05150470588235424    0.05150491542362792    0.05414584275007473    
  0.04732618217244005    0.05150473318112198    0.058561599958254586    0.06808151770675731    0.07844574145560165    
  0.08682080569612383    0.09010383658722515    0.08682234427063962    0.07844680033918529    0.06808143325280838    
  0.058560331685874156    0.051504709754344    0.04732523022116991    0.04594961210950604    0.04732618217244005    
  0.043179095486903414    0.0459495277595572    0.05150473492149539    0.059642925195724145    0.06945181854328776    
  0.07881657721179104    0.0847200036663518    0.0847207607136843    0.07881418094634432    0.0694518350386192    
  0.059643249046615186    0.05150491601571019    0.045949622761800604    0.043179470806295674    0.043179095486903414    
  0.04180135430144946    0.04317910623846443    0.04732617151602173    0.054145831744975434    0.0631362667535686    
  0.07285859857527942    0.08069679320267803    0.08375263596177442    0.08069677463820792    0.07285861772786333    
  0.06313625853685954    0.05414583835372247    0.0473261797147365    0.04317909797657416    0.04180135430144946    
  0.04312917319888056    0.04468286318105138    0.04942452614017246    0.05736178627422239    0.06795975880187931    
  0.07949274087027927    0.08880441584420866    0.09243586398633342    0.08880281667594989    0.07949238957880692    
  0.06796053506944837    0.05736218947511592    0.04942361267425112    0.04468242563856536    0.04312917319888056    
  0.04468241658783565    0.04468239665911258    0.04703410910959659    0.051744480687545044    0.058674447719575154    
  0.06700129957139934    0.07492658933562256    0.079950493387004    0.07995219660342327    0.07492770807426277    
  0.06700168160089276    0.0586737723851284    0.05174412543585455    0.047034938201086444    0.04468241658783565    
  0.049423608007151745    0.04866476761215238    0.04942347946618081    0.051744040070562686    0.05573856232342441    
  0.06119126200574708    0.06716338326168375    0.07204921019136983    0.0739792626445217    0.07204868860615814    
  0.06716281691813142    0.061190729792796855    0.05573991599276564    0.05174413415859334    0.049423608007151745    
  0.057362182464988205    0.056900743317525024    0.05690133184122528    0.057362579543333826    0.05867424268190947    
  0.061190261762367096    0.06475446492582612    0.06845673013283085    0.0708631579868638    0.07086181358364309    
  0.0684570829199848    0.06475555330759313    0.06119073928872124    0.058673776276005514    0.057362182464988205    
  0.06796052905164504    0.06924911407209712    0.06985254924719018    0.0692482461084415    0.0679593326653807    
  0.06700178332763344    0.06716344202003821    0.06845653957604461    0.06997500279717561    0.07063619865553938    
  0.06997624371801095    0.06845707742871207    0.06716282482108149    0.06700168953188194    0.06796052905164504    
  0.07949239563536813    0.08442758487220739    0.08771908611631458    0.08771903739065655    0.08442834783180984    
  0.07949261262968038    0.07492727111798894    0.07204880472385934    0.07086273795852295    0.07063641569243086    
  0.070636192619921    0.07086181015574489    0.0720487057856138    0.07492772539785492    0.07949239563536813    
  0.08880281619833008    0.09909075400841458    0.10761870714255473    0.11097730937937998    0.10761964467975163    
  0.09909043571812501    0.08880334307637645    0.0799505530206661    0.07397951190729514    0.07086274985370747    
  0.06997500823241731    0.07086315085862097    0.07397925664241986    0.0799521835054639    0.08880281619833008    
  0.09243586928047369    0.10831801016442202    0.1238334422906535    0.13360762352760783    0.13360911879729565    
  0.12383234871334363    0.10831783922476912    0.09243762205691891    0.07995055099241635    0.07204881362197155    
  0.06845654650725087    0.06845673315400234    0.07204922140435223    0.07995047671914202    0.09243586928047369    
  0.08880439161217293    0.10831678280800802    0.1301560434881421    0.14790022857128993    0.15480605827213753    
  0.1479010023701576    0.13015672076168763    0.10831782824063148    0.08880333809850913    0.07492725641647952    
  0.06716343449525951    0.06475445941421679    0.06716337701324729    0.07492656430196548    0.08880439161217293    
  0.07949276244726769    0.0990915396724634    0.12383153638656164    0.14790113990443532    0.16309081779423742    
  0.1630908314818585    0.1479010228037647    0.12383234469181885    0.09909046893058297    0.07949261642773867    
  0.06700178130907508    0.06119026655874844    0.06119127346860135    0.06700130887154983    0.07949276244726769    
  0.06795974843224463    0.08442857080841464    0.10761849599942015    0.13360981650040524    0.1548035372942919    
  0.1630907885942618    0.15480604177204668    0.13360911098708833    0.10761964494618281    0.08442832756868256    
  0.0679593251783995    0.05867423760815089    0.05573855006754882    0.058674442345653326    0.06795974843224463    
  0.057361788042190824    0.06924875572642404    0.08771869968534121    0.11097738155631418    0.13360982899396792    
  0.1479011393951568    0.1479002420886436    0.13360762061246173    0.11097729808830924    0.08771903497824203    
  0.06924824248880315    0.05736257901733088    0.05174405493920329    0.05174448640343472    0.057361788042190824    
  0.04942453592562169    0.056901145120510206    0.06985427062771422    0.08771869837183413    0.10761851115798128    
  0.12383150165168284    0.1301560786727052    0.12383346635289229    0.10761872230414644    0.08771908009079521    
  0.06985253966663299    0.056901333796552794    0.04942348051819161    0.04703410535283657    0.04942453592562169    
  0.04468284875408729    0.048663430587555664    0.056901140831702286    0.06924873501719896    0.08442858061013096    
  0.09909151077636656    0.10831676370593604    0.10831800402117776    0.09909073911204892    0.08442759533642696    
  0.06924909915699436    0.056900731319913654    0.048664776310255356    0.04468239308335231    0.04468284875408729    
  0.04312917319888056    0.04468286318105138    0.04942452614017246    0.05736178627422239    0.06795975880187931    
  0.07949274087027927    0.08880441584420866    0.09243586398633342    0.08880281667594989    0.07949238957880692    
  0.06796053506944837    0.05736218947511592    0.04942361267425112    0.04468242563856536    0.04312917319888056    
  0.046906465825730305    0.049011605230581366    0.055556194279430766    0.06684283875410175    0.08233753099521289    
  0.09947049153309154    0.1133742240875038    0.11880505575005185    0.1133729281691253    0.09946832557344584    
  0.0823391852988261    0.06684235651114305    0.05555547117068635    0.049011222704818884    0.046906465825730305    
  0.04901120575755212    0.04901076742669179    0.05157072558205172    0.056849941318055396    0.06486925111549731    
  0.0746949113189044    0.08405864142339518    0.0899481601562908    0.08994969425994301    0.0840590471495889    
  0.07469475290044167    0.06486878252234482    0.05685037583080248    0.05157146140142692    0.04901120575755212    
  0.055555466814086144    0.05518808005076111    0.05555608824079413    0.0568504944924565    0.05943828274245266    
  0.06336734044963326    0.06796253883640581    0.0718023356394703    0.07331498412543215    0.07180290763221203    
  0.06796267322163298    0.0633676895073097    0.059438425489734194    0.05685037383877012    0.055555466814086144    
  0.06684234359107193    0.06832291702181553    0.06832304552723341    0.06684181272418979    0.06486875064825948    
  0.06336755966932177    0.06293237072236418    0.06340685116352875    0.06394359560645028    0.06394294879516026    
  0.0634057389268011    0.06293358629292906    0.0633676901270834    0.06486879224918267    0.06684234359107193    
  0.08233917766554154    0.08870367329588266    0.09127328305118843    0.08870412191831999    0.08233789991222891    
  0.0746948287166005    0.06796259082950463    0.06340568893298226    0.060997511891395205    0.06025795439215839    
  0.06099918430841169    0.06340575437842372    0.06796268953828878    0.07469475551387965    0.08233917766554154    
  0.0994683400236778    0.11447896384401621    0.12405437777381437    0.12405414223049406    0.11447976534179918    
  0.09946964481273991    0.0840584840892191    0.0718026529065993    0.06394373677639106    0.060257568714554    
  0.06025794982045847    0.06394295326727939    0.0718029194586494    0.08405904824941443    0.0994683400236778    
  0.113372916248237    0.1397858580002367    0.16141081587149517    0.16984760713539712    0.16141044237826513    
  0.13978442798035373    0.11337454934848645    0.08994871427184743    0.07331466028018699    0.06394374593509253    
  0.0609975028458532    0.06394359972814366    0.0733149873768459    0.08994970151478505    0.113372916248237    
  0.11880509119382303    0.1557823936920468    0.19193557282843476    0.21441817673041097    0.21442319872720947    
  0.1919380546848638    0.15578236149751906    0.11880523831203547    0.08994870922278338    0.07180267139817403    
  0.06340569767128144    0.06340687425071981    0.07180235856199887    0.08994816113990979    0.11880509119382303    
  0.1133742017626289    0.1557812704509352    0.2037160672614683    0.2416528820437481    0.2557637335129139    
  0.24165265138566824    0.2037221664120957    0.15578232387745228    0.11337455031402074    0.08405847813201515    
  0.06796258677718839    0.06293237002967147    0.06796252739346044    0.08405861646998283    0.1133742017626289    
  0.09947049251184495    0.1397840089954026    0.19193790230012783    0.241654018439705    0.27087518202919403    
  0.2708692061270355    0.2416526777730865    0.19193807039336327    0.13978446008679496    0.09946965912667673    
  0.07469482339390648    0.06336756504705605    0.06336735020660793    0.07469492331101535    0.09947049251184495    
  0.08233751169682882    0.11447895201558013    0.16141219980623    0.2144188605055143    0.2557569531892367    
  0.2708751457672973    0.2557636929214862    0.21442319807666935    0.1614104153670152    0.11447974634628012    
  0.08233789282811359    0.06486874165859065    0.05943827591267229    0.06486924343688906    0.08233751169682882    
  0.06684284883405486    0.08870453241802576    0.1240549252977024    0.16984679532363747    0.21441890624501986    
  0.24165402916919532    0.2416528999080294    0.21441816064735109    0.16984762283408303    0.1240541378995045    
  0.08870411040695639    0.06684181400591341    0.056850502393719256    0.056849941527939575    0.06684284883405486    
  0.05555620261824246    0.06832307711162272    0.09127405754885813    0.1240549105781869    0.1614122251334428    
  0.19193784301163805    0.2037161126595559    0.19193559976919886    0.16141085599343472    0.12405436668842604    
  0.09127327880767928    0.06832304673757796    0.05555608280712375    0.05157072540252367    0.05555620261824246    
  0.04901158899286856    0.055187451439387185    0.06832307610883818    0.08870450908407672    0.11447894112750184    
  0.13978397172305596    0.15578125636913073    0.15578239192247834    0.13978587352943583    0.11447896963027146    
  0.08870365209659486    0.06832291252906654    0.055188087197537775    0.04901076627103433    0.04901158899286856    
  0.046906465825730305    0.049011605230581366    0.055556194279430766    0.06684283875410175    0.08233753099521289    
  0.09947049153309154    0.1133742240875038    0.11880505575005185    0.1133729281691253    0.09946832557344584    
  0.0823391852988261    0.06684235651114305    0.05555547117068635    0.049011222704818884    0.046906465825730305    
  0.0524059701061982    0.05541228364813154    0.06487601700267621    0.08159214679297025    0.10513705255002734    
  0.1316060296516798    0.15323424136744454    0.16169290317380522    0.15323778529587415    0.1316036378471011    
  0.10513404577341877    0.08159229193507608    0.06487601788161292    0.055412123707827624    0.0524059701061982    
  0.055412110296442274    0.05541219271690659    0.05872960583732247    0.06573195074863494    0.07657866691199144    
  0.09011450440476274    0.10312799061680482    0.11131942659260681    0.11131971900966031    0.10312465596335729    
  0.09011393378470665    0.07658124784584239    0.06573173749375077    0.058730559733217405    0.055412110296442274    
  0.06487600953823283    0.06470053560328082    0.06487712319414939    0.06573211103371995    0.06791352487143124    
  0.0717642006165054    0.07662085830944843    0.08077299976517258    0.08242310873478882    0.08077403298905514    
  0.07662322979408094    0.07176588051191567    0.06791080637805404    0.06573174244859248    0.06487600953823283    
  0.08159228910647834    0.0848996101304115    0.08489918464598044    0.08158999847669818    0.07657849794218881    
  0.07176693348887284    0.0685218526441414    0.06701991509452446    0.06657021712391231    0.06657008129788862    
  0.06701894899289242    0.06852117301461819    0.07176587214883161    0.07658125339465717    0.08159228910647834    
  0.10513404072245644    0.11740668753454567    0.12225194751493668    0.1174099274108528    0.10513658136113722    
  0.0901120324652121    0.07662153371061989    0.06701961734386204    0.06161730222658759    0.05991152426231297    
  0.061618831664539714    0.06701895298135196    0.07662323965382381    0.09011394507941438    0.10513404072245644    
  0.13160362719293503    0.15953483339602428    0.17714684524284235    0.17714451878352963    0.15953217724166158    
  0.13160751371687449    0.10312583941568894    0.08077205361034882    0.06657069842646235    0.05991111458046888    
  0.05991152940950712    0.06657009378486957    0.0807740691216624    0.10312464860599933    0.13160362719293503    
  0.15323776976863263    0.20082916956443306    0.23860303492327506    0.2526671173659091    0.23860188290510134    
  0.20082456166485663    0.1532383656569782    0.1113218076277767    0.082422492490529    0.06657069538361249    
  0.06161729288044057    0.06657020051231735    0.0824231176652039    0.11131971863532916    0.15323776976863263    
  0.16169291178374195    0.2263716079651287    0.2849074442605687    0.3160453585802358    0.3160496202344314    
  0.28492729562643493    0.22637385068935192    0.1616880077501433    0.11132180172707849    0.08077207131217486    
  0.06701963034617062    0.06701992386676836    0.08077300811726153    0.1113194214635832    0.16169291178374195    
  0.15323419241550484    0.22637440643136642    0.30111972650816143    0.3448574946933711    0.3552750878495085    
  0.3448542327644353    0.3011364067119779    0.22637383730920407    0.1532383522659362    0.1031258375896766    
  0.07662153315522487    0.06852185446067652    0.07662085320982895    0.10312797106152534    0.15323419241550484    
  0.13160601966961077    0.20082372876073076    0.28492566057186075    0.34485946343118007    0.3618211138215653    
  0.36180624003808093    0.3448542971882467    0.28492732708325624    0.2008245756906572    0.13160753200065903    
  0.09011202148655936    0.07176693083760385    0.07176421191410202    0.09011452059935189    0.13160601966961077    
  0.10513702213969307    0.15952947159004108    0.23861232521418355    0.31602544400515964    0.3552702274366517    
  0.3618211126156906    0.3552750687143087    0.3160495990032944    0.23860189249655633    0.15953214154718195    
  0.10513656490613602    0.07657850032186807    0.06791351499178036    0.07657867420749824    0.10513702213969307    
  0.08159215289968662    0.117410586917997    0.17714559797818152    0.25267666061800315    0.31602544381881237    
  0.34485946182126    0.34485748444967373    0.316045363848551    0.25266709906693635    0.17714450129983916    
  0.11740993396241102    0.08158999939082996    0.06573211394417823    0.06573194510441545    0.08159215289968662    
  0.06487602644469562    0.0848994417564443    0.12225211668664941    0.17714558983811624    0.23861234750692717    
  0.28492559025470987    0.3011197373252312    0.2849074520755777    0.23860302627105245    0.17714683386922306    
  0.12225193868790915    0.08489918630446537    0.06487711227280847    0.05872959678560499    0.06487602644469562    
  0.055412275107379755    0.06470211845820173    0.08489943916207046    0.11741055982593292    0.1595294617936739    
  0.20082372236942397    0.2263743820254433    0.22637160368734233    0.20082916173924031    0.15953484340127577    
  0.1174066682633341    0.08489961070201325    0.06470054331475387    0.05541218867684088    0.055412275107379755    
  0.0524059701061982    0.05541228364813154    0.06487601700267621    0.08159214679297025    0.10513705255002734    
  0.1316060296516798    0.15323424136744454    0.16169290317380522    0.15323778529587415    0.1316036378471011    
  0.10513404577341877    0.08159229193507608    0.06487601788161292    0.055412123707827624    0.0524059701061982    
  0.0583746414861289    0.06240846246183398    0.0752705291480867    0.09847580590504972    0.1318281435350647    
  0.1696396405418845    0.20044603522918233    0.21241750138027302    0.2004845984901578    0.1696392097862767    
  0.13179473379341183    0.09848279470339995    0.07527330842143191    0.06240854782273575    0.0583746414861289    
  0.062408536805747414    0.062409722900940066    0.06672254889773138    0.07606276771142823    0.09068981475455605    
  0.10918261959316389    0.12717219974106697    0.13856354714637592    0.1385638660189596    0.12714459753042395    
  0.10918210331980498    0.09071348847609634    0.07605836251256615    0.06672135271174798    0.062408536805747414    
  0.07527330424705227    0.07519259913489205    0.07527126970801575    0.07605682189887428    0.07852770338573435    
  0.08311442473282524    0.08901546110549392    0.09416429270846884    0.09624707490854385    0.09416321577539195    
  0.08903467741206895    0.0831182469578498    0.07850542225015192    0.07605837279968189    0.07527330424705227    
  0.09848278324310784    0.10350307679654092    0.10350636649047623    0.0984804876563807    0.09068916286536093    
  0.08312177877133463    0.07767906752900804    0.07467341076745489    0.07358365547083498    0.07358383054696924    
  0.07467609059715982    0.07766264159495781    0.08311825398025957    0.09071349417343583    0.09848278324310784    
  0.1317947134337921    0.15024398438965567    0.15742758060538106    0.15024961565543926    0.13182611056113772    
  0.1091747712291193    0.08901749421637459    0.07468020308143772    0.06660618556075645    0.06409301612454806    
  0.06660718232526872    0.07467609075112512    0.08903467607143613    0.10918211372013314    0.1317947134337921    
  0.16963920609953506    0.21094124846830736    0.23616157685045808    0.23614664047871822    0.21090245588914416    
  0.16965038440516053    0.12716616113932588    0.09415467936881909    0.07358432286940254    0.06409280086629399    
  0.06409301074580794    0.07358384391645782    0.09416323218685563    0.127144605043135    0.16963920609953506    
  0.2004845818559975    0.26760919985488046    0.31414987209420053    0.32876178482214    0.3141956756010934    
  0.26759345758968023    0.20045812280033382    0.1385764367158694    0.09624633626194139    0.07358432765173659    
  0.06660618661132289    0.07358365090008832    0.09624706269461429    0.13856386874703608    0.2004845818559975    
  0.21241751498173714    0.2994666001153684    0.35506950186537917    0.3643141054364372    0.36428325858895605    
  0.3551050082019783    0.2995164797099063    0.21238637854349    0.13857643514839046    0.09415468709778249    
  0.07468021148589479    0.07467341059410726    0.09416429660547279    0.13856352030825103    0.21241751498173714    
  0.20044597702469585    0.29951707977613146    0.3625815843408858    0.3454084633122233    0.32031680102202115    
  0.34540167655790494    0.3625953464106314    0.2995164258780306    0.20045810737823866    0.12716615783744428    
  0.08901750294192015    0.07767907470257096    0.08901544242535553    0.12717216081173843    0.20044597702469585    
  0.16963964259388536    0.26759928447070597    0.35511004776916744    0.34539527291903077    0.2835929131592003    
  0.2836191943501138    0.3454017137484708    0.3551050419482023    0.26759346529474776    0.16965042024017601    
  0.10917476778166589    0.0831217768528406    0.08311443749484333    0.10918262185147225    0.16963964259388536    
  0.13182812229746343    0.21090042387496058    0.31421192036095147    0.36420751390816974    0.32038427323816915    
  0.2835928855855599    0.32031676767940703    0.3642832721751686    0.31419563893322194    0.21090242350474336    
  0.13182608871096124    0.09068915862272861    0.07852768838874548    0.09068980419871353    0.13182812229746343    
  0.09847581419291933    0.15025795829094826    0.23614557038742656    0.32882160607473776    0.3642075494637647    
  0.3453952864660925    0.34540849091522907    0.36431407061560417    0.3287617571399116    0.2361466491975791    
  0.15024960578869476    0.09848049992392834    0.07605683198805868    0.07606276569714403    0.09847581419291933    
  0.07527053871775294    0.10350675108806572    0.15742363027575249    0.23614556569706827    0.3142119481494498    
  0.35510998141125627    0.36258165495767164    0.35506953204789854    0.31414992004569015    0.23616154283267826    
  0.15742756811308423    0.10350637625781822    0.07527126540525818    0.06672254924105465    0.07527053871775294    
  0.06240845237025423    0.07519581516065234    0.10350674668733201    0.15025792965259194    0.2109004416671663    
  0.26759924732082563    0.2995170489742664    0.29946658725179603    0.26760921258057707    0.21094126174476677    
  0.15024396450780816    0.10350307117782642    0.07519260546647295    0.062409716925644065    0.06240845237025423    
  0.0583746414861289    0.06240846246183398    0.0752705291480867    0.09847580590504972    0.1318281435350647    
  0.1696396405418845    0.20044603522918233    0.21241750138027302    0.2004845984901578    0.1696392097862767    
  0.13179473379341183    0.09848279470339995    0.07527330842143191    0.06240854782273575    0.0583746414861289    
  0.06300161062342839    0.06788826637445197    0.08356927138176992    0.11223963372661856    0.15397149369916496    
  0.20117766222630926    0.2388737175962528    0.2532059192568336    0.2389934835499627    0.20118094451033558    
  0.15387557928208745    0.11225789532903041    0.08358038639158727    0.06788815831798779    0.06300161062342839    
  0.06788813739176815    0.06788994499384758    0.07312927892852113    0.08453841231361375    0.10245142773183794    
  0.12540775167030485    0.14789687553529166    0.16196762298092512    0.16196820387455027    0.14781582880288935    
  0.12540563576758879    0.10252223653521321    0.08452589860216625    0.07312024368881287    0.06788813739176815    
  0.0835803966886512    0.08348897409667658    0.08356908439713309    0.08451711349456456    0.08750919227306928    
  0.09292676935618815    0.09998684538819466    0.10623046089360581    0.10872400321928524    0.10622457191398675    
  0.10004518811309199    0.0929339062313861    0.08744254834095137    0.08452589994843461    0.0835803966886512    
  0.1122578847962045    0.11850092098698123    0.11851576811171696    0.11226270930324501    0.10244916330627822    
  0.09294044505799393    0.08600736183331509    0.08203213093986943    0.08055510217439381    0.08055701195125617    
  0.082041790083191    0.08595466622344201    0.09293389070259407    0.10252225101523395    0.1122578847962045    
  0.15387559514842875    0.1769549020280119    0.1858455883305696    0.17695286509792668    0.15397135785499333    
  0.12539172647860286    0.0999897357155209    0.08205314607836371    0.07195448714000346    0.06880943483155737    
  0.07195315468558695    0.08204179208724077    0.10004520091126891    0.12540563757655612    0.15387559514842875    
  0.20118095523118734    0.25134290759282346    0.28031940894741175    0.28029308501933176    0.2512195265665427    
  0.20120119977337048    0.14788760308890558    0.10620371880806065    0.0805571800428521    0.06880706187586279    
  0.06880941979786492    0.08055700389604228    0.10622458770872392    0.14781581711583278    0.20118095523118734    
  0.2389935112780293    0.31458244088210685    0.35378345388454674    0.3608318297968974    0.35393939508136    
  0.31455428012737263    0.238896323423453    0.16200216157314612    0.10872248413386193    0.08055718485748256    
  0.07195447328636131    0.08055508394139131    0.10872399606298418    0.1619682146439946    0.2389935112780293    
  0.2532059206688031    0.3440135333945523    0.36084703517298283    0.32276650042830446    0.32267153474542754    
  0.36086590110849853    0.34418534137736173    0.2531146426142894    0.16200216098009523    0.10620372906386713    
  0.08205313499946168    0.08203215645289791    0.10623047993246779    0.16196762407201756    0.2532059206688031    
  0.2388736895191269    0.3441708010610533    0.34738882595196413    0.24093575272577442    0.18563756157226766    