#     DFTpy    
  CRYSTAL 
    
  PRIMVEC    
  3.6227586206896545    0.0    0.0    
  0.0    3.6227586206896545    0.0    
  0.0    0.0    3.6227586206896545    
  PRIMCOORD    
  2    1    
  Si    0.0    0.0    0.0    
  Si    1.8113793103448272    1.8113793103448272    1.8113793103448272    
  BEGIN_BLOCK_DATAGRID_3D    
  3d_datagrid_density    
  BEGIN_DATAGRID_3D#0    
  17    17    17    
  0.0    0.0    0.0    
  3.6227586206896545    0.0    0.0    
  0.0    3.6227586206896545    0.0    
  0.0    0.0    3.6227586206896545    
  0.058326642262349244    0.10036009505261884    0.24313428236014442    0.3646155336985093    0.3179032765384528    
  0.2109785118202641    0.13537623009583308    0.09725886301049765    0.08600029029034291    0.09725885879131524    
  0.13537624830133693    0.21097849763113147    0.31790326158421056    0.3646154435172385    0.24313429373982762    
  0.10036008441541645    0.058326642262349244    0.10036009453140152    0.14838630408628278    0.28340671457017097    
  0.3684442943774032    0.3055680252291324    0.20222634004882206    0.13137703258783853    0.09561645488266254    
  0.08499402514551664    0.09561642583127046    0.13137704253585147    0.20222632970717394    0.30556805142080057    
  0.3684442630204638    0.28340666577641643    0.14838632708451813    0.10036009453140152    0.24313434073774057    
  0.28340667733247127    0.3569543076998849    0.3546820331935949    0.2690580790552379    0.1794980166666736    
  0.12121821332555191    0.09149994225729349    0.08254434874813016    0.09149990987765601    0.12121819799519379    
  0.1794980025436028    0.2690581081770119    0.35468206100370575    0.356954280922328    0.2834067161124964    
  0.24313434073774057    0.36461553592194695    0.3684441972527107    0.3546820735378158    0.2958877091963752    
  0.21626574454013073    0.15056233700890034    0.10869898982537746    0.08687797128265831    0.08020627476521286    
  0.08687795498359432    0.10869905729046664    0.1505623174760128    0.21626572190583349    0.29588773177113387    
  0.35468203610712695    0.36844420795565147    0.36461553592194695    0.3179032892150223    0.30556801281612106    
  0.26905810241940165    0.21626577582385811    0.16372199628424913    0.12331725693429099    0.09732899594939896    
  0.08354174818203182    0.07931461789288505    0.08354173656869318    0.09732899542747572    0.12331727641759505    
  0.16372201221068872    0.21626574321878156    0.2690580598785541    0.3055680620366851    0.3179032892150223    
  0.21097856332322917    0.20222632678059482    0.1794980256528738    0.15056231436924108    0.12331723105633748    
  0.10256318606908885    0.08927154674182636    0.0823111671614976    0.080206304319688    0.08231116889188969    
  0.08927155974400712    0.10256321643230384    0.1233172483673003    0.15056234079118563    0.1794980009917255    
  0.20222632104242294    0.21097856332322917    0.1353762534991799    0.13137699163928762    0.12121821869819312    
  0.10869902464368238    0.0973289863500989    0.08927155978952235    0.08487496125357391    0.08303276535835281    
  0.08254434514583896    0.08303275683740245    0.08487496252076512    0.08927157744558348    0.09732897664759783    
  0.10869901612118528    0.12121819816100457    0.13137702576002744    0.1353762534991799    0.09725887474622145    
  0.09561641258998219    0.0914999507418915    0.08687799451336144    0.0835417342767816    0.08231118271105563    
  0.08303275712018936    0.08439219350188522    0.08499403529699508    0.08439217178961936    0.08303278223256857    
  0.08231119853553436    0.08354174861569394    0.08687798610822178    0.0914999597224494    0.09561643739807886    
  0.09725887474622145    0.08600029595277757    0.08499400706419288    0.08254435334635597    0.08020625200366362    
  0.079314604895714    0.08020626350262372    0.08254435517367732    0.08499400532558146    0.08600028357405115    
  0.08499400873700401    0.08254434460652442    0.0802062910743319    0.07931460752488448    0.08020625186973228    
  0.08254435001958653    0.08499400773061004    0.08600029595277757    0.0972588825375197    0.09561642551661274    
  0.09149995122269308    0.0868779730121505    0.08354174911482848    0.08231118910009451    0.08303275149415366    
  0.08439219838985962    0.08499402712509346    0.08439216801699716    0.0830327763459053    0.0823111856441009    
  0.0835417367930238    0.08687797723884562    0.09149994530693786    0.09561644752200678    0.0972588825375197    
  0.13537624824483122    0.131377009101502    0.12121820695892287    0.10869902444657667    0.09732900380782675    
  0.0892715686905907    0.08487494567958251    0.08303278678266182    0.08254436453095515    0.08303276362648178    
  0.08487496726892814    0.0892715375130034    0.09732899071268773    0.10869903155137702    0.12121821221090817    
  0.13137704350386364    0.13537624824483122    0.21097854516752104    0.2022262871711404    0.1794980453476435    
  0.15056232983116746    0.12331724111893101    0.10256319939563914    0.08927155026674995    0.08231116781085704    
  0.08020629014390983    0.08231115389858042    0.08927157481702085    0.10256318737951625    0.12331725811276371    
  0.1505623419545807    0.17949797342992713    0.2022263364046017    0.21097854516752104    0.3179033200925376    
  0.30556801601914624    0.26905809058378555    0.21626577199632827    0.16372200825613054    0.12331725720146616    
  0.09732896626155593    0.08354175974049907    0.07931460719189921    0.08354172953204822    0.097329008523676    
  0.12331727135958019    0.16372200513275925    0.2162657504170706    0.26905809681738874    0.30556806390162616    
  0.3179033200925376    0.36461554903334314    0.36844422929860193    0.35468205944028264    0.2958877543142649    
  0.21626573817808803    0.15056233595526614    0.10869901220035187    0.08687797077854445    0.08020628393870306    
  0.08687797625183091    0.10869902846604441    0.15056231583296242    0.2162657103134794    0.29588769989506797    
  0.3546820336849575    0.36844418972073134    0.36461554903334314    0.24313429197925457    0.2834066681619684    
  0.3569542705867321    0.35468208020015835    0.26905806054428333    0.17949799108379788    0.12121819499292873    
  0.09149993200761164    0.0825443536892308    0.09149990039715707    0.12121821051668098    0.17949800509707092    
  0.2690580783144235    0.35468206714983186    0.3569542946502042    0.2834067010991555    0.24313429197925457    
  0.10036010536865965    0.14838631173297062    0.28340674038512814    0.368444280485621    0.30556806934161823    
  0.20222635184641527    0.13137706682014544    0.0956164437314807    0.08499401367628252    0.0956164162857026    
  0.13137704324363803    0.20222637581709832    0.3055680490245771    0.3684442367018193    0.28340668835434074    
  0.14838631833458438    0.10036010536865965    0.058326642262349244    0.10036009505261884    0.24313428236014442    
  0.3646155336985093    0.3179032765384528    0.2109785118202641    0.13537623009583308    0.09725886301049765    
  0.08600029029034291    0.09725885879131524    0.13537624830133693    0.21097849763113147    0.31790326158421056    
  0.3646154435172385    0.24313429373982762    0.10036008441541645    0.058326642262349244    0.10036008827753579    
  0.14838631028939708    0.2834066833459396    0.36844426059456276    0.30556805405446    0.20222633423639302    
  0.13137703058029437    0.09561644222643981    0.08499402386713363    0.09561644715935201    0.1313770392164428    
  0.2022263337207432    0.30556804742977284    0.3684442098190097    0.2834067170936659    0.14838633042384733    
  0.10036008827753579    0.14838634607170495    0.19752234483702502    0.3159869624487181    0.3675428978848229    
  0.29352862495304366    0.19441842938148526    0.1280069125303594    0.09442019897743205    0.08439221723035713    
  0.0944201729917957    0.12800690626473216    0.19441840928016388    0.2935286656545955    0.36754290870527695    
  0.3159869449575759    0.19752235403975568    0.14838634607170495    0.28340673568772345    0.3159869383454333    
  0.36669845933302736    0.34563891230502664    0.25870564556569287    0.17404677211018119    0.1194316878329207    
  0.09148447232386137    0.08303277930203005    0.09148444764387757    0.1194316885220588    0.17404675484423834    
  0.2587056728196189    0.3456389606762855    0.3666984214549555    0.31598697308909424    0.28340673568772345    
  0.3684442561175041    0.3675428387353563    0.3456389535328317    0.2851004941344973    0.20951729079137665    
  0.1481652747140096    0.10904420420574223    0.08858233888873385    0.08231118992211867    0.08858231454992065    
  0.10904426186681641    0.14816526902214736    0.20951725283720748    0.28510055850436267    0.34563895898380753    
  0.3675428595604482    0.3684442561175041    0.30556809215159436    0.2935286219403565    0.25870561711464135    
  0.20951728425746877    0.16116019243219734    0.12403421598441113    0.10010074658223919    0.08741396852856834    
  0.08354174005679836    0.0874139523724718    0.10010075056106368    0.12403421539685476    0.16116013721384312    
  0.2095172802002648    0.25870563047886475    0.2935286574120604    0.30556809215159436    0.20222639510135454    
  0.19441841185855005    0.17404680208151604    0.14816525366939498    0.12403420362794788    0.10587782889088358    
  0.09441435051359533    0.08858233795096872    0.08687799827602039    0.0885823162992418    0.09441433850941712    
  0.10587782299924955    0.1240341906851806    0.14816526473624977    0.17404677024481147    0.1944184295792473    
  0.20222639510135454    0.13137706067628357    0.1280068739808635    0.11943171845146942    0.109044244433727    
  0.10010075965821379    0.0944143663658666    0.09198162600922642    0.0914844690477212    0.09149993379645872    
  0.09148445196459794    0.09198162893329802    0.09441434321121346    0.10010076892342493    0.10904423636585085    
  0.11943168641292307    0.12800691697106492    0.13137706067628357    0.09561646410391772    0.09442016059077134    
  0.09148448729212483    0.08858234439987957    0.08741395775545861    0.08858233133308055    0.09148448371798051    
  0.09442020602681987    0.09561647942961418    0.09442018101811961    0.0914844796954216    0.08858235392436051    
  0.0874139589469631    0.08858234674381799    0.09148446883387838    0.09442018874888283    0.09561646410391772    
  0.08499402670540383    0.0843921910442036    0.08303277465841999    0.08231116601539049    0.08354173933750683    
  0.0868779530255128    0.0914999377454309    0.09561643772481003    0.09725885702931274    0.0956164312761422    
  0.09149993507131954    0.0868779731457962    0.08354174884558098    0.08231117255414876    0.08303276648780357    
  0.08439218259715087    0.08499402670540383    0.09561647258108663    0.09442017279126752    0.09148446494764324    
  0.08858233030525799    0.08741396825811651    0.08858235315749749    0.09148445706804527    0.0944202059260721    
  0.09561647077235658    0.09442019520521915    0.09148447365629007    0.08858235650570537    0.08741395041133197    
  0.08858235008037212    0.09148446890056093    0.09442018991148045    0.09561647258108663    0.13137706069196228    
  0.12800690119848784    0.11943169526536562    0.10904421480863057    0.10010078445348132    0.09441436087885399    
  0.09198160378617695    0.09148448623068463    0.09149994858614992    0.09148445884717843    0.09198162431014836    
  0.09441432816752937    0.10010076991953862    0.1090442357252218    0.11943168256188523    0.12800692545722916    
  0.13137706069196228    0.20222636415111767    0.19441838365295522    0.174046802232762    0.1481652768676095    
  0.12403419031599747    0.10587785354076416    0.09441435270639408    0.0885823283048052    0.08687796384888676    
  0.08858232819155173    0.09441436385225226    0.10587780851758329    0.12403422601423253    0.1481652795908221    
  0.17404673411054405    0.19441842541699436    0.20222636415111767    0.3055680702895714    0.29352861916170875    
  0.2587056298669524    0.20951726959499048    0.1611601438039239    0.12403422021695733    0.10010076312265408    
  0.08741397415114013    0.0835417487538936    0.08741394639997303    0.10010076046845447    0.12403420986438506    
  0.1611601917644188    0.2095172782791956    0.25870561880135556    0.2935286559749954    0.3055680702895714    
  0.36844431736505606    0.36754284476274035    0.34563892678800545    0.2851005324194757    0.20951724365912952    
  0.1481652624303134    0.10904421924092185    0.08858235373657768    0.08231120462515519    0.08858233839572285    
  0.10904424533212469    0.14816526111629708    0.2095172520566668    0.28510053299015303    0.34563891506654715    
  0.36754283727291104    0.36844431736505606    0.2834067105994721    0.3159869203662197    0.36669845484445085    
  0.34563891879872083    0.25870563094618565    0.17404677170355937    0.11943168471450083    0.09148446563021734    
  0.08303277575806874    0.09148442940345668    0.11943170634087524    0.17404677180371717    0.25870561958861565    
  0.34563897210638533    0.3666984509662885    0.3159869808789285    0.2834067105994721    0.14838637166316118    
  0.19752232403281772    0.3159869806013437    0.3675428871832201    0.29352864412121193    0.19441843694971067    
  0.1280069250862147    0.09442019120370458    0.08439220075961426    0.09442016638740186    0.12800693656018733    
  0.19441845109808092    0.2935286388611932    0.36754284140800575    0.3159869868913847    0.19752233203540126    
  0.14838637166316118    0.10036008827753579    0.14838631028939708    0.2834066833459396    0.36844426059456276    
  0.30556805405446    0.20222633423639302    0.13137703058029437    0.09561644222643981    0.08499402386713363    
  0.09561644715935201    0.1313770392164428    0.2022263337207432    0.30556804742977284    0.3684442098190097    
  0.2834067170936659    0.14838633042384733    0.10036008827753579    0.24313429840705697    0.28340669982962946    
  0.35695432871857086    0.3546820658454685    0.2690580908872435    0.17949799984147613    0.12121820659471608    
  0.0914999291352971    0.08254436544461048    0.09149993457574163    0.1212182064740045    0.17949797558166133    
  0.2690580798816    0.3546820436375045    0.35695428820675185    0.28340670459611944    0.24313429840705697    
  0.28340672152237495    0.3159869179243455    0.36669842764452    0.3456389371360819    0.25870557580627146    
  0.1740467471111363    0.11943169572920619    0.0914844519528422    0.08303278911273006    0.09148443815437612    
  0.11943170169793842    0.17404677277868166    0.25870561617787413    0.3456389268384823    0.36669842837053607    
  0.3159869836886633    0.28340672152237495    0.35695433778234836    0.3666984312746589    0.3649173743750925    
  0.3121464989807287    0.23014636993267065    0.16000153914198673    0.11521925470122563    0.09198162582511292    
  0.08487497338646474    0.09198159413938428    0.11521928972528625    0.16000151353597492    0.23014639506268394    
  0.31214648987394045    0.3649173195792592    0.3666984210144283    0.35695433778234836    0.3546820704198264    
  0.34563886651490516    0.312146522269464    0.25429038389758785    0.1918224184774933    0.14265422748218082    
  0.11110838576651165    0.0944143502185256    0.08927156138079459    0.09441433091524079    0.11110843813525616    
  0.14265416889313748    0.19182239863030998    0.25429041227329674    0.3121464971030587    0.3456389159938277    
  0.3546820704198264    0.26905812182336847    0.2587055827181315    0.23014639511133472    0.1918224436808534    
  0.15518658032869795    0.12731026913221796    0.1094182241387431    0.10010077132626981    0.09732900312076687    
  0.10010075249899787    0.10941823859551193    0.1273102754676551    0.15518655951685642    0.19182240278199447    
  0.2301463801872576    0.2587056444104178    0.26905812182336847    0.17949802460760067    0.17404675924969645    
  0.16000153281745208    0.1426541755648878    0.1273102206169966    0.11676791335712063    0.11110839382648686    
  0.10904421383422779    0.10869905059707884    0.1090442175515426    0.11110841441011791    0.11676794320928248    
  0.12731026212964291    0.14265420920002395    0.16000152330288991    0.17404673727012074    0.17949802460760067    
  0.12121821118669684    0.11943164306592623    0.11521929459794661    0.11110839493721368    0.10941823896128344    
  0.11110840521504477    0.11521928335118617    0.11943168646659245    0.12121819838152077    0.1194316538541991    
  0.11521928625457048    0.11110840139545046    0.10941823723553193    0.11110839122898866    0.11521925822319404    
  0.11943168963791474    0.12121821118669684    0.09149995034822735    0.09148443355934395    0.09198163632205895    
  0.09441435425768135    0.10010075151005286    0.10904424936997704    0.11943168261393577    0.12800690891386102    
  0.13137707444682648    0.12800688598741758    0.11943169280553297    0.10904425456479071    0.10010076339640536    
  0.0944143493881657    0.09198163045857681    0.09148445598132436    0.09149995034822735    0.08254437032857152    
  0.08303276475052267    0.08487497003431409    0.08927154267668232    0.09732900040467779    0.1086990106041033    
  0.1212182000373455    0.13137703577250492    0.13537622144408817    0.13137702349633437    0.12121821689349187    
  0.10869903140402373    0.09732899935801616    0.08927155737618625    0.08487496938967981    0.08303276060973135    
  0.08254437032857152    0.09149995524761316    0.09148443893489767    0.09198163892024948    0.09441435803793373    
  0.10010075936817772    0.10904423765898247    0.11943166929544805    0.12800693323443263    0.1313770561373309    
  0.1280068866475624    0.11943167642890425    0.10904422352157901    0.10010073906115034    0.09441433795306681    
  0.09198162431799603    0.0914844503674462    0.09149995524761316    0.12121821889988504    0.11943165873768517    
  0.11521929151868529    0.11110839120392083    0.10941823008010824    0.1111084046012045    0.1152192626843301    
  0.11943169105653212    0.12121821034074759    0.11943169753575494    0.11521930326251531    0.11110838852785343    
  0.10941821836104533    0.11110840942827621    0.11521924871534832    0.11943169243599473    0.12121821889988504    
  0.17949799524762833    0.17404673309270513    0.1600015697384578    0.14265418370264923    0.1273102565138619    
  0.11676795207731033    0.11110839950350518    0.10904421481429315    0.10869902385828428    0.10904418754557849    
  0.11110841198271997    0.11676792838554388    0.12731027316070187    0.14265423089427642    0.1600015043135947    
  0.17404678014310362    0.17949799524762833    0.2690581039675917    0.25870560231214373    0.23014641145531642    
  0.19182241392434526    0.15518655756677102    0.12731026171680626    0.10941821233838943    0.10010077223647118    
  0.097329002466406    0.10010073861064639    0.1094182364472426    0.12731028747700493    0.15518658789963324    
  0.19182240962488956    0.23014639827633662    0.2587056517058421    0.2690581039675917    0.35468211006794187    
  0.34563892487093156    0.31214652765712536    0.2542904179301759    0.19182239650304203    0.14265420749648797    
  0.11110839467117173    0.09441433942040077    0.08927158332775491    0.09441434681137233    0.11110839144519877    
  0.14265418428722668    0.19182234265916331    0.25429036422965534    0.31214648165556375    0.3456388752784255    
  0.35468211006794187    0.35695431522212484    0.3666983604289445    0.36491735308849194    0.3121465001759918    
  0.23014640158605512    0.1600015071475914    0.11521925500939827    0.09198162465112689    0.08487496265329657    
  0.09198158660562727    0.11521928684919526    0.16000151540775123    0.2301464058127632    0.3121465043719358    
  0.364917342404923    0.36669842660174107    0.35695431522212484    0.2834067630847069    0.31598690465003565    
  0.36669845010907154    0.34563897596216625    0.2587056404271908    0.17404676684670708    0.11943170433569987    
  0.09148445731454599    0.08303277663173682    0.09148444121799472    0.11943169800643916    0.17404678635271884    
  0.2587056089721502    0.34563895409260004    0.3666984186668167    0.3159869256812255    0.2834067630847069    
  0.24313429840705697    0.28340669982962946    0.35695432871857086    0.3546820658454685    0.2690580908872435    
  0.17949799984147613    0.12121820659471608    0.0914999291352971    0.08254436544461048    0.09149993457574163    
  0.1212182064740045    0.17949797558166133    0.2690580798816    0.3546820436375045    0.35695428820675185    
  0.28340670459611944    0.24313429840705697    0.36461549401383464    0.3684441883907598    0.3546820263365943    
  0.2958877366625444    0.2162657170340589    0.15056234023086765    0.10869902311152727    0.08687796530979204    
  0.08020628006904212    0.08687797229390883    0.10869902124895121    0.15056234211740896    0.21626575240425908    
  0.2958877115330571    0.35468206784758777    0.36844422027657076    0.36461549401383464    0.3684442760460379    
  0.36754284685093697    0.3456389483889205    0.28510053239901934    0.20951724552606105    0.14816525249282267    
  0.10904422719520948    0.08858233093361112    0.08231120039669558    0.08858231179455199    0.10904424755118197    
  0.14816528932225892    0.20951726064698    0.2851005143067129    0.34563894570669546    0.3675428403845712    
  0.3684442760460379    0.3546820884060302    0.3456389326116618    0.312146484784946    0.25429036479322725    
  0.19182240106094148    0.14265423514515738    0.11110839559666136    0.09441435826021806    0.08927157175570198    
  0.09441432489600712    0.11110838274202219    0.1426541905240189    0.19182244027493403    0.2542903794149    
  0.3121464667143143    0.34563894032720827    0.3546820884060302    0.295887710197473    0.2851005011790232    
  0.25429044230151837    0.21140617372124942    0.169500281358562    0.13739467027988606    0.11676791395711865    
  0.10587781506600169    0.10256321191978608    0.10587780628495873    0.11676795216039963    0.13739465312100066    
  0.16950023787343366    0.21140620436583388    0.254290383180311    0.2851005230855501    0.295887710197473    
  0.216265767732176    0.2095172479873783    0.1918223944001109    0.16950028024261599    0.1493807846802231    
  0.1352462377862208    0.12731024153793513    0.12403420846620289    0.12331726986532404    0.12403421148681028    
  0.127310258873731    0.13524621553126537    0.1493807778587199    0.16950028112475374    0.191822404401051    
  0.20951728091090296    0.216265767732176    0.15056237359101912    0.1481652588958611    0.14265422948717127    
  0.13739465816016186    0.135246196500575    0.13739464386763575    0.14265421665504718    0.1481652578437811    
  0.15056237278156778    0.14816523639097878    0.14265420358293357    0.13739464989605302    0.13524619793051104    
  0.13739465538663015    0.1426541823279345    0.14816527035189536    0.15056237359101912    0.10869903328631608    
  0.10904418676871998    0.11110840222362085    0.11676795570572553    0.12731029276089562    0.14265422772281558    
  0.16000152113985452    0.1740467567885193    0.17949800790938805    0.17404673663771597    0.1600015089515694    
  0.14265421893439922    0.1273102564418951    0.11676793287648432    0.11110838065862282    0.10904422521334034    
  0.10869903328631608    0.08687798988180748    0.08858231149757849    0.09441436910856864    0.10587784323183146    
  0.12403421997429075    0.14816527674491003    0.17404677013832595    0.19441844479767786    0.20222636218732248    
  0.19441840896413304    0.17404678741735433    0.14816530620203855    0.1240341930161787    0.10587782723099724    
  0.09441435576194984    0.08858234253420112    0.08687798988180748    0.08020628506569276    0.08231117123453234    
  0.08927156243250095    0.10256319507012412    0.12331726234056972    0.15056232651383752    0.17949801132297802    
  0.20222632657090123    0.21097853266368674    0.20222630675815229    0.1794979751900067    0.1505623487469539    
  0.12331723851215336    0.10256319446391972    0.08927155803770499    0.08231117082106765    0.08020628506569276    
  0.08687799224529552    0.08858231068364429    0.0944143619895849    0.10587784203513112    0.12403421157415224    
  0.14816526120940665    0.17404678411189908    0.1944184119195712    0.20222636511507452    0.19441841439514165    
  0.17404676513866385    0.1481652772026102    0.12403419606529784    0.1058778158281093    0.09441433732030488    
  0.08858233450312472    0.08687799224529552    0.10869903177238474    0.10904421079880723    0.11110838579576066    
  0.11676791553611428    0.12731029431596763    0.1426541935228366    0.16000149929263213    0.17404678195427895    
  0.17949801671358542    0.1740467517059663    0.16000150248434425    0.14265417499603983    0.12731026211535573    
  0.1167679538889898    0.11110839497833004    0.1090442442237644    0.10869903177238474    0.15056234879987526    
  0.14816524534774622    0.14265422626406454    0.13739466562729555    0.13524618906808228    0.13739468617582673    
  0.1426541854512523    0.14816526228125954    0.15056232346267562    0.14816525105233877    0.14265423391117868    
  0.13739465739881307    0.13524622213798204    0.1373946747675485    0.14265418641517527    0.14816526580499245    
  0.15056234879987526    0.21626576060649433    0.2095172654234374    0.1918224035670542    0.1695002573663158    
  0.14938078120366188    0.13524622740524037    0.12731026550481087    0.12403422131552061    0.12331726320501489    
  0.12403419670009999    0.12731025427985912    0.13524621381108518    0.14938078539056884    0.16950028314111926    
  0.19182238155661382    0.20951728717075102    0.21626576060649433    0.2958877839555584    0.28510046941770767    
  0.2542903983558308    0.21140617481281418    0.16950024457853105    0.13739466100163164    0.11676790798909928    
  0.1058778343537545    0.10256322968911516    0.1058778249418023    0.11676794552206275    0.13739466342259962    
  0.16950023865274177    0.2114061547211182    0.25429040442348316    0.2851005034218611    0.2958877839555584    
  0.3546820747529084    0.3456388655360578    0.31214649152762786    0.25429041360877735    0.1918223984094255    
  0.14265421029870348    0.11110837569110385    0.09441434161138532    0.08927156438457501    0.09441431308680145    
  0.11110839451597036    0.14265422792685667    0.19182243035057014    0.25429042528212004    0.3121465046153344    
  0.3456389324132261    0.3546820747529084    0.36844427432084004    0.36754281700666513    0.345638962583921    
  0.2851005780966584    0.20951724499451144    0.1481652751486395    0.10904425055466568    0.08858233936093739    
  0.08231119194561609    0.08858231623572461    0.10904424440028697    0.14816529741858558    0.20951727163833986    
  0.28510054468660107    0.34563894216810875    0.3675428651858693    0.36844427432084004    0.36461549401383464    
  0.3684441883907598    0.3546820263365943    0.2958877366625444    0.2162657170340589    0.15056234023086765    
  0.10869902311152727    0.08687796530979204    0.08020628006904212    0.08687797229390883    0.10869902124895121    
  0.15056234211740896    0.21626575240425908    0.2958877115330571    0.35468206784758777    0.36844422027657076    
  0.36461549401383464    0.3179032855713363    0.30556803536875576    0.2690580835403787    0.21626577630392796    
  0.16372201119295338    0.12331723042529219    0.09732898953677176    0.08354172849143415    0.07931461842561159    
  0.08354173694031249    0.09732898299785207    0.12331724052945658    0.16372199258740366    0.21626573868892895    
  0.269058056099514    0.3055680208998058    0.3179032855713363    0.30556807140407266    0.29352858799439174    
  0.25870562439498823    0.2095172901613835    0.16116017745602043    0.12403421801904456    0.10010076156219641    
  0.08741395233880368    0.08354175381350892    0.08741392922848173    0.10010076959018953    0.12403420424351559    
  0.1611601804962728    0.2095172883432734    0.25870562513910456    0.29352864394959977    0.30556807140407266    
  0.26905811452208106    0.2587055963960026    0.23014639594256084    0.1918223860291816    0.15518656961343485    
  0.1273102938409528    0.10941821908669688    0.10010076174891896    0.09732900239710376    0.10010072353866668    
  0.10941823868994825    0.12731025656949452    0.15518659560235867    0.19182241383617837    0.23014636648092493    
  0.2587056535063377    0.26905811452208106    0.21626578559062135    0.20951723651047507    0.19182242920464238    
  0.16950025310925135    0.14938078273195352    0.1352462083108342    0.12731024804688287    0.124034208517299    
  0.12331725672592629    0.12403416943876179    0.1273102975081321    0.135246193351786    0.1493807920853077    
  0.16950025893662857    0.19182239541939097    0.20951724088157903    0.21626578559062135    0.16372201559081978    
  0.16116015718187016    0.1551865823353815    0.149380809498646    0.146986664377681    0.14938080795788847    
  0.15518656489225693    0.16116017477609507    0.16372202012122453    0.16116016440932113    0.15518656265865496    
  0.1493808073661432    0.1469866758689796    0.1493807868260976    0.15518655111785185    0.1611601888151059    
  0.16372201559081978    0.12331726218643699    0.12403420116844138    0.12731027959685035    0.13524618393461957    
  0.14938075580916266    0.16950025265054267    0.1918223900715975    0.2095172565712866    0.21626578996536452    
  0.20951726127135745    0.19182240801826572    0.16950026120970374    0.14938076893271188    0.13524618958619508    
  0.1273102552166728    0.1240342142496773    0.12331726218643699    0.09732898991130014    0.10010071523370019    