#     DFTpy    
  CRYSTAL 
    
  PRIMVEC    
  4.2481819532281    -2.334034e-10    4.4239930344827576e-10    
  -2.334034e-10    4.248181952981249    2.1316937586206898e-10    
  8.084289482758619e-10    3.896048965517241e-10    7.782751670763625    
  PRIMCOORD    
  4    1    
  Si    2.1240909765331133    2.1240909776595793    2.3915948339561677    
  Si    7.876677388556041e-10    -7.289759937029646e-10    1.4997809988094604    
  Si    1.2080971735519922e-10    5.50550958458543e-10    6.282970667539726    
  Si    2.1240909771699634    2.1240909760459017    5.391156841877461    
  BEGIN_BLOCK_DATAGRID_3D    
  3d_datagrid_density    
  BEGIN_DATAGRID_3D#0    
  19    19    37    
  0.0    0.0    0.0    
  4.2481819532281    -2.334034e-10    4.4239930344827576e-10    
  -2.334034e-10    4.248181952981249    2.1316937586206898e-10    
  8.084289482758619e-10    3.896048965517241e-10    7.782751670763625    
  0.170839893383169    0.16047430078818742    0.13419081553234993    0.10252173127717727    0.0743523085061952    
  0.05367892385710035    0.04034521414225272    0.032468461830673305    0.02841258116696052    0.02718219342366509    
  0.028412571553520415    0.03246845612403103    0.04034520633919476    0.05367893499448811    0.07435230387115503    
  0.10252174888047988    0.13419082045015446    0.16047432305401482    0.170839893383169    0.16047431061191972    
  0.15101436484169026    0.12688552160963712    0.09760472633714701    0.07140335450066822    0.05204450546842014    
  0.03946962454330056    0.03200042155655268    0.028143697992481384    0.026971008456200138    0.028143699354845095    
  0.03200041725504103    0.03946962228741303    0.05204451083560389    0.07140334513533947    0.09760473408704065    
  0.12688554371882824    0.15101436898871168    0.16047431061191972    0.13419081441525932    0.12688551926069855    
  0.10801206268908073    0.08474976450078851    0.06360282770156336    0.04768802054051118    0.03713920611329707    
  0.030774985987977937    0.027466752137082332    0.026459737272638773    0.027466745066041815    0.03077499320251386    
  0.03713920332857149    0.04768802791665559    0.06360282760351871    0.08474976183596199    0.1080120708122595    
  0.12688552993727556    0.13419081441525932    0.1025217396883085    0.09760473701898609    0.08474975872051511    
  0.06862321891608124    0.05361980790217104    0.041984195807347295    0.034041746913932545    0.029158716345143415    
  0.026608321151898633    0.02583544110130673    0.026608314835908597    0.02915872041636863    0.03404174111419116    
  0.0419841999675913    0.05361980369682348    0.0686232236948882    0.08474976446261796    0.09760473608918355    
  0.1025217396883085    0.074352293775909    0.0714033399286583    0.06360282919750147    0.05361981302472981    
  0.04403920535973917    0.036328034964553564    0.030911969050459957    0.027533601235613485    0.025758022444980815    
  0.025218906520170333    0.02575801761403534    0.02753359979383918    0.030911965983725115    0.03632803356937657    
  0.044039203404285354    0.0536198052415547    0.06360282810622404    0.07140335227644802    0.074352293775909    
  0.05367891871099432    0.05204451437290168    0.047688015844160325    0.041984201388375275    0.03632803429942177    
  0.03163249929465226    0.028276148666194323    0.026184392756021094    0.025086975916472812    0.02475026118468287    
  0.025086976045863445    0.026184401937989515    0.028276144195694332    0.031632500295005646    0.03632803932567287    
  0.041984201008574015    0.04768802975756669    0.05204451292064866    0.05367891871099432    0.04034520329968203    
  0.03946961469790559    0.037139204733899346    0.03404174248024314    0.030911971089681845    0.02827614489215859    
  0.026384762877640675    0.025239707791671232    0.02467234764292544    0.02450843957826912    0.024672337567410992    
  0.025239711075054697    0.026384758738036303    0.028276150847723166    0.03091196745100678    0.03404174592379508    
  0.037139204885058764    0.03946962293026356    0.04034520329968203    0.032468455812468384    0.03200041308466908    
  0.030774990008101497    0.02915872170000612    0.02753359300727083    0.026184388997767292    0.025239706974334905    
  0.024698163498445717    0.024472512382006047    0.024423003131972612    0.0244725088109198    0.02469816002971661    
  0.02523971082572483    0.026184400890199536    0.027533603722069443    0.02915872601082695    0.030774994168446906    
  0.03200041413022611    0.032468455812468384    0.02841257624961149    0.02814370159206672    0.027466752599197963    
  0.026608318576181223    0.02575801739257241    0.025086976360379834    0.024672346418671963    0.024472512225085074    
  0.024418674152892613    0.024423859687412355    0.02441866298397222    0.024472512778346067    0.024672342757775148    
  0.0250869820489077    0.025758016116296273    0.026608320518094697    0.027466754609680254    0.028143702875675844    
  0.02841257624961149    0.027182189471638137    0.026971002586916672    0.026459735642747693    0.025835437923339952    
  0.025218912586188035    0.024750264795860365    0.024508438696616237    0.024423002956519044    0.024423858190260484    
  0.02444246243814461    0.024423850854852724    0.024423003128394297    0.02450843948447788    0.024750262413176877    
  0.02521891734867179    0.025835441413327033    0.026459738130398334    0.026971005609715677    0.027182189471638137    
  0.028412579004630453    0.028143702979535393    0.027466752060940975    0.02660832054200922    0.025758016299210762    
  0.025086977126370657    0.024672345199475452    0.02447251990935555    0.02441867616511309    0.024423850237282895    
  0.02441866621155626    0.02447250825722101    0.02467234202523632    0.02508697615084267    0.025758022150291264    
  0.026608318533855715    0.027466756128370302    0.028143702478392683    0.028412579004630453    0.03246845754277684    
  0.032000416354508655    0.0307749928611377    0.02915872220193887    0.027533598059876173    0.026184398206150088    
  0.02523971421789631    0.024698160364593626    0.024472504708871776    0.024423000801146694    0.02447250320538225    
  0.024698160532028026    0.025239710397671016    0.026184401780054805    0.027533602240568274    0.029158722685703256    
  0.0307749938542733    0.03200041342337821    0.03246845754277684    0.040345206995326614    0.03946961988818143    
  0.03713920820335279    0.03404174687502506    0.03091196986698031    0.028276147964996477    0.026384759762265387    
  0.02523970816137947    0.024672346584079366    0.02450844248637743    0.024672336489033195    0.025239705113693302    
  0.02638475641812333    0.02827614911501754    0.030911967806334997    0.034041754819054804    0.03713920928895079    
  0.03946962144932489    0.040345206995326614    0.05367891623648759    0.05204450797557993    0.04768802214370336    
  0.04198420357162568    0.036328040617494645    0.031632495882884006    0.0282761493844809    0.026184404373418846    
  0.02508697437961932    0.024750257364932093    0.025086969896349245    0.02618439750810152    0.028276147658266915    
  0.03163250276874361    0.03632804192632874    0.041984205766028335    0.047688027689572504    0.05204451363963458    
  0.05367891623648759    0.07435227691807263    0.07140335047429582    0.06360282234387081    0.05361980459818897    
  0.04403920343779642    0.036328036559484675    0.03091196953674589    0.027533594305013998    0.025758021212088235    
  0.025218909971825517    0.025758019276425653    0.027533605662311673    0.030911959277897638    0.0363280398335661    
  0.04403920364200694    0.05361980861309583    0.06360283572589122    0.07140334824561657    0.07435227691807263    
  0.10252172316215674    0.09760471527351734    0.0847497545295383    0.06862321954630494    0.05361981023125054    
  0.041984197561795486    0.03404174741230493    0.029158719226247742    0.026608321375386414    0.025835438583625615    
  0.026608312525867626    0.02915871663121322    0.034041748230263486    0.04198420415775776    0.05361980534890239    
  0.0686232129630911    0.08474975760831847    0.09760472198772928    0.10252172316215674    0.13419080697273997    
  0.12688550878259167    0.10801205830621857    0.0847497601575616    0.0636028262683917    0.047688020217436455    
  0.03713921076554982    0.030774990767760704    0.02746675057966561    0.02645973834076652    0.02746674769599782    
  0.030774988000638322    0.03713920553775167    0.04768802254332941    0.06360282503460585    0.08474976832964484    
  0.1080120693128404    0.12688550260317275    0.13419080697273997    0.160474289815776    0.1510143604353538    
  0.126885528075033    0.09760472322979122    0.07140335535784788    0.052044514394473405    0.03946963488281033    
  0.03200041705745667    0.028143706337842793    0.02697100981255116    0.028143696976559034    0.03200042309320965    
  0.0394696191209986    0.05204451561185906    0.07140335100904571    0.09760473352163077    0.12688552429978875    
  0.1510143745486279    0.160474289815776    0.170839893383169    0.16047430078818742    0.13419081553234993    
  0.10252173127717727    0.0743523085061952    0.05367892385710035    0.04034521414225272    0.032468461830673305    
  0.02841258116696052    0.02718219342366509    0.028412571553520415    0.03246845612403103    0.04034520633919476    
  0.05367893499448811    0.07435230387115503    0.10252174888047988    0.13419082045015446    0.16047432305401482    
  0.170839893383169    0.1932217347752485    0.18123102381749434    0.15074308912664275    0.11395652340929249    
  0.08139632600050635    0.05764843221145219    0.04245877902516564    0.0336486277255086    0.0291765036950276    
  0.02781402315539967    0.02917649427348224    0.033648622211172    0.04245876919159829    0.05764843625619464    
  0.08139632000602177    0.113956545089082    0.15074309615749742    0.18123103254628176    0.1932217347752485    
  0.18123103172564936    0.17023256397942313    0.1421887005314223    0.1082054715923683    0.07796731053760608    
  0.05578004132257679    0.04149840706553587    0.033165205629775533    0.028915627341323275    0.02761827000505099    
  0.028915626466449195    0.033165200990878864    0.041498409494714644    0.05578005857367488    0.0779673122473923    
  0.10820547698231334    0.14218870865661817    0.17023257233215572    0.18123103172564936    0.15074308908561207    
  0.14218870029883143    0.12022439534170373    0.09330776534549505    0.0689916077390693    0.050831339832080144    
  0.038930839012412566    0.0318732755934797    0.028237720271608008    0.027124091013320254    0.02823771343720536    
  0.031873277577798405    0.0389308304243421    0.05083134377992323    0.06899160622745341    0.09330776880024129    
  0.12022440811612635    0.14218870159164232    0.15074308908561207    0.11395653050960312    0.10820547783860981    
  0.09330775306881878    0.07475788440934653    0.05760049532849318    0.04441679116898555    0.035544012169439455    
  0.03017361198020188    0.027380682876534196    0.02652644950321669    0.027380674047084184    0.030173611793304658    
  0.03554400680367205    0.04441679048386628    0.057600491409566544    0.07475789452885734    0.0933077659048512    
  0.10820547617937737    0.11395653050960312    0.08139630035181446    0.07796730081975192    0.06899159715182931    
  0.05760048916567615    0.046759341804494904    0.0381456458034062    0.032187265568863706    0.028519282232306358    
  0.026599213286234793    0.026014024201303047    0.026599210921050706    0.028519281199691982    0.03218726719590685    
  0.03814565269025876    0.04675934380344399    0.05760048593759458    0.0689916099743647    0.07796732241155635    
  0.08139630035181446    0.05764841790910596    0.0557800521160689    0.05083133676124022    0.04441679780186513    
  0.03814564609166464    0.03302801200272677    0.029429169817950417    0.027215721954174637    0.02607255752992643    
  0.02573001650926826    0.02607255669173697    0.02721572333352375    0.02942916416999861    0.033028013372341423    
  0.03814564864189739    0.044416801588431795    0.0508313441800395    0.05578005200876842    0.05764841790910596    
  0.04245877513861995    0.04149839290548779    0.038930833243667445    0.03554400899989431    0.03218726763057942    
  0.029429164818067535    0.027504135023343087    0.026377519463864168    0.025848393266956714    0.025701951439921957    
  0.025848388109660496    0.026377524582190434    0.027504130379178152    0.029429172300776414    0.032187266136908754    
  0.03554401029755187    0.03893083403119532    0.04149839860769521    0.04245877513861995    0.03364862259324511    
  0.03316519477253496    0.03187328032283504    0.03017361368912347    0.028519277329879196    0.027215718211501528    
  0.026377529793449466    0.02597341871428056    0.025849776116515365    0.025834603116752623    0.025849775611667004    
  0.02597341729388791    0.026377520673854373    0.027215725220434257    0.028519278730343368    0.03017362181645027    
  0.031873282424872494    0.03316520086013523    0.03364862259324511    0.029176500341841546    0.02891563112889822    
  0.02823771911169216    0.027380682957941556    0.026599211685701705    0.026072562578539165    0.02584839587216408    
  0.025849781071567258    0.025946144045371537    0.026000714043491746    0.02594613249181179    0.025849775580847882    
  0.02584838467107331    0.026072557708813646    0.026599209918170004    0.027380681568513605    0.028237721684146105    
  0.02891563006236967    0.029176500341841546    0.02781401609801204    0.027618266895357707    0.02712409097889595    
  0.02652644720777077    0.026014029996754857    0.025730021761580704    0.025701958418154116    0.025834605619328217    
  0.02600072198341657    0.02607873725984451    0.02600071397061421    0.025834607854730157    0.025701951908439297    
  0.02573002676870303    0.02601402960914195    0.02652645408674786    0.027124094382147034    0.027618265833467    
  0.02781401609801204    0.029176499937446063    0.028915632917072037    0.028237720918015796    0.027380685316546135    
  0.026599215739627872    0.026072559436370404    0.025848388037519866    0.025849786973982356    0.02594613794438175    
  0.026000706172215546    0.025946131690781155    0.025849771719777842    0.025848387061027545    0.026072557018429563    
  0.026599211263931763    0.027380681799214376    0.028237724517489054    0.028915628970790506    0.029176499937446063    
  0.033648618926549155    0.033165197738072756    0.03187328206208897    0.030173617257995382    0.028519278853075664    
  0.02721572870952497    0.026377528055046565    0.025973416705543068    0.025849770678735205    0.02583460434899102    
  0.02584977154246418    0.025973416333445833    0.026377522699058947    0.027215726169373268    0.02851928156158506    
  0.030173618009250266    0.031873284292290874    0.03316519664438445    0.033648618926549155    0.04245877059272561    
  0.041498399247684135    0.03893083807097226    0.03554401380534216    0.032187263647852744    0.0294291673283689    
  0.027504131042080698    0.026377524895709423    0.025848393040219242    0.02570195895702786    0.02584838265065148    
  0.026377519168869924    0.027504126501949874    0.02942916474473227    0.03218725968924501    0.03554401576170376    
  0.038930836986335676    0.04149840119343307    0.04245877059272561    0.057648424941122614    0.05578004911170641    
  0.05083133708700569    0.04441679897599523    0.038145648233628676    0.03302800130632753    0.029429168755622234    
  0.02721572884270028    0.026072555232956613    0.02573001797666249    0.026072551709830936    0.027215727590557518    
  0.029429165043444387    0.03302801101361908    0.03814564930153042    0.04441679824875046    0.050831343883762876    
  0.05578005206052831    0.057648424941122614    0.08139629414245396    0.07796731570775685    0.06899160145905253    
  0.057600487764009285    0.04675934480206244    0.03814564447954221    0.0321872666681462    0.02851927552713443    
  0.026599214449894767    0.026014027076617548    0.02659921215705066    0.028519283493572422    0.032187259582806424    
  0.038145645234827184    0.046759340965503035    0.05760049002271047    0.06899160905216371    0.07796730583621639    
  0.08139629414245396    0.11395652527668516    0.10820545811074098    0.09330775535064832    0.07475788906217376    
  0.05760049555365151    0.04441679184407    0.03554401524647182    0.03017361676356225    0.02738068448522749    
  0.026526449148889738    0.02738067535776492    0.030173609393588034    0.035544008696355316    0.044416797998431234    
  0.05760048703334225    0.07475789514976658    0.09330775262799838    0.10820547014253791    0.11395652527668516    
  0.15074309249410175    0.14218869471601825    0.1202244089665191    0.093307759947169    0.06899160485114159    
  0.05083133160620498    0.038930842266242396    0.03187328269065435    0.028237714874574958    0.027124090484222724    
  0.02823771250260287    0.031873278740792425    0.03893083208724948    0.050831340961235184    0.06899160122486202    
  0.09330777398862036    0.12022440486411433    0.1421887042040205    0.15074309249410175    0.18123101357417618    
  0.1702325686458402    0.14218871049684628    0.10820546440626035    0.07796731717326237    0.05578005624480635    
  0.04149841407487718    0.033165200079777225    0.0289156380439246    0.02761826699579763    0.028915624940091356    
  0.03316520200958058    0.0414984015772011    0.05578006001983827    0.0779673160473136    0.10820548270134096    
  0.14218870438115355    0.17023256851474833    0.18123101357417618    0.1932217347752485    0.18123102381749434    
  0.15074308912664275    0.11395652340929249    0.08139632600050635    0.05764843221145219    0.04245877902516564    
  0.0336486277255086    0.0291765036950276    0.02781402315539967    0.02917649427348224    0.033648622211172    
  0.04245876919159829    0.05764843625619464    0.08139632000602177    0.113956545089082    0.15074309615749742    
  0.18123103254628176    0.1932217347752485    0.2623217783664483    0.24588660361939574    0.20302771175866421    
  0.15007977835151767    0.10329106337326335    0.0697995301345282    0.04890446900463793    0.03721242059878967    
  0.031458812635568836    0.029718812400560787    0.031458798511733596    0.037212416106418726    0.048904456470558764    
  0.06979953297285212    0.10329106458162492    0.15007981597146905    0.20302769998802947    0.24588661910450102    
  0.2623217783664483    0.24588662738103378    0.2304995299580049    0.19065746147066104    0.14169404644904415    
  0.09836981281637379    0.06721160091205454    0.04766357488433808    0.03665108779140775    0.031198573230390898    
  0.02954550954209069    0.03119857396947805    0.03665107756923118    0.04766357071578906    0.06721161104377078    
  0.09836980783837414    0.1416940569227225    0.19065745966062034    0.23049954462776634    0.24588662738103378    
  0.2030276956646835    0.19065744656888287    0.15896730641406542    0.12022563723176523    0.08567339633586521    
  0.06045218833305864    0.04437207967856558    0.035158241825480205    0.030531886183626428    0.029122252583542233    
  0.030531880044166085    0.03515824725900718    0.04437207222417839    0.06045219311858692    0.08567340026206992    
  0.12022564051960001    0.15896731790425364    0.19065745999797495    0.2030276956646835    0.15007978519634183    
  0.1416940444552746    0.12022561847200953    0.09381792261897676    0.06982929722716558    0.05187572558855168    
  0.04015091093101792    0.03328133996150978    0.02977721350556227    0.028703698754845013    0.029777208105792027    
  0.03328134151563703    0.04015090125631755    0.051875727525116516    0.06982928586359133    0.093817939542674    
  0.1202256334897546    0.14169404658439724    0.15007978519634183    0.10329104846197654    0.09836979925473804    
  0.08567339107765883    0.06982928440769015    0.055095006231279005    0.043754616006692316    0.03616324773841956    
  0.031628769312648644    0.029301682161413403    0.028594777428729536    0.029301681191200395    0.03162876231316131    
  0.036163248681231816    0.043754622234817526    0.05509500052684457    0.0698292895901356    0.08567340221714423    
  0.09836981715481177    0.10329104846197654    0.0697995183766774    0.06721161187960897    0.06045218993912643    
  0.05187573277901482    0.04375462014045491    0.037389313578339974    0.03308976475475726    0.030548538359564694    
  0.02930006391951024    0.02894332954903165    0.02930006418579179    0.03054853830495103    0.0330897634525603    
  0.03738931719150911    0.04375461740535869    0.05187573809982453    0.06045219528791302    0.06721160862145276    
  0.0697995183766774    0.04890445785833757    0.04766356001089495    0.044372074012890735    0.04015090572075225    
  0.03616325211783103    0.03308975967242695    0.03112981900457222    0.03013003003690348    0.02975721297405739    
  0.029680757877804893    0.02975720112384043    0.030130031224330747    0.031129811623773884    0.03308977081205577    
  0.036163244963518776    0.04015091226791182    0.04437207409360512    0.04766356794289716    0.04890445785833757    
  0.03721241499359106    0.03665107315671539    0.03515824479657264    0.033281341377347916    0.0316287591002875    
  0.030548533978213298    0.030130034080899978    0.03022674240599326    0.030489119912620617    0.030608872097647476    
  0.03048911589519964    0.030226740752293577    0.030130027094066297    0.030548535979122323    0.031628765484521704    
  0.03328135066987203    0.03515824764973594    0.036651075907961954    0.03721241499359106    0.031458802842577537    
  0.031198576139456008    0.030531887796363608    0.029777217188941996    0.029301679711961133    0.02930006483828779    
  0.02975721191593924    0.030489122822530926    0.031143834094405593    0.031395759088006014    0.03114382885308615    
  0.030489125991466658    0.029757199406534564    0.029300067323896128    0.02930167425275352    0.029777214566197696    
  0.030531888154553596    0.03119857679691261    0.031458802842577537    0.02971880919963757    0.02954550798040642    
  0.029122251384461728    0.028703696573309838    0.028594774830634374    0.028943333272473216    0.02968077003915584    
  0.03060887653878715    0.0313957573516278    0.03170115342440723    0.03139575407078064    0.030608877450521377    
  0.029680759114290266    0.02894333761192885    0.028594781013957522    0.028703698487708956    0.029122255560783957    
  0.029545505631195512    0.02971880919963757    0.0314588080885983    0.031198575677690694    0.03053188672161763    
  0.029777214563709468    0.02930168259829248    0.029300057712781137    0.029757208091957376    0.030489130034492763    
  0.03114383011568773    0.031395754038897085    0.031143822629831057    0.030489121129692546    0.02975719924895684    
  0.029300061059866486    0.029301677120618524    0.02977720988293484    0.030531890746328918    0.031198573545442584    
  0.0314588080885983    0.03721241490903223    0.03665107691629646    0.03515824690917189    0.03328134450832499    
  0.031628760840567684    0.030548540197343124    0.030130033506405144    0.03022673391405874    0.030489110010805995    
  0.030608872913618836    0.0304891096462942    0.03022674488754023    0.030130033258796745    0.030548541052474974    
  0.03162876241679705    0.03328134653839632    0.035158252949877615    0.03665107599367787    0.03721241490903223    
  0.04890446298160046    0.047663567668017354    0.04437207632681361    0.04015090251283318    0.03616325110759946    
  0.03308976351807868    0.03112982067776737    0.030130030230635128    0.029757204810198817    0.02968076395864139    
  0.029757195860492452    0.03013002855355048    0.031129813608407376    0.033089762950456784    0.036163244312005086    
  0.040150909790726594    0.0443720718504358    0.047663574543845684    0.04890446298160046    0.06979951751015269    
  0.06721160482173559    0.060452188218586486    0.05187573546271631    0.04375462547492354    0.03738931046191234    
  0.03308976768988255    0.030548543814093228    0.02930006528319025    0.028943330024308322    0.029300059443281064    
  0.03054854492012003    0.033089763178839895    0.03738931671486325    0.04375462063835113    0.05187572933021808    
  0.06045218957162218    0.06721160610365721    0.06979951751015269    0.10329104212048669    0.09836981503014178    
  0.08567340617679946    0.0698292904196243    0.05509500127492105    0.043754613652788175    0.03616325130918766    
  0.031628755899779586    0.02930168223056957    0.02859477522168176    0.029301676077043926    0.031628767221941224    
  0.03616323842701422    0.04375462135319432    0.055095001817826575    0.06982928799425636    0.08567340043362291    
  0.09836980323357877    0.10329104212048669    0.15007978420620677    0.14169403249375578    0.12022562095967551    
  0.09381793914315785    0.06982929368414181    0.051875727775896364    0.04015090994441727    0.033281343341315696    
  0.029777213991531926    0.028703694532266608    0.029777206102048176    0.03328133775406627    0.04015090556871293    
  0.05187573547630765    0.06982928719903653    0.09381793148310398    0.12022561482580323    0.14169403836897407    
  0.15007978420620677    0.20302768822158113    0.19065743360421228    0.15896730526759362    0.12022563878295711    
  0.08567340240657804    0.060452180302639304    0.04437207896562267    0.035158249860479995    0.030531884514766877    
  0.029122248820029426    0.03053188164329274    0.035158248119355466    0.04437207444714987    0.06045218792316436    
  0.08567339936087107    0.12022563903349884    0.15896730397673617    0.19065743604662636    0.20302768822158113    
  0.24588659902041235    0.23049954067667944    0.19065745513597304    0.14169405103997948    0.09836981835558842    
  0.06721160939385673    0.04766357883143504    0.036651082724340436    0.031198582195401947    0.0295455063147317    
  0.03119857055614042    0.03665108380338408    0.047663566681621784    0.06721161187316395    0.09836981312735389    
  0.14169404940100333    0.19065745531415013    0.23049954671797115    0.24588659902041235    0.2623217783664483    
  0.24588660361939574    0.20302771175866421    0.15007977835151767    0.10329106337326335    0.0697995301345282    
  0.04890446900463793    0.03721242059878967    0.031458812635568836    0.029718812400560787    0.031458798511733596    
  0.037212416106418726    0.048904456470558764    0.06979953297285212    0.10329106458162492    0.15007981597146905    
  0.20302769998802947    0.24588661910450102    0.2623217783664483    0.3563077299204878    0.33941038938892765    
  0.28735204472503895    0.21205556335202386    0.14100052660451    0.09031689180447772    0.05963487885870455    
  0.043037506782699846    0.03514743319042746    0.0328307727864437    0.0351474222995447    0.04303749802430913    
  0.05963486574306398    0.09031690039880728    0.1410005265323955    0.21205558834151947    0.28735202903712037    
  0.3394104015317391    0.3563077299204878    0.3394103901693483    0.3218513505810572    0.27053555997677275    
  0.19949014556154113    0.13354543167634916    0.08653536845282624    0.0579295109645487    0.04234867091766772    
  0.03489705054165604    0.03270167351976318    0.03489705077422033    0.04234865806386954    0.05792950516953415    
  0.08653538113952314    0.13354543037417219    0.1994901617364506    0.27053557694083347    0.3218513798041682    
  0.3394103901693483    0.28735205189396795    0.27053554370406646    0.22523657177865333    0.1669845055039334    
  0.11439928455732636    0.07676867071647221    0.05350450503020953    0.04061241464070814    0.03436052053920772    
  0.032502909195587605    0.0343605104054659    0.04061241632245698    0.05350449616434918    0.07676868030962736    
  0.11439928384567496    0.16698449884088    0.22523658478187897    0.2705355857611315    0.28735205189396795    
  0.21205556168149856    0.19949015107051982    0.1669845014178959    0.1267657098868784    0.0907698209849242    
  0.06461031589245915    0.04804141156262428    0.038647650737390536    0.03401095597629398    0.03261710206148913    
  0.03401094641695777    0.03864765667643635    0.0480414037551482    0.0646103239674348    0.09076982178291469    
  0.12676572495760352    0.1669845085806902    0.19949015028819284    0.21205556168149856    0.14100051800541819    
  0.1335454109441595    0.11439928342789371    0.09076982263157349    0.06936048059829758    0.05345346935028053    
  0.0431641996753392    0.037252672662782926    0.03433238717572472    0.03345936158138381    0.03433238525137314    
  0.037252666886572514    0.043164201594320904    0.05345347238262323    0.06936047904464315    0.09076982296015434    
  0.11439928734708509    0.13354542438545597    0.14100051800541819    0.09031687888827067    0.08653538287746376    
  0.07676866909849689    0.06461032041321745    0.053453474156840465    0.04510416967402353    0.03978875122098184    
  0.03688945595716204    0.03560210083135761    0.035261546516545214    0.0356020991993051    0.03688945704537227    
  0.03978874473002988    0.04510417514174128    0.05345347116031361    0.0646103279256845    0.07676868224294954    
  0.08653538347889111    0.09031687888827067    0.059634867424847    0.0579294971419344    0.053504497049714404    
  0.048041403099373665    0.0431642043525864    0.039788743105179575    0.038075080683767436    0.03760996016646238    
  0.03773814247482321    0.037863800382724216    0.03773813046302004    0.03760996119031395    0.0380750677779287    
  0.03978874761785915    0.04316420447749451    0.04804140700897802    0.053504496438804304    0.057929504448182984    
  0.059634867424847    0.04303749691514213    0.04234866190588524    0.04061241973938456    0.03864765525863547    