#     DFTpy    
  CRYSTAL 
    
  PRIMVEC    
  3.490398145354979    -1.9176928e-10    3.634848331034482e-10    
  -1.9176928e-10    3.4903981451521617    1.7514456827586205e-10    
  6.642227034482758e-10    3.201078068965517e-10    6.394477048411194    
  PRIMCOORD    
  4    1    
  Si    1.7451990726109903    1.7451990735365193    1.9649860257369594    
  Si    6.471648448975773e-10    -5.989424380694627e-10    1.2322524963191241    
  Si    9.925987588102862e-11    4.523445712740462e-10    5.162224548465073    
  Si    1.7451990731342404    1.7451990722106867    4.42949102683986    
  BEGIN_BLOCK_DATAGRID_3D    
  3d_datagrid_density    
  BEGIN_DATAGRID_3D#0    
  15    15    29    
  0.0    0.0    0.0    
  3.490398145354979    -1.9176928e-10    3.634848331034482e-10    
  -1.9176928e-10    3.4903981451521617    1.7514456827586205e-10    
  6.642227034482758e-10    3.201078068965517e-10    6.394477048411194    
  0.4064711528319098    0.373397842944607    0.29451206836201066    0.20866324295766608    0.14189453120894358    
  0.0996949784965635    0.07797447511516505    0.07154077460030445    0.07797447045917424    0.09969499588986816    
  0.1418945434645868    0.2086632231467998    0.2945121076356818    0.3733978256068438    0.4064711528319098    
  0.373397855576613    0.3438235602414419    0.2731787811142446    0.19571482758355213    0.13496561818624253    
  0.09641032709737732    0.07647571049209946    0.07054060385642687    0.07647569816432136    0.09641033185734135    
  0.13496559575388173    0.19571481217727088    0.27317879831769143    0.34382354089982653    0.373397855576613    
  0.29451208033081666    0.27317874409126464    0.22170636757274564    0.1642152868819322    0.11821263066564115    
  0.08855689667774946    0.07292200832838296    0.06817636703205036    0.07292198326907814    0.0885569215821727    
  0.11821262228253425    0.16421529064874552    0.2217063798720272    0.27317873273717386    0.29451208033081666    
  0.20866324784579765    0.19571478754781066    0.16421532696348726    0.1283997371615507    0.09908209359625719    
  0.07977302318290164    0.06935077483176319    0.06610811393479499    0.06935078884489503    0.0797730182450118    
  0.09908210332230737    0.12839973567415974    0.16421533000178157    0.19571485571469324    0.20866324784579765    
  0.14189453932833548    0.13496559675713377    0.11821264508578898    0.09908210020520591    0.08317833341233179    
  0.07273770323226228    0.06721397466484025    0.06550158289709967    0.06721398551180306    0.07273770119401064    
  0.08317833187451976    0.0990820860621152    0.11821263971234516    0.13496560576624939    0.14189453932833548    
  0.09969499285750094    0.09641030624857506    0.0885568995242493    0.07977302447804638    0.07273768299772408    
  0.0686266361916717    0.06688004208487643    0.06641204258349906    0.06688002743889711    0.06862665252688323    
  0.07273770812328387    0.07977302651682591    0.08855691896891064    0.09641031254526627    0.09969499285750094    
  0.0779745097095305    0.07647572038500694    0.07292199286633888    0.06935078645913687    0.06721399222418413    
  0.06688005032760047    0.06756292769181922    0.06796301498593225    0.06756291265325251    0.0668800721328464    
  0.06721399204926831    0.06935077640092786    0.07292199624689867    0.07647570952347421    0.0779745097095305    
  0.07154076721042059    0.0705405866477854    0.06817638376360591    0.06610809984058227    0.06550157960166268    
  0.06641203402862769    0.06796300268376089    0.06870579078317274    0.06796297008365962    0.06641205244470237    
  0.06550157183109852    0.06610809418641854    0.0681763786956047    0.07054057828654448    0.07154076721042059    
  0.07797450579901768    0.07647573009286254    0.07292198335268961    0.06935077057578322    0.06721400225833325    
  0.06688006241064565    0.06756294771406973    0.06796302160259787    0.0675629345397799    0.06688006810169878    
  0.06721398929949829    0.06935076531221335    0.07292200083917641    0.07647571491579463    0.07797450579901768    
  0.09969499047407107    0.0964103103233326    0.0885569198671495    0.07977300995209823    0.07273770582968704    
  0.06862661574417749    0.06688002726396644    0.06641204537260778    0.0668800343593887    0.06862664559865889    
  0.07273768486234482    0.07977303499544433    0.08855690703213544    0.096410302078988    0.09969499047407107    
  0.14189452285380455    0.13496558407727396    0.11821263257183542    0.09908209817462613    0.08317834075349613    
  0.07273770904334034    0.06721397951668762    0.06550159873438044    0.06721398238174611    0.07273770575566567    
  0.08317835458277911    0.09908207300103535    0.11821265137334336    0.13496561400057797    0.14189452285380455    
  0.20866326194488222    0.19571480462630153    0.16421534514123706    0.12839974256121148    0.09908210299566804    
  0.0797730252541898    0.06935077219735875    0.06610810936019289    0.06935076901032355    0.07977302491508152    
  0.09908208477628297    0.12839971904551947    0.16421530987846242    0.19571486020605472    0.20866326194488222    
  0.2945120580748635    0.27317879581189    0.22170634868464464    0.16421529949412159    0.11821261877288551    
  0.08855692402542761    0.07292198825861732    0.0681763814622332    0.072921987856937    0.08855693093010354    
  0.11821262878767476    0.16421529110667474    0.22170640729579758    0.27317874395964986    0.2945120580748635    
  0.37339784438459245    0.3438235373854309    0.27317877990401335    0.19571482445093952    0.13496560857559628    
  0.09641030059189193    0.07647571472278665    0.0705406067958925    0.07647568892077146    0.096410342664178    
  0.1349656182562897    0.19571482603998896    0.2731787794402627    0.343823513903905    0.37339784438459245    
  0.4064711528319098    0.373397842944607    0.29451206836201066    0.20866324295766608    0.14189453120894358    
  0.0996949784965635    0.07797447511516505    0.07154077460030445    0.07797447045917424    0.09969499588986816    
  0.1418945434645868    0.2086632231467998    0.2945121076356818    0.3733978256068438    0.4064711528319098    
  0.42843647429476356    0.3959568882132683    0.3151846290574347    0.22352181795364476    0.1508358606162051    
  0.10488509073692942    0.08116742515028308    0.07404407550126854    0.08116741592203126    0.10488509867566963    
  0.15083589302049547    0.22352179805997607    0.3151846327511568    0.39595687250745776    0.42843647429476356    
  0.3959569306824944    0.36616445893522015    0.29279668398180875    0.20983732139728464    0.1437398165649139    
  0.10167696271729987    0.0798358664865843    0.07324953093001184    0.07983586751553785    0.10167696483911116    
  0.14373980540848857    0.2098373409508198    0.292796707373905    0.3661644470804108    0.3959569306824944    
  0.31518464708392363    0.29279668327538605    0.23811709905730225    0.1762843023188346    0.12631030371325833    
  0.0938505033366181    0.07666050589478618    0.07140373395610507    0.07666046976509806    0.09385052600045622    
  0.12631028321289914    0.17628430592339675    0.23811712434907814    0.29279667422286615    0.31518464708392363    
  0.22352182233258575    0.2098373278260895    0.1762843474467985    0.1378830805767073    0.10615927356706095    
  0.08503029826629578    0.07360712814384389    0.07007646729184683    0.07360715188068408    0.08503029511557147    
  0.10615926941351639    0.13788307477570796    0.17628432890657242    0.2098373442394197    0.22352182233258575    
  0.1508359074113505    0.1437397859223425    0.12631032917806465    0.10615928390037487    0.08930043741524392    
  0.07810997552180524    0.07221257697985621    0.07043591421088641    0.07221258964770501    0.07810996939067422    
  0.08930044418381834    0.10615926578417663    0.1263103035015609    0.14373980629943856    0.1508359074113505    
  0.10488510610826342    0.10167695273023541    0.09385047931988733    0.0850302921565511    0.07810997170964935    
  0.07420281979713593    0.07268194910935152    0.07235184657314268    0.07268193795397586    0.07420284215962515    
  0.07810997346396702    0.08503028081802623    0.09385049914033453    0.10167693497774744    0.10488510610826342    
  0.08116746403780999    0.07983587309943012    0.07666048220208871    0.07360714602774054    0.07221259257204572    
  0.07268196615261659    0.07399825921167172    0.07465757085493079    0.07399821631508478    0.07268198827896295    
  0.07221259211805722    0.07360713932428826    0.07666049054186246    0.07983587204064148    0.08116746403780999    
  0.0740440614888187    0.07324951248225259    0.07140373454166768    0.0700764318065105    0.07043589538554329    
  0.07235185368528764    0.07465754775305151    0.07570067157617583    0.07465753985637776    0.07235186082260625    
  0.07043590749336241    0.07007641161555514    0.07140374861099204    0.07324950563445093    0.0740440614888187    
  0.08116744969609765    0.07983588121917289    0.07666049716781043    0.07360714122679181    0.07221260389922002    
  0.07268196509749987    0.07399824625819297    0.07465756797138136    0.07399824703211491    0.07268197957576092    
  0.07221260032128489    0.07360714591307935    0.07666050152007708    0.07983587957630277    0.08116744969609765    
  0.10488510339626356    0.10167694734583321    0.09385049954335967    0.08503027628688963    0.07810998414661538    
  0.07420282058179155    0.07268193570362584    0.07235184460139363    0.07268194855659535    0.07420284204551458    
  0.07810994991248436    0.08503028231234872    0.09385049786071109    0.10167693197585218    0.10488510339626356    
  0.15083586985782196    0.1437397840937014    0.12631031856005945    0.10615927478294813    0.08930042138686912    
  0.07810999298583718    0.07221258346111539    0.07043593159436033    0.07221258340054271    0.07810997702413358    
  0.08930044538946141    0.10615928542710722    0.12631030900496915    0.14373980892811103    0.15083586985782196    
  0.2235218675654184    0.20983729998787762    0.17628435083206825    0.13788310637075735    0.10615928289619392    
  0.08503028918801613    0.0736071389572827    0.0700764447312988    0.07360714716388653    0.08503028924429962    
  0.10615928715768225    0.13788306226909167    0.1762843202074175    0.20983736769044264    0.2235218675654184    
  0.315184608378072    0.2927967292125653    0.23811707038856383    0.1762843368364812    0.126310283681125    
  0.09385051635726462    0.07666048826935225    0.07140374705201563    0.0766604705558298    0.09385051506707293    
  0.12631029019713538    0.17628430207288587    0.23811711933188076    0.29279667736597076    0.315184608378072    
  0.39595688509563    0.36616445097624556    0.2927966741397475    0.20983734211535798    0.1437398210896402    
  0.10167694473677517    0.07983588696151933    0.07324953143304705    0.07983586211339107    0.10167697011877314    
  0.1437398180291941    0.2098373288509148    0.29279671244953276    0.3661644378295163    0.39595688509563    
  0.42843647429476356    0.3959568882132683    0.3151846290574347    0.22352181795364476    0.1508358606162051    
  0.10488509073692942    0.08116742515028308    0.07404407550126854    0.08116741592203126    0.10488509867566963    
  0.15083589302049547    0.22352179805997607    0.3151846327511568    0.39595687250745776    0.42843647429476356    
  0.44152594621160735    0.42387052046022355    0.36085368865833234    0.2646806378547199    0.17731281056854697    
  0.12021302561562906    0.09064295933619307    0.08164007434236295    0.09064292221967626    0.12021303922991745    
  0.17731280263488863    0.2646806277452524    0.3608537514849758    0.42387047297162295    0.44152594621160735    
  0.42387055112396055    0.40374104759127605    0.339958842466333    0.24980449322138248    0.16970264163355353    
  0.11717941346823675    0.08979173017030961    0.08142573210379753    0.08979173040957147    0.11717941454579643    
  0.1697026483830186    0.24980448828803128    0.33995882297183627    0.40374104646760084    0.42387055112396055    
  0.36085370626579083    0.33995881252359733    0.2831181810265042    0.2117385166522669    0.1504727117976085    
  0.10973812207026185    0.08806139501459027    0.0813958355740548    0.08806137216934844    0.10973814455590286    
  0.1504727256973458    0.2117385207652002    0.28311818670610983    0.339958760977591    0.36085370626579083    
  0.2646806770532784    0.2498044697569672    0.21173855276175446    0.1663419249488883    0.1277528543511287    
  0.10151929387127473    0.08729012378190674    0.08292865915888299    0.08729011424101557    0.10151928691211504    
  0.12775286924974016    0.16634189420671636    0.21173857689601286    0.2498045296867729    0.2646806770532784    
  0.17731283765635092    0.16970260953449817    0.150472740039467    0.127752868708384    0.10857191319306232    
  0.09564458349255497    0.08884484103681192    0.08688341573764127    0.08884482846068092    0.09564458928234054    
  0.10857191432255288    0.12775285752271523    0.15047273647369538    0.1697026452551728    0.17731283765635092    
  0.12021304040497244    0.11717939416414191    0.1097381055429536    0.10151928884782582    0.09564456276847759    
  0.0928997197514658    0.09234484676909205    0.09246490206388432    0.09234486854175722    0.09289972446165831    
  0.09564456630224676    0.10151928982250585    0.1097381288802271    0.11717938833257745    0.12021304040497244    
  0.09064296186283571    0.08979174165002589    0.0880613922040915    0.08729012758294862    0.08884485716481098    
  0.0923448800071064    0.09597461942865551    0.09756295666308944    0.09597458219722071    0.09234493173081584    
  0.08884484946762916    0.08729010750210277    0.08806138958550853    0.08979172652574512    0.09064296186283571    
  0.08164006564872933    0.08142571000746465    0.08139582566409151    0.08292864797249692    0.08688340078312344    
  0.09246491681426774    0.09756292080679087    0.09967863276344831    0.09756290657848944    0.09246492560530394    
  0.08688340753014301    0.08292862397413844    0.08139584830642703    0.08142571134880043    0.08164006564872933    
  0.09064295746916459    0.08979175370345908    0.08806139181466921    0.08729011770623842    0.08884486094533425    
  0.09234488356574368    0.09597462530845396    0.09756295170020106    0.09597461430233357    0.09234490967590996    
  0.08884486413499482    0.0872901145911042    0.08806139360648403    0.08979173588371775    0.09064295746916459    
  0.12021304558507458    0.11717940057126143    0.1097381325453148    0.10151926166363581    0.09564458125666983    
  0.09289970635550181    0.09234486325751037    0.09246490793498897    0.09234485317631146    0.09289974009915271    
  0.09564456217736887    0.10151926987364626    0.1097381272629845    0.11717938538236444    0.12021304558507458    
  0.17731282104997387    0.16970258849793687    0.150472734507807    0.12775286505765107    0.10857189646344438    
  0.09564458200190519    0.08884484232161528    0.08688341983926631    0.08884484256578601    0.09564457008685712    
  0.10857192162041285    0.1277528358639196    0.1504727314633376    0.16970263302767258    0.17731282104997387    
  0.2646806708441721    0.24980448993207116    0.21173855906070188    0.1663419136696404    0.12775284493682076    
  0.10151928247855725    0.08729011807132823    0.08292866037179679    0.0872900928453578    0.10151929527809862    
  0.12775285445292156    0.16634188155432422    0.21173854245541135    0.24980455038410954    0.2646806708441721    
  0.36085367424969256    0.3399588064331445    0.2831181500202631    0.21173855324428234    0.1504727266450393    
  0.10973812624748601    0.08806137670252293    0.08139582487196478    0.0880613786306472    0.10973814687379159    
  0.15047271790470548    0.211738523857406    0.2831181508708728    0.33995880073157586    0.36085367424969256    
  0.42387056729541356    0.40374103505834014    0.33995878325897844    0.2498045209297905    0.16970261723843294    
  0.11717939577871289    0.08979174402198446    0.08142574044756802    0.08979172513672719    0.11717943514995048    
  0.16970263611071068    0.2498044799494643    0.33995880682359025    0.40374104307527153    0.42387056729541356    
  0.44152594621160735    0.42387052046022355    0.36085368865833234    0.2646806378547199    0.17731281056854697    
  0.12021302561562906    0.09064295933619307    0.08164007434236295    0.09064292221967626    0.12021303922991745    
  0.17731280263488863    0.2646806277452524    0.3608537514849758    0.42387047297162295    0.44152594621160735    
  0.325305802246775    0.35366241559579775    0.37700901486534616    0.3162641192456756    0.21736557039818116    
  0.1439977570746027    0.10555991325732988    0.09392434959979647    0.10555988411008345    0.1439977875306456    
  0.21736557777937493    0.3162640732513978    0.37700901872056086    0.35366238656941995    0.325305802246775    
  0.3536624225508249    0.37119693436736045    0.37243013324941515    0.303373022796821    0.20957856205014372    
  0.14161343795396558    0.10583381560481556    0.094947268718376    0.10583381149121017    0.14161344095336706    
  0.20957855005412993    0.30337300042443843    0.3724301106938843    0.3711969429462102    0.3536624225508249    
  0.37700900703562595    0.3724300487529697    0.3377006901010672    0.26506033850392835    0.18936213039455102    
  0.1362152732770439    0.10768857285811585    0.09888545912953331    0.10768855981869953    0.13621527849213697    
  0.18936210515512286    0.2650603304451304    0.3377006567208637    0.3724300673469792    0.37700900703562595    
  0.31626410533527616    0.30337297054360557    0.2650604045896856    0.2125461114064362    0.16457840174593794    
  0.13107440943715315    0.11265433791849615    0.1069402308705303    0.11265434431948121    0.13107438707064767    
  0.1645784231045126    0.21254606976708446    0.26506039007047905    0.3033730368493079    0.31626410533527616    
  0.21736560328102297    0.20957852581018005    0.18936217400861352    0.16457842670896375    0.1432550018184924    
  0.12886707439706266    0.12129509761355697    0.11912253421737908    0.12129508903344462    0.12886706903170897    
  0.14325502520672043    0.16457838739863473    0.18936214889554248    0.20957856695952895    0.21736560328102297    
  0.1439977575376077    0.1416134250098607    0.13621524520807424    0.13107438928324608    0.12886706558691    
  0.12982997755757197    0.1320914342449235    0.13330568646574473    0.13209140632476826    0.12982998203215873    
  0.12886705336057433    0.13107438739067276    0.1362152571713294    0.1416133933957376    0.1439977575376077    
  0.10555994415419757    0.10583380843015039    0.10768858555582203    0.11265433267855565    0.12129508958809362    
  0.13209145570297293    0.141360556184725    0.14509615682690835    0.14136048941505625    0.1320914970325255    
  0.12129508804039368    0.11265433317889625    0.10768858111039953    0.10583381672331955    0.10555994415419757    
  0.09392435034549983    0.09494725146325823    0.0988854514979616    0.1069402087387097    0.1191225315517814    
  0.133305696429815    0.14509610746800572    0.14975018230228    0.14509610226498937    0.13330570318700088    
  0.11912254691896305    0.10694018559599848    0.09888547948485377    0.094947254079029    0.09392435034549983    
  0.10555994184214185    0.10583382449556537    0.10768859563292593    0.11265435280007009    0.12129508094968021    
  0.13209147203489105    0.14136053943132493    0.1450961470696466    0.14136050402849834    0.132091467353017    
  0.12129509433985357    0.11265432274236441    0.10768859513287352    0.1058338125796942    0.10555994184214185    
  0.14399775476357699    0.14161342303173657    0.13621527957088192    0.1310743631508999    0.12886707016634483    
  0.12982999054413735    0.13209142234224278    0.1333056966223074    0.1320914328612044    0.12982998981480806    
  0.1288670587502927    0.1310743758847774    0.13621526150137342    0.14161342517852377    0.14399775476357699    
  0.2173655763089424    0.20957852826041132    0.18936213779201858    0.1645784138864074    0.14325499172544404    
  0.12886707574374    0.12129507921506211    0.11912255361865674    0.12129506406005827    0.12886707238972056    
  0.14325501254756032    0.1645783985564617    0.18936213661081489    0.20957853903120055    0.2173655763089424    
  0.3162641556831919    0.3033729690466198    0.26506042310541367    0.21254610465703153    0.16457842239779505    
  0.13107439890860978    0.11265433938813676    0.10694023027976522    0.11265431615986711    0.1310743980240163    
  0.1645784052025632    0.21254611451006955    0.2650603770544993    0.30337304538293414    0.3162641556831919    
  0.377009001376909    0.37243006592933087    0.3377006523235495    0.2650603736499388    0.18936213068215457    
  0.1362152786677377    0.10768857022340551    0.0988854649894117    0.10768855923945178    0.13621528654439424    
  0.189362131130774    0.26506034186901084    0.3377006334739293    0.37243007000775746    0.377009001376909    
  0.35366246144721025    0.37119695159773297    0.37243008309231884    0.30337300772570647    0.20957855764760924    
  0.14161343663583956    0.10583382531164844    0.09494726501680094    0.10583380954565308    0.14161345160870956    
  0.20957857725191567    0.30337302763705093    0.3724301058947931    0.3711969366540027    0.35366246144721025    
  0.325305802246775    0.35366241559579775    0.37700901486534616    0.3162641192456756    0.21736557039818116    
  0.1439977570746027    0.10555991325732988    0.09392434959979647    0.10555988411008345    0.1439977875306456    
  0.21736557777937493    0.3162640732513978    0.37700901872056086    0.35366238656941995    0.325305802246775    
  0.14161489707526093    0.19899751907017282    0.3275180644272852    0.3538691421686574    0.26086676227304545    
  0.17192599993180613    0.12378541974186456    0.10928238509468355    0.1237853918027607    0.17192601763522722    
  0.2608667473709154    0.3538690764292517    0.32751807406680594    0.19899752793345074    0.14161489707526093    
  0.1989975192524241    0.2525639029622351    0.35247018714483713    0.3491287369633271    0.25466593890613765    
  0.17148455051890843    0.12642070637006797    0.11272821428849078    0.12642067935630547    0.171484561386143    
  0.25466596685180926    0.3491286876066929    0.3524701626414106    0.2525638839555354    0.1989975192524241    
  0.32751807004668654    0.3524701127025579    0.3732538230923922    0.32266108373772096    0.2377174927723447    
  0.17163776471215708    0.13528549931852765    0.12397049811943646    0.1352854993131847    0.17163776404589606    
  0.23771747890423486    0.3226611068206216    0.3732538520127473    0.352470132292206    0.32751807004668654    
  0.35386912161193995    0.3491286913639587    0.3226611798645841    0.270511703665276    0.2152044210142027    
  0.17451333092456742    0.15152945068360607    0.14423103112214103    0.15152944459373388    0.17451331377478574    
  0.21520444387963872    0.2705116920614857    0.32266113831365134    0.3491287591531187    0.35386912161193995    
  0.26086677664654023    0.25466592559653245    0.23771753960594874    0.21520445146074593    0.1949373640899261    
  0.18146800471900784    0.17455682020622781    0.172588286807632    0.1745567980038175    0.18146799231697802    
  0.19493739249742115    0.21520442714287985    0.23771751591866014    0.254665967929148    0.26086677664654023    
  0.1719260132434977    0.17148454092614482    0.17163772534492294    0.1745133196860616    0.1814679843503418    
  0.19134485129847187    0.19998788851742078    0.20345239284307523    0.19998786482896613    0.19134488795738758    
  0.18146799894954882    0.1745132937846668    0.1716377550514945    0.17148451125110262    0.1719260132434977    
  0.12378543208046747    0.12642071298767946    0.13528550701206962    0.15152943783673156    0.17455681705197618    
  0.19998791831417945    0.219649443474948    0.2269119649103152    0.21964940093452615    0.19998796797483273    
  0.17455682191773378    0.1515294282308813    0.13528551327847724    0.1264207174655587    0.12378543208046747    
  0.10928237671514689    0.11272819053893868    0.12397048317830023    0.14423101468744484    0.1725882799555766    
  0.20345239105876345    0.22691193382289535    0.23537761380224254    0.22691189392276798    0.2034524065330009    
  0.17258829488417515    0.14423097275487579    0.12397053222609808    0.11272818196236689    0.10928237671514689    
  0.12378544650240463    0.12642071870264937    0.13528551683409193    0.15152944239382807    0.17455682721835702    
  0.1999879327486147    0.21964943318541094    0.22691196375651643    0.21964941240913166    0.19998793968821424    
  0.17455681892125405    0.1515294239388962    0.13528550814532472    0.12642070833055472    0.12378544650240463    
  0.17192601323324222    0.17148455634339316    0.1716377413438685    0.1745132738897315    0.18146798789369784    
  0.19134487805358333    0.1999878907365065    0.20345239284171054    0.1999878861054236    0.1913448624838476    
  0.18146797562543696    0.174513281113161    0.17163773433697332    0.17148454344770628    0.17192601323324222    
  0.26086675581763136    0.25466591018512647    0.23771751517429635    0.2152044410047195    0.19493735805974308    
  0.18146801527536435    0.17455680712008195    0.17258831188650126    0.1745568063452436    0.18146799743231226    
  0.19493737070249012    0.21520443518853183    0.23771750989260748    0.2546659492403901    0.26086675581763136    
  0.353869170187461    0.34912870015054925    0.32266116768051983    0.27051173902728476    0.21520443656353017    
  0.17451330957244404    0.15152944711069316    0.1442310486488164    0.15152942022622132    0.17451331128594363    
  0.2152044459774101    0.2705117307794009    0.3226611647956029    0.3491287612149814    0.353869170187461    
  0.32751805776346554    0.3524701380997176    0.3732538389663641    0.3226611649501434    0.2377174816112831    
  0.17163775915848212    0.13528550576902895    0.12397050857677912    0.135285498025804    0.1716377802196157    
  0.23771750488557444    0.3226610858539179    0.3732538361905389    0.35247012910218023    0.32751805776346554    
  0.19899753680341423    0.25256391579312737    0.35247017181769613    0.34912873958259766    0.2546659300497379    
  0.1714845489643068    0.12642069729843852    0.11272821427617803    0.12642069503205886    0.17148457278977008    
  0.25466596030506133    0.3491287415956533    0.3524701836275106    0.2525638829058003    0.19899753680341423    
  0.14161489707526093    0.19899751907017282    0.3275180644272852    0.3538691421686574    0.26086676227304545    
  0.17192599993180613    0.12378541974186456    0.10928238509468355    0.1237853918027607    0.17192601763522722    
  0.2608667473709154    0.3538690764292517    0.32751807406680594    0.19899752793345074    0.14161489707526093    
  0.05932406658325521    0.11046944803183621    0.2759747695031291    0.37335351507113623    0.2950593400780574    
  0.19668264329863425    0.1415652674691922    0.1248839880132144    0.14156525134119757    0.1966826895761654    
  0.29505936651489767    0.37335349377681015    0.2759748245321766    0.11046941932008998    0.05932406658325521    
  0.11046944723432549    0.1694232786989072    0.3206369933474161    0.37829319724911264    0.29252640587062473    
  0.19978757657254945    0.14788281320542349    0.13202068981350015    0.14788281095274283    0.19978756606193038    
  0.29252642896907677    0.37829318290762975    0.32063696977631795    0.16942327892575806    0.11046944723432549    
  0.27597477631085315    0.320636972555932    0.3901321611192036    0.36998294997713793    0.2843034487406057    
  0.20983213634105394    0.16766255575303618    0.15441893371254525    0.16766252282738509    0.20983215779508255    
  0.2843034753053853    0.3699829669956156    0.39013216752797203    0.32063697650694684    0.27597477631085315    
  0.37335355271120296    0.3782931658251568    0.3699830349626648    0.32715565728491364    0.27148469647639695    
  0.22777769756365907    0.2024078594558517    0.19422861685145862    0.2024078587444368    0.22777767816030206    
  0.27148469344852943    0.32715564348852094    0.3699829957465007    0.37829325473076786    0.37335355271120296    
  0.29505936843946995    0.292526381301659    0.2843035103777216    0.27148470184562723    0.25968550183202693    
  0.25266917570995806    0.24935211906204008    0.24836359861328247    0.24935209650375548    0.25266920144811417    
  0.25968551550379054    0.27148468983460583    0.2843034923227058    0.29252642592853156    0.29505936843946995    
  0.19668266585088787    0.19978755241470228    0.20983212008139338    0.2277777051381893    0.25266917235457603    
  0.2779781451792614    0.2943075369589467    0.29923597838244353    0.2943075626441482    0.2779781444715027    
  0.2526691815891685    0.22777767426001969    0.2098321181163693    0.19978754101444393    0.19668266585088787    
  0.14156529515358843    0.1478828035114502    0.1676625703820332    0.2024078720695117    0.24935213337539988    
  0.2943075849512838    0.31942358026911677    0.3252555419308535    0.3194235052560433    0.29430767783035827    
  0.24935214677648584    0.20240783495387069    0.16766254116782414    0.14788280581873758    0.14156529515358843    
  0.12488398895241953    0.13202066220981865    0.15441891984189082    0.19422859818142862    0.2483635800875317    
  0.2992360097736726    0.3252554857381536    0.3300072439721619    0.32525544026772546    0.2992360163480944    
  0.2483635804851355    0.19422858296643183    0.15441895420506072    0.132020656841421    0.12488398895241953    