#     DFTpy    
  CRYSTAL 
    
  PRIMVEC    
  3.124199848173254    1.3070494433509656e-05    -3.2770137931034487e-13    
  -1.5620886047057494    2.7056430485047627    -6.411637931034484e-12    
  -5.38864827586207e-13    -1.2484413103448277e-11    5.136669982842293    
  PRIMCOORD    
  4    1    
  Si    7.777334533807858e-06    1.8037662613772263    2.888728772537123    
  Si    1.5621034661293096    0.9018898575998385    0.3203937431856071    
  Si    7.777335707549907e-06    1.803766261376482    4.8162762017238006    
  Si    1.5621034661343793    0.9018898576198766    2.247941248224577    
  BEGIN_BLOCK_DATAGRID_3D    
  3d_datagrid_density    
  BEGIN_DATAGRID_3D#0    
  15    15    23    
  0.0    0.0    0.0    
  3.124199848173254    1.3070494433509656e-05    -3.2770137931034487e-13    
  -1.5620886047057494    2.7056430485047627    -6.411637931034484e-12    
  -5.38864827586207e-13    -1.2484413103448277e-11    5.136669982842293    
  0.14479041185803665    0.16216366854172864    0.21850260925998477    0.3246715650451544    0.48605961980097784    
  0.6760007139376547    0.8308170266016812    0.8899749336156025    0.8308170085815959    0.676000626464209    
  0.4860595948694688    0.32467155297876266    0.2185025958210209    0.1621636668753553    0.14479041185803665    
  0.16216365406553596    0.16215806206336927    0.1990262663157976    0.2800166077328169    0.4116412918539118    
  0.5766238270020961    0.7202041973734596    0.7951476994416024    0.795207054980237    0.720194244285734    
  0.5765798521598411    0.41166029861383857    0.28002284244403997    0.1990148432201137    0.16216365406553596    
  0.21850260947547534    0.19902624263440097    0.21849821414115408    0.2800174515066939    0.38525904809412703    
  0.5100728274786502    0.588411906832787    0.5884735593367038    0.5727895946851354    0.5884530620567197    
  0.5884606037300727    0.5100766638114019    0.3852195408596853    0.28002281291401104    0.21850260947547534    
  0.3246715481959903    0.2800166140247207    0.28001748455054665    0.32469079491472336    0.41162703619257146    
  0.5100762264791081    0.533560810678868    0.43847468953847946    0.3390863449256016    0.3390796588617519    
  0.438435038167917    0.5335324410727922    0.5100767319410644    0.4116603268117396    0.3246715481959903    
  0.4860596051602559    0.4116412937418572    0.3852591071633028    0.4116270311477412    0.4861046406219111    
  0.576591436227685    0.5884596189446643    0.4384619314491978    0.25543731680451065    0.18874839764556373    
  0.2554585296900464    0.4384350500366724    0.5884605836049671    0.5765799008449026    0.4860596051602559    
  0.6760006208914192    0.5766237651775401    0.5100728159994866    0.51007610447722    0.5765914190899588    
  0.6760049991228815    0.7202251001156227    0.5884580237815622    0.33908834303217295    0.18876014310476436    
  0.1887483521204824    0.3390796717406303    0.5884530696043172    0.7201942458671579    0.6760006208914192    
  0.8308170001177597    0.720204251677474    0.5884119205384688    0.5335608800040761    0.5884596206199317    
  0.7202252475774905    0.8307934357827156    0.79522643822089    0.5727902608956138    0.33908837729505575    
  0.2554372859025625    0.33908635850964913    0.5727895908870339    0.7952070695481129    0.8308170001177597    
  0.8899750533284698    0.7951477490248526    0.5884736042776653    0.43847484145527216    0.438462092089499    
  0.5884580583861949    0.7952264729038492    0.8899454965483239    0.7952264088671688    0.5884580697302575    
  0.4384620185056741    0.43847480532681443    0.5884736095884365    0.7951478538432087    0.8899750533284698    
  0.8308169872281866    0.7952070250584115    0.5727895810280106    0.33908638574920374    0.2554373376485192    
  0.3390883729520357    0.572790241147618    0.7952264339413203    0.8307935283107623    0.720225132830802    
  0.5884596981823943    0.5335608977105446    0.5884118902577756    0.7202041804610865    0.8308169872281866    
  0.6760006461572091    0.7201941864189234    0.5884530930526615    0.3390796899962391    0.188748406176028    
  0.18876018947651324    0.33908840684593894    0.5884580134970249    0.7202251386087221    0.6760050036420293    
  0.5765914458960402    0.5100761339574826    0.5100728200626771    0.5766237801821569    0.6760006461572091    
  0.48605964483904324    0.5765799027530956    0.588460569643927    0.4384350463937749    0.25545849889321137    
  0.18874841501656933    0.25543730489466626    0.4384619498089983    0.5884595808210212    0.5765914007165138    
  0.4861046391058234    0.4116270450164229    0.3852591149529152    0.41164128943770867    0.48605964483904324    
  0.3246715427115203    0.4116603245599416    0.510076699654223    0.5335323924533387    0.4384350629312924    
  0.33907972311806356    0.3390863701619379    0.4384747518942471    0.5335608392411746    0.5100761254757666    
  0.4116270622022829    0.32469083502733537    0.280017495898525    0.28001659867765755    0.3246715427115203    
  0.21850258939748704    0.28002283493596325    0.3852195013644761    0.5100767043201668    0.5884605857117476    
  0.5884531006758986    0.5727895926261002    0.5884735400565175    0.5884119185219975    0.5100728357006843    
  0.38525909565965505    0.28001748055129466    0.21849820556036667    0.19902623728589414    0.21850258939748704    
  0.1621636673177918    0.19901486887578498    0.2800228230028316    0.41166026468146677    0.5765799133664832    
  0.7201942576416763    0.7952069820985964    0.7951477400357212    0.7202042566101811    0.5766238216044038    
  0.4116413134697344    0.28001659924083877    0.19902625673839136    0.16215803312557164    0.1621636673177918    
  0.14479041185803665    0.16216366854172864    0.21850260925998477    0.3246715650451544    0.48605961980097784    
  0.6760007139376547    0.8308170266016812    0.8899749336156025    0.8308170085815959    0.676000626464209    
  0.4860595948694688    0.32467155297876266    0.2185025958210209    0.1621636668753553    0.14479041185803665    
  0.13972343872166335    0.15587409229077817    0.20822432615589034    0.3065715917101269    0.455045042098162    
  0.6279637568641242    0.7670355555838642    0.8195900531743846    0.7670256571197284    0.627946345847708    
  0.4550459072238445    0.30658264900594523    0.2082122883342738    0.15587577549628318    0.13972343872166335    
  0.15587577661674581    0.15586997041399855    0.19166440875047078    0.27082786655534374    0.39787387466410606    
  0.5482624236978311    0.6625714656856704    0.7098081843551413    0.7098455571148659    0.6625853520303715    
  0.5482504840127046    0.39786173439999356    0.2708459948882296    0.19165690836088856    0.15587577661674581    
  0.20821229093389831    0.18858804395564446    0.20821255883984283    0.2708418354787085    0.3770410116367517    
  0.4911928810267099    0.530707503298166    0.48276746548998445    0.4476955893149968    0.482757987725674    
  0.5307112065396625    0.49121735058830257    0.377009741614022    0.2708459750921151    0.20821229093389831    
  0.306582655468668    0.2596617992864403    0.2596641243924129    0.3065865327673642    0.39785732368408383    
  0.49119073220888987    0.4738560904031849    0.3254483518442954    0.20956858764564007    0.20955862274645487    
  0.3254480484871782    0.4738064202565255    0.4912173483348756    0.39786174348044145    0.306582655468668    
  0.4550458908292068    0.3757837798514781    0.3480330411961749    0.37577812811106526    0.4550693083209416    
  0.5482549682722592    0.5307273414969809    0.3254527671372662    0.1370106747560079    0.08323338279086326    
  0.1370032150386915    0.32544801739783713    0.5307111718015728    0.5482504773918778    0.4550458908292068    
  0.6279463367248024    0.5277127624613789    0.46369805963725946    0.4636920458569856    0.5277071413129975    
  0.6279516694561134    0.6625955870737678    0.48276009428827704    0.20957240258760862    0.08322076022213329    
  0.08323335829472502    0.209558629756033    0.4827579899065826    0.6625853749232997    0.6279463367248024    
  0.7670255485938795    0.6741169238537417    0.5701859183861824    0.5288457430238158    0.5702146093831802    
  0.6741342910218365    0.7670196215348564    0.7098614051995352    0.4476921608978041    0.20957242022321315    
  0.13701064605711583    0.2095685821568341    0.44769556101054836    0.709845546780742    0.7670255485938795    
  0.8195901788927626    0.7623925522268858    0.629162724143165    0.5296602336678365    0.5296532137018642    
  0.6291543148861207    0.7624349052904771    0.8195863533361862    0.7098614063291231    0.48276022068485475    
  0.32545285166779414    0.3254484316362134    0.4827675695775073    0.7098082665409292    0.8195901788927626    
  0.7670355690761795    0.762435437174358    0.6440342667534685    0.49747995673654033    0.43525796148396007    
  0.49747876863350243    0.6440586353150107    0.7624348334893023    0.7670196851244504    0.662595654131152    
  0.5307274031804902    0.47385620084301877    0.5307075074195774    0.6625714725325806    0.7670355690761795    
  0.6279637234361952    0.6740992765577778    0.6291379490336643    0.4974860743448219    0.38849039497315385    
  0.38851745037204716    0.4974787921933797    0.6291542756292865    0.6741341930040815    0.6279517639705081    
  0.5482548962140126    0.4911906496230206    0.4911928673482903    0.5482623898582849    0.6279637234361952    
  0.45504505279980323    0.5276842914000578    0.5702225485655431    0.529627001156926    0.43527245607750087    
  0.38849041943734264    0.4352578830055271    0.5296530811406753    0.5702145761027727    0.5277071214060881    
  0.4550693455467593    0.3978573475442539    0.37704108261045244    0.39787385565105815    0.45504505279980323    
  0.3065715609547562    0.37579427944368693    0.46368632715666164    0.5288301281235211    0.529626949573763    
  0.49748610196911497    0.49747993881966296    0.5296601029268696    0.5288457390197613    0.46369202901535395    
  0.375778181593764    0.3065865556953533    0.27084187408147886    0.27082785180721014    0.3065715609547562    
  0.2082243476641414    0.2596631860805038    0.34801904400130823    0.46368634254906066    0.5702224570125299    
  0.629137882194621    0.6440342660118064    0.6291626706852479    0.5701859348057492    0.46369795221881815    
  0.3480330110086883    0.2596641269483938    0.20821255426628388    0.19166438836715635    0.2082243476641414    
  0.15587409262839091    0.18857271839664624    0.2596631577297061    0.37579424237764425    0.527684269429916    
  0.6740993195140109    0.7624353503927425    0.7623925297757325    0.6741169159976486    0.5277128000767347    
  0.37578380570414593    0.2596617982982223    0.18858802872394437    0.1558699613473626    0.15587409262839091    
  0.13972343872166335    0.15587409229077817    0.20822432615589034    0.3065715917101269    0.455045042098162    
  0.6279637568641242    0.7670355555838642    0.8195900531743846    0.7670256571197284    0.627946345847708    
  0.4550459072238445    0.30658264900594523    0.2082122883342738    0.15587577549628318    0.13972343872166335    
  0.12628397418081116    0.13964561969385908    0.18270274701083894    0.26248402780973873    0.38061848309927665    
  0.516026766243623    0.6238745825296572    0.6643824108937996    0.6238410317129581    0.5160150868163949    
  0.38063770144852727    0.26248975625185006    0.18269289370835243    0.13964704932465877    0.12628397418081116    
  0.13964706225510565    0.13964158830585716    0.1708152202189027    0.23938490834741652    0.348416813685631    
  0.47630056432119205    0.5722703982182609    0.6107243957390438    0.6107617520462478    0.572298229898309    
  0.47627919356382603    0.3484053313864767    0.2394021904278937    0.17081023275539817    0.13964706225510565    
  0.18269289093352345    0.16492155785613827    0.18269457681129722    0.2393974923968193    0.3360808134042476    
  0.44275467808412505    0.48585771189724897    0.4485783397868966    0.4185199444528445    0.4485730747536428    
  0.48586295622805104    0.44277591301148334    0.33606185613015427    0.23940216850462492    0.18269289093352345    
  0.26248975941113534    0.2191847157887465    0.21917929453436089    0.2624960720997068    0.3484041829647786    
  0.44275709459023366    0.4445121385657872    0.321631564107482    0.21658905824975652    0.21657526331649865    
  0.32161780560389686    0.44449015285258103    0.44277595395272307    0.3484053375175563    0.26248975941113534    
  0.3806377067955728    0.3066030848963026    0.281488556599592    0.3065996822752447    0.38064526280425504    
  0.47627703536507543    0.48588705631141144    0.32162644883404007    0.1496834901880633    0.09647673789492109    
  0.14968972809522355    0.3216177771360552    0.4858629845653745    0.4762791631875219    0.3806377067955728    
  0.5160150552155166    0.42088580083950283    0.3656117645218379    0.3656134136498274    0.42088866059443086    
  0.5160230578726888    0.5722896985203473    0.44857098876256524    0.21659102202063343    0.09647059933960161    
  0.09647670676221151    0.21657526592824264    0.44857304412518517    0.5722981842708336    0.5160150552155166    
  0.6238410107503914    0.5345086545034209    0.45409282195907874    0.42471488853701234    0.45409594074638215    
  0.5345245909168848    0.6238450340504043    0.6107780408400554    0.418506877829164    0.21659105111519983    
  0.14968347494955025    0.2165890514797989    0.41851991746990164    0.6107617697490738    0.6238410107503914    
  0.6643824953365985    0.6067920269031024    0.5203803975052461    0.4638336768730583    0.4638435363459427    
  0.5203734986644525    0.6068087833978606    0.6643787295929843    0.6107780769697727    0.44857101001820743    
  0.3216265190536343    0.3216316601594634    0.4485784164261862    0.6107243686696604    0.6643824953365985    
  0.6238745293327914    0.6068027670968505    0.5446323627798445    0.4781492372929938    0.44988502729285235    
  0.47815079588240306    0.5446530741665713    0.6068087629924451    0.6238450580905428    0.5722897587766848    
  0.48588702942858303    0.4445121973915734    0.4858577299861578    0.5722704615093279    0.6238745293327914    
  0.5160267563939778    0.5344873130448947    0.5203623333883453    0.4781557703618898    0.4391886795418036    
  0.4392000742248595    0.47815080923651726    0.5203734810573292    0.5345245464420619    0.5160230825955372    
  0.47627697963045934    0.4427570077143239    0.44275469454247784    0.4763004948457924    0.5160267563939778    
  0.3806184605825387    0.4208728948962267    0.4541114947859569    0.4638313285639499    0.4498767194727989    
  0.4391887372243314    0.4498849630607697    0.46384345362413193    0.4540959004900709    0.4208886747529213    
  0.3806452753681634    0.3484041935552803    0.3360808447224554    0.3484167981228927    0.3806184605825387    
  0.26248400472226235    0.30661698014730976    0.3656083691091208    0.4246879558619578    0.4638313060985179    
  0.4781557882040909    0.4781492484114866    0.4638335613025789    0.42471491272790934    0.3656133892321429    
  0.306599739647921    0.26249610192960426    0.2393975114462212    0.23938490908115273    0.26248400472226235    
  0.18270273231108947    0.21918237688696954    0.2814679558315569    0.36560839489118857    0.45411151221905627    
  0.5203623028196561    0.5446323653658041    0.520380373861609    0.4540928004104894    0.3656117332376637    
  0.2814885306141147    0.2191792821274787    0.18269457795633057    0.1708151990069718    0.18270273231108947    
  0.13964561410448212    0.16490796718707376    0.21918234281241306    0.3066169476825828    0.42087289469830635    
  0.5344873999665265    0.6068027508422238    0.6067920312876587    0.5345086352437577    0.42088574643150145    
  0.3066030979193021    0.21918471276627788    0.16492155835068253    0.13964158320158052    0.13964561410448212    
  0.12628397418081116    0.13964561969385908    0.18270274701083894    0.26248402780973873    0.38061848309927665    
  0.516026766243623    0.6238745825296572    0.6643824108937996    0.6238410317129581    0.5160150868163949    
  0.38063770144852727    0.26248975625185006    0.18269289370835243    0.13964704932465877    0.12628397418081116    
  0.11007492751530801    0.1203372386214556    0.15318699264796176    0.21301858268243337    0.30003237766807717    
  0.39968299169410604    0.48047176195001734    0.5113541660295042    0.4804419302474511    0.39968449023108893    
  0.3000541186750736    0.21301868032978474    0.15318535447038303    0.12033822575556258    0.11007492751530801    
  0.12033823232321449    0.12033688844272294    0.1458481239828652    0.2016026641631502    0.2908377381109002    
  0.40098247955744637    0.49558167645466583    0.5436531517710542    0.5436974003083834    0.49559076149873593    
  0.4009583531133493    0.2908417467998515    0.2016093365018365    0.14584760002423455    0.12033823232321449    
  0.15318534428930844    0.13804766446258696    0.15318424447896567    0.20160902884641907    0.28695286702476697    
  0.3952746814685965    0.4771873490087216    0.49686544590323223    0.4916100318639877    0.4968598117573335    
  0.47722071766100244    0.39527288548124107    0.28695071184745935    0.20160929520982535    0.15318534428930844    
  0.21301868668976878    0.17568946837519045    0.17568416027414438    0.2130240042975591    0.29083386987526266    
  0.39527060070952347    0.4628386293637082    0.433123522991694    0.3707180029809249    0.37070396971869923    
  0.4330803182874446    0.46284880304153037    0.3952729129104682    0.2908417410364691    0.21301868668976878    
  0.30005411837615265    0.23483361990090112    0.213778143339498    0.23483113901844901    0.3000598718851829    
  0.40095460273978706    0.47723307351712707    0.4331028818736701    0.31447967230042934    0.25995853096459337    
  0.314518980575009    0.4330803041538095    0.4772206809430678    0.4009583428678537    0.30005411837615265    
  0.3996844786417102    0.3103537168447854    0.2645779697244429    0.2645776576292066    0.3103559835584332    
  0.39968472054137905    0.4955857551084991    0.4968559576427678    0.37071363890378345    0.25997754335588147    
  0.25995848220986395    0.37070396824069646    0.49685983203038137    0.4955907450525737    0.3996844786417102    
  0.4804419350714603    0.38514769262150267    0.3188974447794136    0.29667757908261716    0.31889929278739354    
  0.3851535145709236    0.48045259840474785    0.5437041741960782    0.49159991494995914    0.3707136358372712    
  0.3144796378098002    0.3707179546395365    0.4916100482211621    0.54369742899554    0.4804419350714603    
  0.5113542981685599    0.4331298935469516    0.3621491210448997    0.32334543780001185    0.32335211501266237    
  0.36214437753713874    0.4331419285030322    0.5113402385864944    0.5437041830692972    0.49685597047876356    
  0.43310298860657914    0.43312360794224386    0.49686548511471246    0.5436531406983673    0.5113542981685599    
  0.4804716982388034    0.43313341903343566    0.3789543951926533    0.3383283989456858    0.32343413891997924    
  0.3383310589484976    0.3789614152922396    0.4331419011883736    0.48045260645787125    0.49558576837390933    
  0.47723308192513125    0.46283869214900386    0.47718726515268517    0.49558170811122415    0.4804716982388034    
  0.39968300959103875    0.38512624894692954    0.36213992228560926    0.33832946882624926    0.32264234032178696    
  0.3226464486999898    0.3383310996922197    0.36214437444817427    0.38515346244711807    0.3996847298670309    
  0.4009545289316279    0.39527053106697324    0.3952746560583723    0.4009824397836912    0.39968300959103875    
  0.3000323574049917    0.31034872765596244    0.31891248145218565    0.3233458267862628    0.3234298221469487    
  0.32264238494702274    0.3234341263441579    0.3233520526750497    0.3188992679122108    0.31035596991635    
  0.30005990300906776    0.2908338956756538    0.28695288954978937    0.2908377314542822    0.3000323574049917    
  0.21301856688219836    0.23484837548185736    0.26457367868544907    0.2966563174435142    0.32334580849387506    
  0.33832950495521374    0.3383284020036366    0.3233453382409883    0.29667759535474963    0.2645776580915665    
  0.234831192488315    0.21302401104306182    0.20160904421165157    0.2016026553883093    0.21301856688219836    
  0.15318697847027876    0.1756846711755131    0.21375873029577308    0.2645737020370703    0.31891249153973567    
  0.3621398874351823    0.37895439033369965    0.36214905216018345    0.3188974633058196    0.2645779256036039    
  0.21377813564441958    0.1756841362974671    0.15318423912092566    0.14584812168757072    0.15318697847027876    
  0.12033723019623387    0.13804323912300612    0.17568464496594952    0.23484833815708112    0.3103487241321142    
  0.38512628466892623    0.43313337754514564    0.43312986114382024    0.3851476675972033    0.3103537075901614    
  0.23483360213431825    0.17568946323403178    0.13804765876934036    0.12033686918659806    0.12033723019623387    
  0.11007492751530801    0.1203372386214556    0.15318699264796176    0.21301858268243337    0.30003237766807717    
  0.39968299169410604    0.48047176195001734    0.5113541660295042    0.4804419302474511    0.39968449023108893    
  0.3000541186750736    0.21301868032978474    0.15318535447038303    0.12033822575556258    0.11007492751530801    
  0.09681845092714735    0.10460387471656775    0.1295541076104244    0.1747265952531852    0.23989636646069248    
  0.3149798139794128    0.3769859891544875    0.401046726889983    0.3769822535511711    0.31498311637937876    
  0.23990346166488358    0.17472876849746719    0.1295549676984881    0.10460555380223198    0.09681845092714735    
  0.10460555447489918    0.1046018148821024    0.12536846830428486    0.17096848240094584    0.24523075514650927    
  0.3420065284039502    0.4359442398801849    0.4928102666283554    0.492827291632501    0.43594412621472706    
  0.3420082682820822    0.24523196696040053    0.17097408279023224    0.12536576413151854    0.10460555447489918    
  0.12955496313191378    0.1167351706235862    0.12955463866102063    0.1709717814769124    0.24701857507908717    
  0.35603210439140115    0.4714272984742763    0.5508915379207144    0.576596793298761    0.5508913790117026    
  0.4714398096060877    0.35603280462143766    0.24702105020751453    0.17097403748135265    0.12955496313191378    
  0.174728759378409    0.14246499549388397    0.142463097112995    0.17472850467446033    0.24522802632788818    
  0.35603120743114014    0.48194511031433696    0.5684836363009397    0.5967220443307572    0.5967130690495833    
  0.5684717628007708    0.4819510265228543    0.35603282514038054    0.2452319501661791    0.174728759378409    
  0.23990346451591874    0.1822394719887854    0.16426399588350485    0.1822388081364256    0.23990709197990845    
  0.34200218570689506    0.4714435512395508    0.568479204350124    0.5921173486128327    0.5866251760870632    
  0.5921360561340162    0.568471710854216    0.4714398167177519    0.34200829832367347    0.23990346451591874    
  0.31498311297593196    0.2321743909335126    0.1931797619536942    0.19317733626367187    0.23217517683441288    
  0.3149795664317498    0.4359476794725006    0.5508859714878624    0.596720871452931    0.5866283726830279    
  0.5866251265354631    0.5967130820927067    0.5508913587093974    0.4359440939448273    0.31498311297593196    
  0.37698226588859085    0.2809888624016888    0.22413236604233275    0.20589283139803483    0.22413339189543505    
  0.2809926339509133    0.37698549297583167    0.4928306655769488    0.576593730952991    0.5967208674560124    
  0.5921173418956135    0.5967220351826475    0.5765967965541037    0.49282731033587673    0.37698226588859085    
  0.40104678681304934    0.31171799684149326    0.2486878932837093    0.2174882763204208    0.2174901738430323    
  0.2486869523209485    0.3117234233909791    0.4010420097109965    0.4928306329567033    0.5508860312878872    
  0.5684793094335939    0.5684837441712708    0.5508915718324042    0.49281033926690615    0.40104678681304934    
  0.37698595925782097    0.31171919554758903    0.25810778966341497    0.22458502056990706    0.21333847740246906    
  0.22458723467286815    0.25810946817454594    0.31172341942204035    0.3769855068518123    0.43594770750994394    
  0.4714435519232415    0.4819451452352171    0.47142724773772765    0.43594424546377264    0.37698595925782097    
  0.31497982538800084    0.28098238914046814    0.2486850324630907    0.22458349036546257    0.21199165824337401    
  0.21199099358795703    0.2245872536513857    0.24868693512709686    0.2809925984929678    0.31497959764762856    
  0.3420021270540996    0.35603112026460876    0.3560320748730883    0.34200647182693306    0.31497982538800084    
  0.23989635488747502    0.2321720999236113    0.22413419066266158    0.2174870590341799    0.21333775627827037    
  0.21199170992560418    0.21333849501234228    0.21749011157416262    0.22413336514815269    0.23217518132196982    
  0.2399071203156431    0.245228044019621    0.24701857749347164    0.24523074396246888    0.23989635488747502    
  0.17472657454943652    0.1822412556629416    0.1931755418233311    0.2058866343084672    0.2174870406946836    
  0.22458350539351912    0.22458505359201958    0.21748820017594245    0.20589284894754825    0.19317734282449178    
  0.18223885207174015    0.1747285172206622    0.17097176293125    0.17096847427213607    0.17472657454943652    
  0.12955410272109474    0.14246272511780977    0.16425748928013617    0.19317557489322312    0.2241342151383314    
  0.24868498997357755    0.25810776903721744    0.24868784180441197    0.22413237302859992    0.19317973934768648    
  0.1642639809024424    0.14246308605040892    0.12955462137674828    0.1253684595947452    0.12955410272109474    
  0.10460386646513922    0.11673248807525571    0.1424626727520948    0.18224120540790698    0.23217209663942578    
  0.2809824337203268    0.31171918427334877    0.3117179942668734    0.2809888345593885    0.23217437498163088    
  0.18223946658118573    0.14246499103296847    0.11673515806049418    0.1046018048004118    0.10460386646513922    
  0.09681845092714735    0.10460387471656775    0.1295541076104244    0.1747265952531852    0.23989636646069248    
  0.3149798139794128    0.3769859891544875    0.401046726889983    0.3769822535511711    0.31498311637937876    
  0.23990346166488358    0.17472876849746719    0.1295549676984881    0.10460555380223198    0.09681845092714735    
  0.08942211232867389    0.09598419457852835    0.11703957738259517    0.15500066487246522    0.2093994463949061    
  0.27205813247320254    0.3241937705077646    0.34456722051026706    0.3241996864327034    0.27205868599946426    
  0.2094031325381531    0.1550023034779766    0.11704018310479722    0.09598629739274554    0.08942211232867389    
  0.09598629814164504    0.09598554403226504    0.11431758737064457    0.15477407282779704    0.22120538566879386    
  0.3096047933421807    0.3999055034576081    0.4586188191817268    0.4586183004529897    0.39991050709291565    
  0.309611453735993    0.22120790377462524    0.15477809865611633    0.1143180672519071    0.09598629814164504    
  0.11704017731036455    0.10543765599204756    0.11704014008603582    0.15477692970982726    0.2256312373580978    
  0.3325116749490851    0.45922513246525365    0.5656460280192048    0.607564396914392    0.5656455481958859    
  0.4592267413967672    0.33251531631585257    0.22563485920393778    0.1547780623783306    0.11704017731036455    
  0.15500231108211515    0.12538914770154475    0.12538546652867547    0.15500110793394353    0.22120321879975627    
  0.3325145169727839    0.48185021068531314    0.6297375197770259    0.7212696107302884    0.7212665263108845    
  0.6297464811791343    0.4818544287024834    0.33251532210495166    0.22120786854722183    0.15500231108211515    
  0.20940312409447268    0.15594391009337624    0.13949206624593302    0.15594740216679195    0.20940225304076088    
  0.30960803848110496    0.4592266932049335    0.6297406662505174    0.7626932813143728    0.8116036422198629    
  0.7626937976332743    0.6297464404691205    0.45922672541453396    0.3096114322312646    0.20940312409447268    
  0.2720586906956748    0.19408520307967442    0.15852931791130298    0.1585270338691323    0.1940819579816283    
  0.27205986099733165    0.3999072897845755    0.5656475215793448    0.721268967903734    0.8116076621983794    
  0.8116035459286995    0.7212665881828643    0.5656455970974504    0.39991046740692254    0.2720586906956748    
  0.324199654810068    0.23103018782265328    0.17935202889571025    0.16298328252475425    0.17935266102317066    
  0.2310324029891016    0.3242007557214041    0.45862217760330176    0.6075604610640813    0.7212689838259243    
  0.7626932436789474    0.7212696082044271    0.6075643817396967    0.45861830966805056    0.324199654810068    
  0.3445672841417358    0.2538071383173056    0.19577264456266333    0.1680529779742927    0.1680545938613861    
  0.19577484687748148    0.2538061708221241    0.3445690717976534    0.4586221213892937    0.5656475573041845    
  0.6297407979418062    0.6297376167397536    0.5656460531745383    0.45861884968280936    0.3445672841417358    
  0.32419375830439984    0.25380565505600333    0.20190875811180067    0.17144507808954107    0.16147735901273974    
  0.1714434824687214    0.20191231689818892    0.2538061266154491    0.324200751277724    0.399907251536182    
  0.45922665776966665    0.48185019442646654    0.45922509988519505    0.3999055361885212    0.32419375830439984    