#     DFTpy    
  CRYSTAL 
    
  PRIMVEC    
  1.8343799704378168    -3.1772393091849938    0.0    
  1.8343799704378168    3.1772393091849938    0.0    
  0.0    0.0    3.4528961459999996    
  PRIMCOORD    
  1    1    
  Si    0.0    0.0    0.0    
  BEGIN_BLOCK_DATAGRID_3D    
  3d_datagrid_density    
  BEGIN_DATAGRID_3D#0    
  17    17    15    
  0.0    0.0    0.0    
  1.8343799704378168    -3.1772393091849938    0.0    
  1.8343799704378168    3.1772393091849938    0.0    
  0.0    0.0    3.4528961459999996    
  0.06062480952927563    0.10481972040165105    0.25187131125796863    0.3645365677013348    0.3014820421772893    
  0.1885200012041779    0.11344895628138325    0.07731865605971537    0.06684518606061828    0.07731864220321583    
  0.11344894563319535    0.1885200225528804    0.3014820427414502    0.3645366084930012    0.2518712897552101    
  0.10481973908330039    0.06062480952927563    0.10481973278994261    0.10481444873430786    0.20536326463825355    
  0.3444390372274442    0.34168792020186856    0.23285614668039076    0.13995818598515164    0.08883778804350197    
  0.06778828540998348    0.06778408641688496    0.08884237266887142    0.13995151795421304    0.23286752280762926    
  0.3416856896436728    0.3443923067518198    0.20539822506820352    0.10481973278994261    0.25187129610158177    
  0.20536322966043385    0.2519143137482413    0.3444147000484826    0.3524326526273542    0.25884800515577766    
  0.16099867566587503    0.09981614519432902    0.07008747672570644    0.061363518715478536    0.0700883655445213    
  0.0998149996611636    0.16100092712074865    0.2588290925861906    0.3524967555963473    0.34439228693538465    
  0.25187129610158177    0.3645366219495718    0.344438966289183    0.3444146469648972    0.3645108836443961    
  0.34166571320292427    0.2588804567904894    0.16907914695633924    0.10669377586504068    0.07236881103119851    
  0.05783889959750957    0.057832575137081295    0.0723755477663986    0.10668528426552089    0.1690996025345088    
  0.25882908478322725    0.3416856984799597    0.3645366219495718    0.30148204301496034    0.3416878853101232    
  0.3524326366724696    0.3416656825687189    0.30151943304933104    0.23287474760458424    0.16097072675716417    
  0.10669303829873612    0.0733011108115308    0.05632925875238771    0.05124737131700072    0.056328825626786566    
  0.07330209266343633    0.10668527813619284    0.16100091964334728    0.23286751416654175    0.30148204301496034    
  0.1885199906675308    0.232856137375346    0.2588480233837007    0.2588804938209524    0.23287479782676143    
  0.18848094078101574    0.13995059539695787    0.09983621975512413    0.07237105234218298    0.05632897774609546    
  0.04921185727401607    0.04921251200622271    0.05632882188133842    0.07237554557572884    0.09981501480472905    
  0.13995153524230328    0.1885199906675308    0.11344895285770087    0.13995817899266746    0.1609986658416859    
  0.16907917317252216    0.16097074455267404    0.13995057963626867    0.11347924323470669    0.08884173255540269    
  0.07007101036913596    0.05783586918341324    0.05124788591506671    0.049211860233080114    0.051247368807891436    
  0.05783257686229392    0.07008836434091058    0.08884238327041388    0.11344895285770087    0.07731866331194703    
  0.08883778893629904    0.09981613645920025    0.10669378837952406    0.10669303697085675    0.09983622856557883    
  0.08884170900630545    0.07729379923881952    0.06778578399074316    0.06137931664689215    0.0578358724625038    
  0.05632898902858349    0.05632927254883314    0.05783890517224017    0.06136353588693937    0.06778407932773031    
  0.07731866331194703    0.06684518975593878    0.06778827710874505    0.07008746794345397    0.07236880985288764    
  0.07330110793360993    0.07237103463720494    0.07007100389561156    0.06778577297023056    0.06686807021660478    
  0.06778574746346419    0.07007100162244644    0.07237105583585227    0.07330110998339112    0.0723688103956556    
  0.07008747164068634    0.06778827857117152    0.06684518975593878    0.07731865880387354    0.06778407944110039    
  0.0613635279841523    0.05783890214139374    0.056329287953521344    0.05632898428143913    0.05783587028516217    
  0.061379327909223756    0.06778577634840763    0.07729377566239007    0.08884170961128451    0.09983622205203947    
  0.1066930498096684    0.10669377608325761    0.09981615275664958    0.08883777974179241    0.07731865880387354    
  0.1134489478728094    0.08884237423047632    0.07008837665017902    0.05783257989146521    0.05124736825897322    
  0.04921186915403076    0.05124789695968382    0.057835882122123865    0.07007101506986575    0.08884170248354971    
  0.113479222976484    0.13995060003157342    0.16097074551740823    0.1690791384131192    0.1609986639678686    
  0.13995819228595113    0.1134489478728094    0.1885200083048031    0.1399515382729543    0.09981499377126317    
  0.07237554759441216    0.056328821250666204    0.04921251428551617    0.04921185452850977    0.05632899227365485    
  0.07237105448720507    0.09983622014821075    0.13995059048535868    0.18848093958804835    0.23287476629440979    
  0.25888047545518117    0.25884802641955107    0.23285612508859965    0.1885200083048031    0.3014820407557574    
  0.232867471406382    0.1610009261979501    0.10668527400758224    0.07330209291472631    0.05632881629072829    
  0.0512473606911012    0.05632928025324086    0.073301106476737    0.10669301274299028    0.16097073549663596    
  0.2328747703934193    0.30151940627340656    0.3416656619685137    0.3524326917812746    0.34168790257956033    
  0.3014820407557574    0.364536615022071    0.3416856939811745    0.25882907828392115    0.16909960429810822    
  0.10668529166829038    0.07237554678456606    0.05783257520964818    0.05783890445479144    0.07236881912705513    
  0.10669377614886491    0.16907913468999722    0.25888049437956284    0.3416656868004139    0.36451084200030476    
  0.3444147064833111    0.3444390309525574    0.364536615022071    0.2518713433008355    0.34439228629426133    
  0.3524967564139323    0.25882909642719354    0.16100092379091746    0.09981499975515283    0.07008836958009222    
  0.06136352935754024    0.0700874907312234    0.099816113367123    0.16099866280579006    0.25884799623765725    
  0.3524326329162401    0.34441467117449953    0.25191429883458616    0.20536323720154756    0.2518713433008355    
  0.10481973358376946    0.205398180757843    0.3443922975535501    0.3416856785244107    0.23286752784913262    
  0.13995154097054538    0.08884236937307691    0.06778407558744387    0.06778830085700381    0.08883777634330575    
  0.1399581789963162    0.23285614037016272    0.34168794484713433    0.3444389863009523    0.2053632543614814    
  0.10481446730640227    0.10481973358376946    0.06062480952927563    0.10481972040165105    0.25187131125796863    
  0.3645365677013348    0.3014820421772893    0.1885200012041779    0.11344895628138325    0.07731865605971537    
  0.06684518606061828    0.07731864220321583    0.11344894563319535    0.1885200225528804    0.3014820427414502    
  0.3645366084930012    0.2518712897552101    0.10481973908330039    0.06062480952927563    0.11241486319500245    
  0.16287903574844315    0.2966313987546587    0.36410333218370194    0.284240279453529    0.17665964298605372    
  0.10730224880033976    0.07386565380264115    0.06413542351635197    0.07386563858329827    0.10730224535204032    
  0.1766596624580767    0.2842402341028185    0.36410338797365766    0.2966313834140785    0.16287905406314476    
  0.11241486319500245    0.16287905567365024    0.16284880574839358    0.25850414090101786    0.35940334370910876    
  0.3266353306562709    0.21807593367528944    0.13176719738718914    0.08454360795824022    0.06500881776972595    
  0.06500393709557273    0.08454897093428701    0.13175987025231742    0.21808751797543752    0.3266282478812825    
  0.35937499755494356    0.2585201191979885    0.16287905567365024    0.29663139333178024    0.258504163029397    
  0.2966927237247594    0.3593754452203533    0.3395195742888726    0.2427919557190197    0.15121622348254377    
  0.09471230154245877    0.0671490344306774    0.05903925090309365    0.06714934096468568    0.09471240565687768    
  0.15121586790512415    0.2427826360671035    0.3395592605393411    0.35937498591577505    0.29663139333178024    
  0.3641033996447443    0.35940326059753896    0.3593753577271996    0.3640703161878666    0.3266205485756665    
  0.24281890285435984    0.15871269800510848    0.1010826484108608    0.0692877181148796    0.055770645854380754    
  0.0557662869623284    0.06929232897409313    0.10107677673614865    0.15872681370971778    0.24278265305456628    
  0.3266282346911185    0.3641033996447443    0.28424026951857884    0.32663531599261264    0.33951959030788287    
  0.3266205489219753    0.28428055073723735    0.21808647804873108    0.1511951293001529    0.10108187650045383    
  0.07015953804203733    0.05437163776140906    0.049635934275008085    0.05437134949636411    0.07016022996579871    
  0.10107676338940128    0.15121585940450932    0.21808751540704793    0.28424026951857884    0.1766596572194782    
  0.21807591945230095    0.24279197264157945    0.2428189023167421    0.21808652229356154    0.1766238046385684    
  0.13176234314131108    0.09472764170167644    0.06928899076956088    0.05437185519405149    0.04773708193700626    
  0.04773793422163062    0.054371346542493856    0.06929232053552996    0.0947124186696759    0.13175986801318584    
  0.1766596572194782    0.10730224589719255    0.1317671914536533    0.15121623141009854    0.1587127208066697    
  0.151195153236656    0.13176233588417918    0.10733010681080685    0.0845461201576688    0.06713717852784935    
  0.05576836243209764    0.04963630783167747    0.04773708245525383    0.0496359370704805    0.05576629357773372    
  0.06714934092311878    0.08454896969543436    0.10730224589719255    0.07386565254977383    0.08454360245953559    
  0.09471230065177316    0.10108265198986208    0.1010818824234186    0.09472765236221801    0.08454609681255462    
  0.07384349767685129    0.06500621934777462    0.05905082973400643    0.05576836706680791    0.05437185960669134    
  0.05437165199437794    0.05577064696464736    0.05903925955770878    0.06500393023825052    0.07386565254977383    
  0.06413541658555066    0.06500880538423486    0.06714902755990448    0.06928772431831864    0.07015953579071518    
  0.06928897322480031    0.067137164827208    0.06500621889709272    0.0641561603963165    0.06500619748850911    
  0.06713716705771691    0.06928899140924466    0.07015953429125589    0.06928772332916006    0.0671490216825905    
  0.06500880965612855    0.06413541658555066    0.0738656432743193    0.06500393314256789    0.05903925876681614    
  0.05577065214345975    0.054371658767912945    0.05437185105864056    0.05576836508430147    0.05905084577390902    
  0.06500621748439551    0.07384347414450633    0.08454610023817773    0.09472765866426623    0.10108189312445597    
  0.10108263595677441    0.0947123077973655    0.08454360744399102    0.0738656432743193    0.10730225675066893    
  0.08454895529378585    0.06714934884673474    0.055766292952035425    0.04963593947362633    0.04773709061731504    
  0.04963630704554987    0.05576837921550506    0.06713717544465696    0.0845460904288896    0.10733007804615986    
  0.13176236482164583    0.15119515724797136    0.15871270687502928    0.15121622805821558    0.13176720072321862    
  0.10730225675066893    0.17665967920646772    0.1317598667319594    0.09471240570546186    0.06929232771256111    
  0.054371341716510535    0.04773793648455214    0.04773707717893641    0.054371860911391096    0.06928898331159875    
  0.09472764486477388    0.1317623420107774    0.1766237961204148    0.21808650294355328    0.2428188998439976    
  0.24279196786116441    0.21807592952972765    0.17665967920646772    0.28424024030495293    0.21808747054979957    
  0.15121586093953432    0.10107676966559653    0.07016023860280199    0.054371339368596956    0.04963593798197117    
  0.054371656442202154    0.07015954297032612    0.10108185494075936    0.15119513811884983    0.21808652310121626    
  0.28428054740466235    0.32662053373942757    0.339519609508274    0.3266353125831776    0.28424024030495293    
  0.3641033322995034    0.326628250303777    0.2427826304877966    0.15872681675723632    0.10107678494788719    
  0.06929232986902154    0.05576628723022662    0.05577064409918781    0.06928772916463863    0.10108264341032841    
  0.1587126982033573    0.24281891104387734    0.3266205213564252    0.36407030943837065    0.35937540980248117    
  0.35940334219765935    0.3641033322995034    0.2966313874064338    0.3593749963858683    0.3395592941433685    
  0.24278263617784113    0.15121585415641728    0.09471240458667154    0.06714934252755153    0.05903925887825548    
  0.06714903998441628    0.09471227507175706    0.15121621074193742    0.24279195766277367    0.33951958182192726    
  0.359375430934656    0.2966927270165714    0.25850416108110724    0.2966313874064338    0.16287904286187332    
  0.2585200911593847    0.3593749568034392    0.32662824102904103    0.21808755018708623    0.13175988212207662    
  0.0845489725509567    0.06500393254332289    0.06500882981830662    0.08454359662102424    0.1317671907177361    
  0.2180759374399868    0.32663536426150386    0.35940332492723204    0.25850415644980557    0.16284881434646195    
  0.16287904286187332    0.11241486319500245    0.16287903574844315    0.2966313987546587    0.36410333218370194    
  0.284240279453529    0.17665964298605372    0.10730224880033976    0.07386565380264115    0.06413542351635197    
  0.07386563858329827    0.10730224535204032    0.1766596624580767    0.2842402341028185    0.36410338797365766    
  0.2966313834140785    0.16287905406314476    0.11241486319500245    0.27743846867961974    0.3114734864191337    
  0.3618719138187885    0.332184301563798    0.23510635505834715    0.14620896334209096    0.09157849567137898    
  0.0649351208706703    0.057120576026325746    0.06493510222167244    0.09157849972420389    0.1462089900973149    
  0.23510633021027452    0.33218435144455744    0.36187187331269166    0.31147350627235937    0.27743846867961974    
  0.3114734836610849    0.3114382210251459    0.3531210644466485    0.35435839507581346    0.27602759821633077    
  0.17933133201441157    0.11088462929155395    0.0735022328305595    0.057819294426961855    0.05781681433593681    
  0.07350465117991863    0.11088141007615081    0.17933598046855884    0.2760232195786674    0.3543524130026335    
  0.3531188386586109    0.3114734836610849    0.36187188214435845    0.3531210596631151    0.36191240218736526    
  0.3543432806435911    0.29055674615287086    0.19962078474576916    0.1262453806153501    0.08165447697844284    
  0.0595607359981792    0.05301164990432882    0.05956093168887822    0.0816549812205467    0.12624438302943133    
  0.19962039893403266    0.2905651742378523    0.3543523372191332    0.36187188214435845    0.3321843313031073    
  0.3543583196783471    0.35434320561140425    0.33216518966036834    0.2760249806810578    0.1996305093057168    
  0.1321896783997576    0.08676559719855284    0.06133055948231974    0.05036650162024451    0.05036539125695783    
  0.06133133819427636    0.08676424564024698    0.132192984061755    0.1996203813498096    0.2760232136754556    
  0.3321843313031073    0.23510637032933107    0.27602757558535096    0.29055676183736234    0.27602497460896985    
  0.23512574024654007    0.1793318751523259    0.1262387140927072    0.0867652851827708    0.06205468834770208    
  0.04922979831307935    0.04535180724083559    0.04922983045765891    0.06205501707455554    0.086764237408721    
  0.12624438183607326    0.1793359703740504    0.23510637032933107    0.14620896181017273    0.1793313318998414    
  0.19962077800211622    0.19963051189757178    0.17933191763834921    0.14619437768565283    0.11088424205967407    
  0.08165924616779963    0.06133096709536961    0.049229834438569    0.04378260813530616    0.043782722867895994    
  0.049229836322577186    0.0613313370371806    0.0816549954964162    0.11088140467443228    0.14620896181017273    
  0.0915784981662167    0.11088463146265093    0.12624538118587508    0.13218967980849666    0.12623872348911475    
  0.11088423002836109    0.09158943351974881    0.07350278631492593    0.05955702644936661    0.05036579013427433    
  0.045351994902552456    0.043782612176716106    0.04535180795962244    0.05036539414441712    0.05956093429821052    
  0.07350465511544714    0.0915784981662167    0.06493512889659753    0.07350223288055412    0.0816544810129465    
  0.08676558976747603    0.08676527771934932    0.08165925314118672    0.07350278068226819    0.06492627033555944    
  0.05781817306434937    0.053015430081448545    0.050365789814702855    0.04922985027531053    0.04922982668810749    
  0.05036650106712395    0.05301166962611931    0.057816820044657075    0.06493512889659753    0.057120568219790724    
  0.05781928579582769    0.059560730442471364    0.06133056381903215    0.06205467901707481    0.061330945758261673    
  0.05955701836751836    0.057818168837453686    0.05712888539602228    0.057818146234924664    0.05955701194084369    
  0.06133096972413557    0.062054683255108586    0.06133056019957706    0.059560728047394686    0.05781928813641166    
  0.057120568219790724    0.06493511306316312    0.057816814745984775    0.05301165934540588    0.05036649661496864    
  0.0492298213291419    0.049229849218867236    0.05036578948074219    0.05301545068080699    0.05781817004969072    
  0.0649262547221672    0.07350277845050493    0.08165924645666219    0.08676528953720118    0.08676557004921934    
  0.08165447911543708    0.07350222714622692    0.06493511306316312    0.09157851060323949    0.07350464857311048    
  0.05956094177156892    0.050365388984297196    0.04535180912583767    0.04378261487060392    0.04535200311938883    
  0.050365798160918476    0.05955702528102415    0.07350277181561658    0.09158941662098509    0.11088425402566823    
  0.12623872096653802    0.1321896655305994    0.12624536754119425    0.11088465051009369    0.09157851060323949    
  0.14620898379578307    0.11088141003163711    0.08165498067157981    0.06133134393773659    0.0492298341729808    
  0.043782716648916975    0.043782609983185124    0.049229851849134115    0.06133096649776503    0.08165925035843657    
  0.11088423697618142    0.14619438636904647    0.17933189120392232    0.19963050462035026    0.1996208134761426    
  0.17933132514339226    0.14620898379578307    0.23510637021278868    0.17933595764449864    0.12624439405254875    
  0.08676423383103997    0.0620550231444232    0.04922982296619772    0.045351798792936764    0.04922981816461243    
  0.062054692147355706    0.0867652639620735    0.12623871616379    0.17933191980128793    0.235125715169615    
  0.27602494468744027    0.29055678285729597    0.27602758462740673    0.23510637021278868    0.33218428801022776    
  0.2760232076175465    0.1996203754749348    0.13219299899872866    0.08676424748481885    0.061331339617738324    
  0.050365382952601484    0.05036649551268064    0.06133056508124003    0.08676558054538144    0.13218965228818932    
  0.1996305310470843    0.2760249922466523    0.33216517011302116    0.354343255432427    0.3543583723336482    
  0.33218428801022776    0.3618718847251688    0.3543523507176165    0.29056518896881794    0.19962038736700005    
  0.12624437872761682    0.08165498423412887    0.05956093842030827    0.053011670982216194    0.05956074392494261    
  0.08165446256643018    0.12624535793875677    0.1996207771828901    0.29055673353835987    0.35434326562309704    
  0.36191236960098155    0.3531211050738215    0.3618718847251688    0.311473480627831    0.3531187775720448    
  0.35435233963475504    0.2760231986319813    0.17933599136326364    0.11088141656779853    0.07350465072245317    
  0.05781682836726903    0.05781930220856316    0.07350222372588952    0.11088461770257554    0.17933132634091767    
  0.27602762270143827    0.35435834758258755    0.3531210935799181    0.311438221644771    0.311473480627831    
  0.27743846867961974    0.3114734864191337    0.3618719138187885    0.332184301563798    0.23510635505834715    
  0.14620896334209096    0.09157849567137898    0.0649351208706703    0.057120576026325746    0.06493510222167244    
  0.09157849972420389    0.1462089900973149    0.23510633021027452    0.33218435144455744    0.36187187331269166    
  0.31147350627235937    0.27743846867961974    0.36335488529634985    0.35675433192231554    0.3217776410220347    
  0.2501915858958874    0.170321825243941    0.10936397639562809    0.07230849678917203    0.053786211839263784    
  0.048290303153941345    0.053786196252258736    0.07230851210437152    0.10936399085692326    0.17032180981075282    
  0.250191589546933    0.3217776051728253    0.3567543580117569    0.36335488529634985    0.35675436755652773    
  0.3567474580974352    0.3351668368467953    0.2785498063120012    0.20059610660577584    0.13175023742618677    
  0.08553249662701473    0.05980654240937208    0.04878502729077584    0.04878448651763287    0.05980699701006839    
  0.0855320639951848    0.13175062917282895    0.20059552107884673    0.2785492583457123    0.33516584941927763    
  0.35675436755652773    0.3217776245831306    0.33516679119637227    0.32178407481046806    0.27854763234233476    
  0.21208801899711127    0.14556843081116844    0.09598031682407264    0.06552443139281101    0.050026108717190355    
  0.04537790616980582    0.05002617943110616    0.0655243697375299    0.09598037380485434    0.14556862302143728    
  0.21208873327764888    0.2785492254952001    0.3217776245831306    0.2501915734798514    0.2785497462433594    
  0.2785475964017601    0.25018882059811853    0.2005958983615364    0.14556982493048407    0.0999956799787432    
  0.06908614667267808    0.0512939801777027    0.04346691680662862    0.04346689548642398    0.051294001017765024    
  0.06908596830046883    0.09999582857704799    0.14556863895888408    0.20059550757043193    0.2501915734798514    
  0.1703218412590068    0.20059604783570345    0.21208803399896414    0.20059593833929568    0.17032447836058154    
  0.1317498691814099    0.09597950248380893    0.06908611008968248    0.05181458945585817    0.04263261850969185    
  0.03981858523649374    0.0426324726359015    0.05181486607421644    0.06908595886980393    0.09598036016538807    
  0.1317506217412613    0.1703218412590068    0.10936396640172327    0.13175021646110419    0.1455684064665907    
  0.14556981754327555    0.1317498922730482    0.10936224047799986    0.08553252560518558    0.06552507214730266    
  0.051293882019711315    0.04263278202355963    0.03865895150826662    0.03865935415359656    0.0426324773696821    
  0.05129400751063072    0.06552437886948229    0.08553204108110608    0.10936396640172327    0.07230851436488868    
  0.08553251646779624    0.09598030106390097    0.09999568344187384    0.09597949229620387    0.08553251373820706    
  0.07230993667517473    0.059806499883960244    0.05002571698523414    0.04346686682667188    0.03981860679917136    
  0.03865895022762294    0.03981858469217074    0.04346690265596091    0.050026173319481795    0.059806998134861226    
  0.07230851436488868    0.053786217885989966    0.05980654313432789    0.0655244251955764    0.06908614490895708    
  0.06908611200675978    0.06552506967586888    0.059806486880772614    0.05378514678435748    0.04878490943002295    
  0.04537827559587933    0.043466861139172995    0.04263279080445914    0.04263264154980733    0.043466914800257245    
  0.04537791147163214    0.04878449254952542    0.053786217885989966    0.04829030490174138    0.048785022032061344    
  0.050026096044361125    0.05129398793345842    0.05181458892578409    0.051293868161998296    0.05002570879800603    
  0.04878490560769901    0.048291148145519165    0.04878488738500386    0.050025700306627854    0.05129388587333169    
  0.051814579130527845    0.0512939793671012    0.05002609667998939    0.04878502630326614    0.04829030490174138    
  0.0537862023795755    0.04878448340590643    0.04537790099366479    0.04346691481769248    0.04263264365016909    
  0.04263278745835683    0.043466864520631095    0.04537829122619144    0.048784909393492885    0.053785129456466636    
  0.05980648728746176    0.06552507966937696    0.06908610595133353    0.06908612755910987    0.06552442482938864    
  0.05980653652406157    0.0537862023795755    0.0723085167240819    0.05980698955978559    0.05002617936888217    
  0.04346690292457536    0.03981859098494404    0.03865895536651482    0.03981860874499341    0.043466870221740575    
  0.05002571746832406    0.0598064786906004    0.07230992805206765    0.08553254510363037    0.09597949536715816    
  0.09999568478647154    0.09598031054929469    0.08553251715264508    0.0723085167240819    0.10936399563512654    
  0.08553206150553146    0.06552436878208709    0.05129401114669655    0.04263247335759626    0.03865935689125545    
  0.038658948044924334    0.04263279074647458    0.05129387592994671    0.0655250728705231    0.08553251493522987    
  0.10936225156772457    0.131749881484176    0.14556981967437016    0.1455684395410772    0.1317502291298021    
  0.10936399563512654    0.1703218318983495    0.13175061026342932    0.09598037608442699    0.06908596505947796    
  0.05181487314197382    0.04263247012411661    0.039818578649549664    0.04263264263339855    0.051814591411507    
  0.06908608930748716    0.09597949913592761    0.1317499055429691    0.1703244477933641    0.20059591335586657    
  0.21208804288205738    0.20059608984229332    0.1703218318983495    0.2501915519184209    0.2005955081792911    
  0.14556862801726686    0.09999583684662637    0.06908597311564599    0.05129400849564725    0.04346689315807294    
  0.04346691499436852    0.051293984229119335    0.06908613358561096    0.09999566031480493    0.14556982856994735    
  0.20059591901605336    0.2501887918266297    0.27854763668089644    0.2785497740925263    0.2501915519184209    
  0.3217776264367315    0.27854922016780187    0.21208876117743491    0.145568629236526    0.09598035561225438    
  0.06552438001173709    0.05002618639632048    0.04537790992303435    0.050026105160087486    0.06552440845885861    
  0.09598029474667466    0.1455684136807376    0.21208801263878896    0.27854761817997575    0.32178404907225105    
  0.33516684767938315    0.3217776264367315    0.35675435287709656    0.3351658391253307    0.2785492102584612    
  0.20059550948694232    0.13175064644400342    0.08553206041312025    0.059807003132061165    0.04878449743751233    
  0.0487850366522077    0.05980653649819051    0.08553249879539189    0.1317502575379325    0.20059611131881874    
  0.2785497752471446    0.3351668434314224    0.35674753849343216    0.35675435287709656    0.36335488529634985    
  0.35675433192231554    0.3217776410220347    0.2501915858958874    0.170321825243941    0.10936397639562809    
  0.07230849678917203    0.053786211839263784    0.048290303153941345    0.053786196252258736    0.07230851210437152    
  0.10936399085692326    0.17032180981075282    0.250191589546933    0.3217776051728253    0.3567543580117569    
  0.36335488529634985    0.2673003386749179    0.2526866974078845    0.21320022933450603    0.1614881168698824    
  0.1132032975906985    0.07745236354948576    0.055087487528928544    0.04349229872061805    0.039988007776304506    
  0.04349228157009387    0.05508749150800824    0.07745237305060969    0.11320327304062783    0.16148810621301682    
  0.2132002093422507    0.25268671758023215    0.2673003386749179    0.2526867142872743    0.2526857193849298    
  0.22565962332511036    0.18024821928076848    0.13109076568764283    0.09066598322334792    0.06319488576483721    
  0.047313898911977355    0.040310456845500844    0.040310445707750345    0.04731395066195959    0.06319487037599378    
  0.0906662639873781    0.1310900612296649    0.18024857694535962    0.22565900416634171    0.2526867142872743    
  0.2132002290601391    0.22565960404747035    0.21320070447981007    0.18024818991741148    0.1379938269745852    
  0.09876876324641277    0.06949732099205493    0.05090929647585315    0.04111154809739822    0.03811556077034133    
  0.04111144233644719    0.050909291547045266    0.06949701448677728    0.09876922416559598    0.1379939757613141    
  0.18024856156785837    0.2132002290601391    0.16148809189611366    0.18024815639434377    0.18024816977268118    
  0.16148794697829394    0.13109058947400862    0.09876927673455461    0.0718778402003304    0.053101106607669535    
  0.041920434569760315    0.036863712533845586    0.03686381444036398    0.04192043917441471    0.05310142549991113    
  0.07187745024507582    0.0987692356240315    0.13109007497591502    0.16148809189611366    0.11320331189370195    
  0.1310907376437772    0.13799384063860837    0.13109062232250457    0.11320315842747336    0.09066603615676276    
  0.06949684877195851    0.0531011679793399    0.04225141807465428    0.03632111874380301    0.034464693202635115    
  0.036321099240905215    0.042251103446997104    0.0531014164261889    0.06949700379302162    0.09066625837211029    
  0.11320331189370195    0.07745235455400966    0.09066597780065848    0.09876876099057519    0.09876927206107214    
  0.09066604864998959    0.07745252044576097    0.06319485669234083    0.0509096171475057    0.0419204684983303    
  0.03632092691047061    0.033696524092423956    0.033696635521771254    0.036321099058953726    0.0419204461630552    