#     DFTpy    
  CRYSTAL 
    
  PRIMVEC    
  3.9424137931034475    0.0    0.0    
  0.0    3.9424137931034475    0.0    
  0.0    0.0    3.9424137931034475    
  PRIMCOORD    
  2    1    
  Si    0.0    0.0    0.0    
  Si    1.9712068965517238    1.9712068965517238    1.9712068965517238    
  BEGIN_BLOCK_DATAGRID_3D    
  3d_datagrid_density    
  BEGIN_DATAGRID_3D#0    
  17    17    17    
  0.0    0.0    0.0    
  3.9424137931034475    0.0    0.0    
  0.0    3.9424137931034475    0.0    
  0.0    0.0    3.9424137931034475    
  0.059638340400109284    0.11092349133753547    0.2759963525250079    0.3657558177744634    0.271975660178864    
  0.16069366346919595    0.09605697148473022    0.06671519519971054    0.05849587966172119    0.06671520628809416    
  0.09605700018798587    0.1606936107654775    0.27197569905177693    0.3657557432605636    0.2759963526309664    
  0.11092348915788372    0.059638340400109284    0.11092348238248613    0.16889173503082766    0.3147889269928328    
  0.35884132348050923    0.25634876461375217    0.15222418792762427    0.09249565116939008    0.06520644280976683    
  0.05751100025835973    0.06520645368943234    0.09249560936107243    0.15222421078788964    0.25634869433748386    
  0.3588413928631401    0.31478887141955636    0.16889173694440984    0.11092348238248613    0.27599631905321426    
  0.31478891965894656    0.36504323270533584    0.3188700198826003    0.21405880593519244    0.13061042398163647    
  0.0834902736567758    0.061511285726535386    0.05522849387612457    0.06151128416435693    0.08349029231071212    
  0.1306104042716371    0.21405883681603052    0.31886999275544414    0.3650432959844825    0.31478895086403125    
  0.27599631905321426    0.36575585272919287    0.358841298086931    0.3188699826543472    0.2408371196498886    
  0.1610032378795086    0.10488644795493016    0.07287064906552386    0.057454193899230226    0.052977687972146324    
  0.05745421411797953    0.07287062626636569    0.10488648806048663    0.16100317339011233    0.24083711939945032    
  0.31886992918997453    0.3588413602084937    0.36575585272919287    0.27197562915043016    0.2563487576961195    
  0.21405883194416267    0.16100325485976774    0.11480485420924069    0.08288455943124441    0.06410849850145577    
  0.05478451740249756    0.052030986667803765    0.05478451713207949    0.06410851723704059    0.08288452990614815    
  0.11480490186357631    0.161003204981352    0.21405886003975236    0.2563487762211841    0.27197562915043016    
  0.16069363315069446    0.1522242124630899    0.13061040021787496    0.10488645788651174    0.08288452603502947    
  0.06759755847285856    0.05861988522829554    0.05425154860557642    0.0529776681595352    0.05425156055455682    
  0.0586198734444315    0.06759759561721833    0.08288448481251187    0.10488649790914863    0.13061037544303244    
  0.15222420743893436    0.16069363315069446    0.0960569664349039    0.09249564488728311    0.08349025919530026    
  0.07287066160474823    0.06410847792894536    0.058619896778806906    0.0560721121211529    0.055324503864163654    
  0.0552285111375966    0.05532450539256811    0.05607212474775306    0.05861986141804587    0.06410850826454063    
  0.07287063480486189    0.08349028327930326    0.09249562693926969    0.0960569664349039    0.06671519304921703    
  0.06520645080175047    0.061511293364107676    0.05745421086195093    0.05478452450924937    0.054251554555805694    
  0.055324490127504504    0.05681738282512581    0.05751097872324295    0.05681738871152227    0.05532448057006043    
  0.05425156164686264    0.05478450823765746    0.05745423898497396    0.06151125966499481    0.06520645761794887    
  0.06671519304921703    0.05849588036796087    0.0575110045381448    0.05522848828521972    0.05297768611141612    
  0.05203096628602223    0.05297768805848111    0.055228501476243606    0.05751097597115664    0.05849591620307529    
  0.05751096934981325    0.05522852460089372    0.0529776727511565    0.05203099577354344    0.052977661805602164    
  0.05522850783752539    0.05751099433419518    0.05849588036796087    0.06671518294159369    0.06520646201778735    
  0.061511287219239937    0.05745422398153228    0.05478451793780403    0.05425155563966818    0.055324496299102466    
  0.05681739154444486    0.05751095342376129    0.05681740565535502    0.05532445978707373    0.05425157773585828    
  0.05478447911000263    0.05745425535421621    0.06151126766348542    0.0652064645767594    0.06671518294159369    
  0.09605698758117276    0.09249561586318804    0.08349026540101429    0.07287064322129364    0.06410849840899963    
  0.05861987610523878    0.05607212972252698    0.05532446186277832    0.05522854547216602    0.05532445645850206    
  0.05607215133822977    0.05861984580719642    0.06410851387500352    0.0728706137742817    0.08349030806224389    
  0.0924956075621916    0.09605698758117276    0.16069359064470126    0.15222425355925515    0.13061035735560952    
  0.10488652142785207    0.0828844935226025    0.06759759888953157    0.05861985065345928    0.05425156980976338    
  0.05297764091277239    0.05425157800979176    0.05861984303778467    0.06759763276963782    0.08288446824954963    
  0.10488652790778885    0.13061032816221743    0.15222424326685155    0.16069359064470126    0.2719756916750984    
  0.2563487098872892    0.2140588950317052    0.1610032203077904    0.11480491062412525    0.08288451413671226    
  0.06410852584010422    0.054784489407117554    0.052031027441491594    0.05478448696166995    0.06410855051721162    
  0.08288448322546221    0.11480494267466985    0.1610031523751922    0.2140589314149411    0.25634870769396934    
  0.2719756916750984    0.3657558041432821    0.3588414281445001    0.31886992438434175    0.24083720463591596    
  0.1610031579576999    0.1048864789927132    0.07287061622567072    0.057454233166499634    0.052977651971269614    
  0.05745423320737657    0.07287059705505758    0.10488650720283893    0.16100314571894667    0.24083722359990528    
  0.31886989287888245    0.35884137105349195    0.3657558041432821    0.2759963477979138    0.3147889095590066    
  0.36504332479465207    0.3188699861884059    0.21405890347665715    0.13061040047753794    0.08349030892679413    
  0.061511262045113924    0.05522851551091891    0.06151126359750002    0.08349032275840085    0.1306103525658635    
  0.21405893211511695    0.3188699498814814    0.36504336669697685    0.31478888366595875    0.2759963477979138    
  0.11092344916085808    0.1688917844700547    0.31478888989834924    0.35884137571556146    0.2563487037853029    
  0.1522242174168292    0.09249560519947121    0.06520645818635275    0.057510992476194324    0.06520646932077588    
  0.09249559310608135    0.1522242518116859    0.2563486819804306    0.35884143699736865    0.3147888097929989    
  0.1688917791520584    0.11092344916085808    0.059638340400109284    0.11092349133753547    0.2759963525250079    
  0.3657558177744634    0.271975660178864    0.16069366346919595    0.09605697148473022    0.06671519519971054    
  0.05849587966172119    0.06671520628809416    0.09605700018798587    0.1606936107654775    0.27197569905177693    
  0.3657557432605636    0.2759963526309664    0.11092348915788372    0.059638340400109284    0.11092347218016665    
  0.16889177659436383    0.31478891411707405    0.35884134995072414    0.2563487076315696    0.1522242383997082    
  0.0924956077802806    0.06520645338807435    0.05751097885254068    0.06520647732296984    0.09249558953154682    
  0.15222425205807166    0.2563486990686137    0.3588413911651071    0.3147888431702147    0.1688917890826145    
  0.11092347218016665    0.16889175180896462    0.22570010141989535    0.34216532981814884    0.3480045687852026    
  0.24151583686192465    0.14456607813516176    0.0894040159390045    0.06401293736695911    0.056817368847073696    
  0.06401292012057712    0.08940401339069627    0.14456605166244063    0.24151588062196966    0.3480045259147495    
  0.3421653441862294    0.22570006120010933    0.16889175180896462    0.31478888707164643    0.34216532762311436    
  0.364603722994269    0.3033929938971433    0.2022903280204061    0.12522413466831017    0.08167113292790242    
  0.06119017719359097    0.05532451034515517    0.06119019643449628    0.08167111452206469    0.12522418901007434    
  0.20229024546629706    0.3033930543926519    0.36460369559794464    0.3421654003842362    0.31478888707164643    
  0.3588413136853215    0.348004600015451    0.3033929519030441    0.22783268568321782    0.15390009705502705    
  0.10232812981225174    0.07273924428635951    0.0584089010906965    0.05425155003572005    0.05840890780227425    
  0.07273926258918001    0.1023281173107579    0.15390012963151223    0.22783260651969423    0.3033929579218111    
  0.3480045268863997    0.3588413136853215    0.2563487152641276    0.2415158567382201    0.20229034227985207    
  0.15390010879558383    0.11184962866080188    0.0827638423900938    0.06569188483271211    0.05725785232885899    
  0.05478452123997805    0.05725787182707459    0.06569185691196384    0.08276388294242054    0.11184959556942153    
  0.15390016529359238    0.20229028498026816    0.2415159030023354    0.2563487152641276    0.15222421329159785    
  0.14456609887537286    0.12522410997878972    0.10232815290420331    0.08276381573561493    0.06938307082632099    
  0.06185224776954089    0.05840889017528418    0.05745422701919992    0.05840888146655936    0.06185224610878775    
  0.06938305289948005    0.08276383852090917    0.10232811629028118    0.12522413537531707    0.14456607937970534    
  0.15222421329159785    0.09249561228817708    0.08940400352009256    0.08167113709235056    0.07273925012745466    
  0.0656918654990361    0.06185227463837127    0.060820080847458304    0.0611901992212959    0.06151125859347823    
  0.06119021960955649    0.06082007430404899    0.061852282399733324    0.065691850969078    0.072739286106686    
  0.08167111046294713    0.08940402800338314    0.09249561228817708    0.0652064463360636    0.06401294153667968    
  0.06119017644820267    0.05840892382485311    0.05725785733506409    0.05840889189484936    0.0611901983423613    
  0.06401291520304912    0.06520649503477756    0.06401290496684553    0.061190223493643586    0.058408877909729866    
  0.05725788351205907    0.058408904788761866    0.06119018580154637    0.0640129317675918    0.0652064463360636    
  0.057510980882240055    0.05681736471152356    0.055324514064529026    0.05425154164932951    0.05478451072654701    
  0.05745423773580248    0.0615112579641354    0.06520650015988491    0.06671515291309661    0.06520651457492738    
  0.06151123472326281    0.05745427020583757    0.05478448428797618    0.054251570794974606    0.05532449158933555    
  0.05681738257866744    0.057510980882240055    0.06520646258046972    0.06401292762817563    0.06119019172263762    
  0.058408901626548736    0.0572578701104248    0.05840888323156633    0.06119022391101185    0.06401289750543014    
  0.06520650974868993    0.06401288852085704    0.061190211549613904    0.05840885856202832    0.057257891956886034    
  0.05840888674100887    0.06119021427196516    0.06401290970439823    0.06520646258046972    0.09249558997036804    
  0.08940402761265386    0.0816710885356625    0.07273928781431023    0.06569183415092697    0.0618522657017994    
  0.06082006628746524    0.061190230735365406    0.0615112381979672    0.06119022833564634    0.0608200497486211    
  0.06185230267290501    0.06569182811363497    0.07273931108687147    0.08167108903084361    0.0894040408407048    
  0.09249558997036804    0.15222424311064778    0.1445660407317838    0.12522416097550249    0.1023281111751191    
  0.08276385959694921    0.06938303311166401    0.0618522837814207    0.058408856405355605    0.057454256154932375    
  0.0584088652550219    0.06185230625316889    0.06938302566566985    0.08276389269884572    0.10232807073926396    
  0.1252241869141214    0.14456602002633084    0.15222424311064778    0.25634862229708316    0.24151594664059162    
  0.20229023208871663    0.153900189342335    0.11184957570825102    0.0827639030373831    0.06569184404665183    
  0.057257879093467266    0.054784486128581805    0.05725789833567007    0.06569183427892564    0.0827639075644134    
  0.11184955030747844    0.15390019142065955    0.20229024716738891    0.24151598058721233    0.25634862229708316    
  0.3588414125745352    0.3480044788414722    0.30339299866905173    0.22783261866550913    0.15390015654230874    
  0.102328077090952    0.07273929277382403    0.05840887300698746    0.05425157624744827    0.058408855192570684    
  0.07273929864021478    0.10232805714949031    0.1539001809044301    0.22783256089183782    0.30339303483693597    
  0.34800442860636116    0.3588414125745352    0.31478885891236386    0.3421653869832364    0.3646036952309916    
  0.3033930515902341    0.20229026362337407    0.12522419352143668    0.08167110730620995    0.06119020270977047    
  0.055324482789910825    0.061190221823774836    0.08167109585978394    0.12522419946426636    0.20229023561823087    
  0.30339309719446433    0.36460362215413233    0.34216541476648404    0.31478885891236386    0.16889175804449283    
  0.2257000618758582    0.3421653316550022    0.3480045327514789    0.2415158655498509    0.14456606996144827    
  0.08940401501586231    0.06401291818880935    0.056817378595610014    0.0640129155910407    0.08940404271620522    
  0.1445660404102774    0.24151591016076102    0.34800447463905543    0.34216532491994506    0.22570005865096443    
  0.16889175804449283    0.11092347218016665    0.16889177659436383    0.31478891411707405    0.35884134995072414    
  0.2563487076315696    0.1522242383997082    0.0924956077802806    0.06520645338807435    0.05751097885254068    
  0.06520647732296984    0.09249558953154682    0.15222425205807166    0.2563486990686137    0.3588413911651071    
  0.3147888431702147    0.1688917890826145    0.11092347218016665    0.27599637753394185    0.31478888998815857    
  0.3650433201990557    0.318869966388313    0.2140588814873068    0.13061041207474014    0.08349028496607348    
  0.06151127350084527    0.055228505469624774    0.06151127960654892    0.08349030676346174    0.13061037093286762    
  0.21405890404901276    0.31886988806136973    0.365043322742572    0.3147888836449918    0.27599637753394185    
  0.31478886837214165    0.34216535685726784    0.3646037243420015    0.3033929975164115    0.2022903078059904    
  0.1252241409888142    0.08167113541989063    0.06119019434345677    0.05532449704733471    0.0611902041142334    
  0.08167109410063222    0.12522418089633666    0.202290228827865    0.3033930789912471    0.36460363824872516    
  0.3421653182883151    0.31478886837214165    0.36504323597302885    0.3646036890959767    0.33456602291871274    
  0.2570941519528651    0.17211878727425634    0.1117680780672518    0.0773377599554376    0.06082007991096202    
  0.056072111834558715    0.06082007299697097    0.07733778528920175    0.11176804906346029    0.17211880373646463    
  0.2570941384311695    0.3345660530769121    0.36460370582650475    0.36504323597302885    0.31886996986465876    
  0.30339297465465404    0.25709412028371464    0.19347682935609484    0.13587677588292296    0.09614871080558697    
  0.07309462912204182    0.061852244856275614    0.05861986923593678    0.061852271121793534    0.07309460120413472    
  0.09614875646597804    0.13587671722737035    0.1934768543961493    0.2570940650261813    0.3033930148696781    
  0.31886996986465876    0.2140588441340131    0.20229030707004358    0.1721187932302344    0.13587677769240472    
  0.10472065131363441    0.08345203199994078    0.07136485503035911    0.06569186307097155    0.06410851358406568    
  0.06569186243218805    0.07136487605154483    0.08345201359427917    0.10472069498088445    0.13587675033733645    
  0.17211883168324582    0.20229032243905948    0.2140588441340131    0.1306103877129114    0.12522415851975613    
  0.11176805152450137    0.09614872830943959    0.08345200961138032    0.07594681588354046    0.07309463357653335    
  0.07273928753646207    0.07287061409013548    0.07273929563863067    0.07309460101704224    0.07594684287616486    
  0.08345197234239161    0.09614875756014787    0.11176802022107382    0.12522416214213328    0.1306103877129114    
  0.08349027799340701    0.08167112525622659    0.07733775872423217    0.07309463061494777    0.07136484070939642    
  0.07309464529151719    0.07733778444180123    0.0816710886622221    0.08349031563837934    0.08167108750167243    
  0.07733780673425203    0.07309461496338263    0.07136486429061559    0.07309462314723014    0.07733777591952988    
  0.08167111936638041    0.08349027799340701    0.06151126630612317    0.0611901924017362    0.06082008290819144    
  0.061852256006159165    0.06569186376500895    0.07273929820371156    0.0816710868491609    0.08940405960614477    
  0.09249558378425697    0.08940405608061104    0.08167106261881804    0.07273931244807871    0.06569183617601392    
  0.06185229028998986    0.0608200518443677    0.06119020289130892    0.06151126630612317    0.0552285113344195    
  0.0553245057569506    0.056072108407448674    0.05861986914209789    0.06410850828796621    0.07287061935333289    
  0.08349030740054102    0.09249557668836282    0.09605704131170008    0.09249556562592044    0.08349032926709463    
  0.07287061579972208    0.06410853616491657    0.05861984327054013    0.056072123772720445    0.05532450321585591    
  0.0552285113344195    0.06151125480807463    0.06119020871378681    0.06082007778255339    0.06185226925836653    
  0.06569186462498122    0.07273929504932079    0.0816710952429332    0.08940405655048694    0.09249555254672794    
  0.08940409240695292    0.08167104523681186    0.07273931616438933    0.06569182514640215    0.061852307555590604    
  0.060820049454023424    0.06119021376356702    0.06151125480807463    0.08349030807682054    0.08167109303770159    
  0.07733776959908674    0.0730946267796716    0.07136485342288164    0.07309460240565158    0.07733781074647601    
  0.08167104177032725    0.08349035500966216    0.08167105035127195    0.07733782631260123    0.0730945789673113    
  0.07136487671746472    0.07309459156434381    0.07733780599406813    0.08167109287063944    0.08349030807682054    
  0.13061033589280843    0.1252242067164152    0.11176800624310688    0.09614877360128868    0.08345196759868748    
  0.07594684814711211    0.07309457752629658    0.07273932265676426    0.07287058383659356    0.07273931548691498    
  0.07309456683902266    0.07594688838496685    0.08345194241174186    0.0961487868643352    0.11176797777774572    
  0.12522419783098493    0.13061033589280843    0.2140588995828463    0.20229023978170654    0.17211885897138807    
  0.13587673762349706    0.10472071386166805    0.0834519991244636    0.07136489024782519    0.06569183553958068    
  0.06410856722026424    0.06569183337284382    0.0713649067532727    0.08345197018045082    0.1047207348752773    
  0.13587667326969768    0.1721188791945039    0.2022902557619885    0.2140588995828463    0.3188699399643995    
  0.3033931031861397    0.25709406357559833    0.19347689125298617    0.13587670875207186    0.09614874299431632    
  0.07309459753972833    0.061852287227638254    0.05861983146103117    0.06185228437488923    0.07309457114037249    
  0.09614877784397656    0.1358766772371276    0.1934769070546593    0.25709403549890364    0.30339308415451904    
  0.3188699399643995    0.36504334086380463    0.3646036482808975    0.33456608477704985    0.25709412022448214    
  0.17211882805007636    0.1117680430900708    0.0773377942612923    0.06082004597028315    0.05607213029556745    
  0.060820041476647706    0.0773378052385721    0.1117679985379491    0.17211886505713792    0.2570940811813634    
  0.33456613738376995    0.36460363389055184    0.36504334086380463    0.31478882609446396    0.3421654037268789    
  0.3646036715331896    0.3033930571860028    0.20229025572861725    0.1252241679667458    0.08167110084345801    
  0.06119020883198949    0.05532449398441019    0.06119021130526218    0.08167108243702047    0.12522421414042093    
  0.20229021851305964    0.30339310910803563    0.36460357618267686    0.3421653960867026    0.31478882609446396    
  0.27599637753394185    0.31478888998815857    0.3650433201990557    0.318869966388313    0.2140588814873068    
  0.13061041207474014    0.08349028496607348    0.06151127350084527    0.055228505469624774    0.06151127960654892    
  0.08349030676346174    0.13061037093286762    0.21405890404901276    0.31886988806136973    0.365043322742572    
  0.3147888836449918    0.27599637753394185    0.36575578776400053    0.3588413762210241    0.31886995138544766    
  0.24083714341840853    0.1610031816627693    0.1048865071381066    0.07287061530651924    0.05745422890776656    
  0.05297764461954318    0.057454261513103295    0.07287059806389869    0.10488652718632134    0.1610031559816222    
  0.24083718419414182    0.31886990980918095    0.3588414241618701    0.36575578776400053    0.3588413734608041    
  0.3480044767208413    0.30339303351069385    0.22783264497466713    0.1539001379174614    0.102328105702565    
  0.07273927581934221    0.058408885185159964    0.054251564922505796    0.05840887813523697    0.07273927686576193    
  0.10232809367801293    0.1539001561183426    0.22783260936304497    0.30339303939133944    0.34800446487196063    
  0.3588413734608041    0.3188699329585034    0.30339303467685536    0.2570941384870224    0.19347680311338922    
  0.1358767439261921    0.09614873585808238    0.07309462484441454    0.06185225048741561    0.058619862211446626    
  0.06185227184431169    0.07309460911489611    0.09614877915148307    0.1358766781827806    0.19347686558809526    
  0.2570941174034333    0.30339308556149885    0.3188699329585034    0.2408371472849345    0.2278326503202027    
  0.193476790332739    0.15126696872116077    0.1148523685620634    0.0900522266419983    0.07594682505777917    
  0.06938304739642111    0.06759761658704747    0.06938305357698052    0.07594683641154722    0.0900522105632395    
  0.11485238504935526    0.15126690886529776    0.19347679668360818    0.2278326042014667    0.2408371472849345    
  0.161003161207617    0.15390014833411553    0.13587677483977179    0.11485236913490048    0.0978000595524879    
  0.08757084279762323    0.08345198877469605    0.08276386732259504    0.08288448838072146    0.08276388641015152    
  0.08345197925815145    0.08757087560490864    0.09780002777982236    0.11485240278019268    0.13587673041762854    
  0.15390016506376517    0.161003161207617    0.10488649417186355    0.102328129655873    0.0961487085861316    
  0.09005224964292854    0.08757081338611877    0.09005221457382354    0.09614875585775393    0.1023280778287087    
  0.10488650904913133    0.10232806045280841    0.09614875213759563    0.09005220106110576    0.08757084677447761    
  0.09005221263616796    0.09614873106153311    0.10232809778212192    0.10488649417186355    0.0728706193039595    
  0.07273926684503255    0.07309463233050996    0.0759468219326134    0.08345197828742666    0.09614876256385249    
  0.11176800326681167    0.1252241999544959    0.13061030951056993    0.12522423848063235    0.11176799693242691    
  0.09614878793050509    0.08345195196689335    0.07594686829457899    0.07309460916393962    0.07273928821566286    
  0.0728706193039595    0.05745422286901195    0.05840888632390503    0.0618522520924048    0.06938306709591865    
  0.08276386740493645    0.10232806976497853    0.12522419395889806    0.1445660063587454    0.15222431265101707    
  0.14456600055416796    0.12522421635466738    0.1023280511760474    0.08276389090888935    0.06938305120104635    
  0.061852260074608215    0.05840888573490556    0.05745422286901195    0.052977653436713325    0.05425156652371851    
  0.05861986046090806    0.06759760518439323    0.0828844763717019    0.10488654018769455    0.13061031884147323    
  0.15222429239267488    0.16069350198363586    0.15222432309612857    0.1306102800520214    0.10488657587451228    
  0.0828844504187315    0.06759763731133991    0.058619833220346626    0.05425158212978856    0.052977653436713325    
  0.057454234618403134    0.05840888005924237    0.061852276087218105    0.06938304724293082    0.08276387755075786    
  0.10232805271844425    0.12522423872399865    0.14456596474124322    0.15222431299608138    0.14456596460113094    
  0.1252242286031147    0.10232802181318874    0.0827639126987975    0.06938302931392328    0.06185228722705726    
  0.05840885972214202    0.057454234618403134    0.07287059236805497    0.07273929289953607    0.0730945773303515    
  0.07594686193601766    0.08345194220986418    0.0961487859553207    0.11176799743535963    0.12522422246249595    
  0.13061028074963107    0.1252242443069107    0.11176796378276063    0.09614883136958717    0.0834519281335564    
  0.07594687946895874    0.07309458159514623    0.07273931440024195    0.07287059236805497    0.10488652868985596    
  0.10232807255112761    0.096148750684528    0.09005221341892307    0.0875708731029257    0.09005215884990968    
  0.09614877982076099    0.10232802876474496    0.10488656327955469    0.10232802301222689    0.09614881548408781    
  0.09005216758385652    0.08757087730247802    0.09005216990585914    0.09614877209259691    0.10232804811037151    
  0.10488652868985596    0.16100309669807467    0.15390019473611322    0.1358766950628215    0.11485242774761538    
  0.09780001414785386    0.08757088861693493    0.08345195004970915    0.08276390486267703    0.08288443470745831    
  0.08276393257443417    0.08345194103868267    0.08757091132640415    0.09779998622606637    0.11485244533249052    
  0.1358766799056388    0.15390023786626053    0.16100309669807467    0.24083721449405252    0.22783256958618492    
  0.19347683778792743    0.15126692389113935    0.11485240750922389    0.0900521801756604    0.07594686836448707    
  0.06938301684784544    0.06759764725300686    0.06938299195475223    0.0759468759949348    0.09005216200051153    
  0.1148524232722216    0.15126685828312508    0.19347688085545514    0.22783253314387314    0.24083721449405252    
  0.31886988874717925    0.30339305985777687    0.2570941282666245    0.19347683799402654    0.1358767138510647    
  0.09614877785666641    0.07309460290042084    0.06185227884041129    0.058619823723871284    0.0618523028665895    
  0.07309458456362954    0.09614878886268906    0.13587668557409063    0.19347689871849474    0.2570940809487646    
  0.3033930886246308    0.31886988874717925    0.35884139280165445    0.3480044730687536    0.3033930216214365    
  0.22783261861373205    0.1539001699621136    0.10232808460644596    0.07273928834503644    0.05840887386756494    
  0.05425157794795085    0.05840886532882836    0.07273930361247372    0.10232807513252443    0.15390019495289942    
  0.22783257863013717    0.3033930357310432    0.34800445378500755    0.35884139280165445    0.36575578776400053    
  0.3588413762210241    0.31886995138544766    0.24083714341840853    0.1610031816627693    0.1048865071381066    
  0.07287061530651924    0.05745422890776656    0.05297764461954318    0.057454261513103295    0.07287059806389869    
  0.10488652718632134    0.1610031559816222    0.24083718419414182    0.31886990980918095    0.3588414241618701    
  0.36575578776400053    0.27197573798672664    0.25634872536261116    0.21405891090281387    0.16100318304334574    
  0.11480491538829211    0.08288451225445935    0.06410851901675024    0.05478449116304706    0.05203099839821425    
  0.054784502341571416    0.06410853903638132    0.08288449046317321    0.11480493133511355    0.1610031388780965    
  0.21405891973871607    0.2563487244815948    0.27197573798672664    0.25634869433794805    0.24151588127624854    
  0.20229029038493715    0.1539001524734032    0.11184960403738088    0.0827638520385342    0.06569187006866364    
  0.0572578787186296    0.05478449427266467    0.057257890553920256    0.06569184099017858    0.08276388320239589    
  0.1118495466388009    0.1539001919990585    0.20229024832794676    0.24151588322509615    0.25634869433794805    
  0.21405890210614822    0.202290274522844    0.17211879994470955    0.13587674648433473    0.10472065426207236    
  0.08345201918829102    0.07136487309813201    0.06569185191365948    0.06410852833379371    0.06569185140673836    
  0.07136488549529932    0.08345198879534622    0.10472068546766498    0.1358767418326402    0.1721188564017715    
  0.202290301803143    0.21405890210614822    0.16100319712991074    0.15390014361313725    0.13587674424100937    
  0.11485238811420675    0.0978000586155636    0.08757082742130003    0.08345198486531279    0.08276387178329304    
  0.08288447503929472    0.0827638977673951    0.08345195504299957    0.087570869810669    0.09780001175252169    
  0.11485240000878692    0.1358767047121796    0.1539001660788979    0.16100319712991074    0.11480489308674131    
  0.11184960990269874    0.1047206775136043    0.09780007556040879    0.09504164069153473    0.09780007391814696    
  0.1047207098882838    0.11184955947920291    0.11480494268748995    0.11184955944913356    0.10472073494473011    
  0.09780003573757863    0.09504167999890538    0.09780003767931189    0.10472070209440848    0.11184961252927393    
  0.11480489308674131    0.08288450156822179    0.08276387156340452    0.08345199823234119    0.08757083549552643    
  0.09780003389352768    0.1148523744484831    0.13587671199509999    0.15390021149554473    0.16100310763024503    
  0.15390022387147292    0.1358766780400554    0.11485243365786327    0.09779999955735476    0.0875708760348461    