#     DFTpy    
  CRYSTAL 
    
  PRIMVEC    
  3.2837298341168557    -1.8041452e-10    3.419627048275862e-10    
  -1.8041452e-10    3.283729833926047    1.6477416620689654e-10    
  6.248937275862068e-10    3.011540551724138e-10    6.015856696860532    
  PRIMCOORD    
  4    1    
  Si    1.6418649169958661    1.6418649178665938    1.8486381689499027    
  Si    6.088458738181156e-10    -5.634787410785077e-10    1.1592901774581237    
  Si    9.33826463880729e-11    4.2556101113281985e-10    4.856566515990168    
  Si    1.6418649174881341    1.6418649166192645    4.167218531829605    
  BEGIN_BLOCK_DATAGRID_3D    
  3d_datagrid_density    
  BEGIN_DATAGRID_3D#0    
  15    15    27    
  0.0    0.0    0.0    
  3.2837298341168557    -1.8041452e-10    3.419627048275862e-10    
  -1.8041452e-10    3.283729833926047    1.6477416620689654e-10    
  6.248937275862068e-10    3.011540551724138e-10    6.015856696860532    
  0.511821175953846    0.4742544331843494    0.3804746844711937    0.2735714806141212    0.18688214801612296    
  0.13055445048701772    0.10091881089301218    0.09183986192069157    0.10091880886770307    0.13055444071999028    
  0.18688214829932914    0.27357149484391285    0.38047473434375995    0.47425446293389967    0.511821175953846    
  0.47425451536174107    0.44037396771488463    0.35563862001595925    0.2586456243160142    0.1793475594854025    
  0.1272067490026273    0.09952710407417191    0.09102915457913499    0.09952711954931204    0.1272067062162487    
  0.1793475446728188    0.2586456337560353    0.3556385073288103    0.44037397962005553    0.47425451536174107    
  0.38047471541920574    0.35563857580432706    0.29325778662299884    0.22072447455246846    0.15979431110832995    
  0.11847808299243236    0.0961176472777107    0.08923084655724711    0.09611765636763148    0.1184780200485654    
  0.1597943733049937    0.2207244947116688    0.2932577463150767    0.3556385653659868    0.38047471541920574    
  0.27357147456853587    0.25864555644727677    0.2207244876990829    0.17532751412874664    0.13566372571578234    
  0.10777463060808752    0.09235171600492133    0.08758269328422322    0.09235168210209854    0.10777467698110903    
  0.13566378552765682    0.1753274723540531    0.22072443862207233    0.25864559489484135    0.27357147456853587    
  0.1868821481944937    0.17934752353400313    0.15979436187677543    0.1356637621592964    0.1140309105718284    
  0.09847151175076815    0.08967872369337068    0.08692740121090012    0.08967870650907198    0.09847148572122398    
  0.11403093323584208    0.1356637350927293    0.15979435898006514    0.17934756727927284    0.1868821481944937    
  0.13055444384428905    0.1272067167712434    0.11847807276757041    0.1077746665018225    0.09847149866947512    
  0.0920237285558694    0.08844882884023597    0.08734535827440397    0.08844880549769697    0.09202375030591216    
  0.09847151785929859    0.10777464748113437    0.11847802533330568    0.1272067295314322    0.13055444384428905    
  0.10091884503212731    0.099527100101633    0.09611764232933913    0.09235169279629088    0.08967875655401251    
  0.08844880527979425    0.08820583259348592    0.08826522641390605    0.08820584158070867    0.08844880917412185    
  0.08967871932312076    0.09235168526594933    0.09611766054774487    0.09952707946736142    0.10091884503212731    
  0.09183985924240685    0.0910291473039669    0.08923082574430552    0.08758269210557762    0.08692735586028875    
  0.08734538125711205    0.08826526318532059    0.08877658155123527    0.08826522753266265    0.08734534924417131    
  0.0869273931316222    0.08758271188059444    0.08923083526051864    0.09102915131502756    0.09183985924240685    
  0.10091884663941823    0.09952709981832557    0.09611764722146766    0.09235169318456952    0.08967871913870336    
  0.08844879235702872    0.08820587045438552    0.08826524284439205    0.08820584280599818    0.08844881298011244    
  0.08967873238813602    0.09235168904518946    0.09611764073903623    0.09952713249572315    0.10091884663941823    
  0.1305544257247502    0.1272067286599497    0.11847804451175817    0.10777467178334639    0.09847147551189168    
  0.09202374960482024    0.08844880963097755    0.08734535957107858    0.08844881946846982    0.09202373783212725    
  0.09847153006004948    0.10777466756467372    0.11847804343153016    0.12720674172055296    0.1305544257247502    
  0.18688215137246558    0.17934753047006924    0.1597943847265405    0.1356637519925562    0.11403089780019074    
  0.09847153704237586    0.08967873791051366    0.08692738481083308    0.0896787317379553    0.09847151337451482    
  0.11403094268813367    0.13566376523978166    0.1597943397414783    0.1793475494064759    0.18688215137246558    
  0.27357147823562006    0.25864559489774624    0.22072450248903877    0.1753275117773565    0.13566373888439992    
  0.10777466214594443    0.09235165750324226    0.08758269068055474    0.09235168625435838    0.10777464531305254    
  0.13566376259388405    0.17532748258201397    0.22072443340998    0.25864561975642525    0.27357147823562006    
  0.38047472714137176    0.35563851394562584    0.2932578227723212    0.22072448237302308    0.15979433028224913    
  0.1184780532108417    0.09611766905545023    0.08923085558467557    0.09611763749492674    0.11847802851492464    
  0.15979436938214306    0.2207245025206537    0.29325778990268875    0.3556385814076386    0.38047472714137176    
  0.4742545222444916    0.4403739864016342    0.3556385157535684    0.2586456255622652    0.17934755971033325    
  0.1272067142156981    0.09952710291060946    0.09102915730926474    0.09952712357626858    0.12720670350038893    
  0.1793475391972204    0.25864562672931235    0.3556385577044603    0.44037394524169005    0.4742545222444916    
  0.511821175953846    0.4742544331843494    0.3804746844711937    0.2735714806141212    0.18688214801612296    
  0.13055445048701772    0.10091881089301218    0.09183986192069157    0.10091880886770307    0.13055444071999028    
  0.18688214829932914    0.27357149484391285    0.38047473434375995    0.47425446293389967    0.511821175953846    
  0.5173815336194875    0.4839740136760502    0.39591710249012285    0.2886222568811967    0.1977774224705651    
  0.13774176894928936    0.10592398557078156    0.0961394736164541    0.10592396897223984    0.1377417539623027    
  0.197777408300716    0.2886222782938246    0.39591721461064655    0.4839739874658656    0.5173815336194875    
  0.48397403350848156    0.45301763023851527    0.3719032881932332    0.27353191714221015    0.19011034200878987    
  0.1344974359730017    0.10474477029600915    0.09555181057779887    0.10474477703802978    0.1344974057066489    
  0.190110323891386    0.2735319517867839    0.37190323790010954    0.4530176340118674    0.48397403350848156    
  0.3959171386381859    0.3719032708135661    0.309679781549071    0.2345806966221532    0.17013363235629894    
  0.12609673234377874    0.10199572446429145    0.0944694196295523    0.10199573678938112    0.1260966891778464    
  0.17013370304777164    0.23458074718004077    0.3096797448536071    0.37190328070356077    0.3959171386381859    
  0.2886222159385892    0.27353185828344717    0.23458074331262166    0.18715650799088313    0.14537923607066758    
  0.11584613114738875    0.09924559033538095    0.09400115302897863    0.09924557511875905    0.11584616535713226    
  0.14537927923053492    0.18715646990755364    0.23458067931920545    0.2735319146804305    0.2886222159385892    
  0.19777740778562852    0.19011031156760796    0.17013367524800513    0.145379265324166    0.12309342244535126    
  0.10697461609876648    0.09774718150814277    0.09480869099877992    0.09774715508577486    0.10697462533474016    
  0.12309344334379178    0.14537923826964824    0.1701336766705931    0.19011034543145555    0.19777740778562852    
  0.13774176049136355    0.13449743006430315    0.12609673981048095    0.11584618369709225    0.10697459968116073    
  0.10093199316041687    0.09768391348146337    0.09669607684708748    0.09768388762845583    0.10093198877477812    
  0.10697463550088201    0.11584616027394502    0.12609669852903632    0.13449744907159905    0.13774176049136355    
  0.10592399355344224    0.10474476774288165    0.10199572755855038    0.09924559382543735    0.09774721946569322    
  0.09768389029283865    0.09827359777691269    0.09860690323579129    0.09827359310021411    0.09768391038598563    
  0.09774718445190425    0.09924559164496749    0.10199573530268248    0.10474477784096649    0.10592399355344224    
  0.09613946783936199    0.09555180897932254    0.09446939257235071    0.09400114665669393    0.09480864587591087    
  0.09669609363189281    0.09860692052316336    0.09941197190622177    0.09860687275631365    0.09669605875481074    
  0.09480866724432707    0.09400115574513125    0.09446942474515492    0.0955518060692364    0.09613946783936199    
  0.10592399500079105    0.10474477186439615    0.10199575028412888    0.09924559793966946    0.09774719710716674    
  0.09768390099898416    0.09827358886579492    0.09860690636632836    0.09827359966854832    0.09768389216818454    
  0.09774721156878403    0.09924558156436966    0.10199572712085485    0.10474479208463422    0.10592399500079105    
  0.13774172642515897    0.13449743083175067    0.12609671178778373    0.11584616869940985    0.1069746021114211    
  0.10093200698603612    0.0976839207356618    0.09669606884535233    0.097683927342564    0.10093198973150042    
  0.10697464809309641    0.11584615076262926    0.12609670138407486    0.13449743155431207    0.13774172642515897    
  0.1977774328925544    0.1901102874503545    0.170133694598352    0.14537925553723313    0.12309341662396708    
  0.10697462125733766    0.09774722139212928    0.0948086688536265    0.09774719866517582    0.10697461386401283    
  0.12309345022060468    0.1453792381591595    0.17013365306032008    0.1901103352853815    0.1977774328925544    
  0.2886222577811777    0.273531882849829    0.23458075505604606    0.18715647394475463    0.14537924516581005    
  0.11584615396463609    0.09924555060095333    0.09400114074160823    0.09924556566478733    0.1158461307574613    
  0.14537925988947328    0.18715644870517734    0.2345806840503856    0.27353192244520036    0.2886222577811777    
  0.39591720011365694    0.37190320524686216    0.3096797973474597    0.234580736040779    0.1701336549367508    
  0.1260967109558623    0.10199574842544408    0.09446945039794509    0.1019957215077573    0.12609669576668414    
  0.1701336926969267    0.2345807214990502    0.30967977873987607    0.37190326651496497    0.39591720011365694    
  0.48397405043819003    0.4530175616520382    0.3719032255769012    0.2735319093708712    0.1901103650588115    
  0.13449741781840605    0.10474476695023605    0.09555181659501776    0.10474477824148966    0.1344974198414914    
  0.19011033259518498    0.2735319174297295    0.3719032596666579    0.4530176071152841    0.48397405043819003    
  0.5173815336194875    0.4839740136760502    0.39591710249012285    0.2886222568811967    0.1977774224705651    
  0.13774176894928936    0.10592398557078156    0.0961394736164541    0.10592396897223984    0.1377417539623027    
  0.197777408300716    0.2886222782938246    0.39591721461064655    0.4839739874658656    0.5173815336194875    
  0.45919703111061505    0.4536027874008273    0.41358153227492517    0.32557296519383416    0.22877167202063325    
  0.15870237727341163    0.12052177371676927    0.10870260243372906    0.12052174745084675    0.15870236139886665    
  0.2287716778586193    0.32557298034346893    0.4135816191303197    0.4536027808840928    0.45919703111061505    
  0.45360280685430887    0.44389107660757837    0.3981699639216626    0.31183547731320466    0.22122738718509755    
  0.15605590399805117    0.12026355591550915    0.10909307132572518    0.12026354768553636    0.15605590013316184    
  0.22122735925859183    0.3118354793983424    0.3981698411607391    0.44389107522804555    0.45360280685430887    
  0.41358155485952425    0.3981699405875361    0.34840645437059703    0.27367621220072824    0.20125420096218297    
  0.14933820780270968    0.12015627913984925    0.1108573169098503    0.12015630031920853    0.14933812564256682    
  0.2012542509497662    0.27367629230886886    0.3484064653143458    0.3981699283629426    0.41358155485952425    
  0.3255729502516266    0.31183537731624916    0.27367630153561723    0.22308147351518204    0.17586463266981267    
  0.14135533318510055    0.12129403159851354    0.11474346654402869    0.12129401386944166    0.14135536408250862    
  0.17586468455835344    0.22308142924884505    0.2736762074464117    0.3118354776964925    0.3255729502516266    
  0.22877168281574325    0.22122737907781642    0.20125427114782754    0.17586463606682648    0.15223871805562533    
  0.13457469441357492    0.12413671902411806    0.12071639737262445    0.12413672004201731    0.1345746740547555    
  0.15223874145595587    0.17586464799232993    0.20125422360490342    0.22122743379927956    0.22877168281574325    
  0.15870235346572908    0.15605588958638375    0.149338181388501    0.14135536225654421    0.13457466867689635    
  0.1302153487167347    0.12818359201339238    0.12764707755563137    0.1281835631024159    0.13021534856422837    
  0.13457472163160097    0.14135536265373183    0.1493381559425293    0.156055902546173    0.15870235346572908    
  0.12052177658800951    0.12026354498472952    0.12015630222269642    0.1212940110595746    0.12413676510953049    
  0.1281835734389355    0.1317288093102227    0.1330882206502999    0.13172880727652433    0.12818359169455742    
  0.12413675011125772    0.12129403790790463    0.12015628418415884    0.12026355938751102    0.12052177658800951    
  0.1087026102780018    0.10909306461724383    0.1108572909373977    0.11474349882997349    0.12071634658719536    
  0.12764706903418693    0.1330882192094014    0.13505127691691007    0.1330881899414843    0.1276470483530832    
  0.12071636488180096    0.11474349680482014    0.11085731943989556    0.1090930376745947    0.1087026102780018    
  0.12052177382070134    0.12026356501752013    0.12015631439992089    0.12129405244494781    0.12413676078188347    
  0.1281835648981813    0.13172884292674347    0.13308821280554098    0.1317288253748512    0.12818356857828267    
  0.12413677517760584    0.1212940437209383    0.12015627870220583    0.12026356960100351    0.12052177382070134    
  0.15870233491521518    0.15605590131272698    0.14933815059186734    0.1413553555366727    0.13457466757729578    
  0.1302153534512221    0.12818359824007688    0.12764706568490142    0.12818359534605123    0.13021531274535908    
  0.13457472483890476    0.1413553556169575    0.14933814060806982    0.1560559175321157    0.15870233491521518    
  0.22877167999911693    0.22122737211590915    0.20125425222840698    0.1758646759076343    0.15223871634850317    
  0.1345746989033144    0.12413676218701876    0.120716369210994    0.12413675767848795    0.13457470392971727    
  0.15223872146737522    0.17586463864432192    0.20125419929603436    0.22122741618915598    0.22877167999911693    
  0.3255729384836434    0.3118354198077044    0.27367627689092594    0.22308144706994049    0.1758646342820513    
  0.14135534255040896    0.12129399206566566    0.11474346271832363    0.12129400348370442    0.14135533037878245    
  0.17586467659039257    0.22308142493067945    0.2736762554153373    0.31183543928254076    0.3255729384836434    
  0.4135815835100442    0.3981699141111034    0.3484064618309392    0.2736762867663836    0.20125421784444694    
  0.14933815325895725    0.12015632055397393    0.11085734681183469    0.12015627822293737    0.1493381464155695    
  0.20125425375381578    0.2736762830276156    0.34840644315144054    0.3981699218775957    0.4135815835100442    
  0.4536028459231305    0.44389107366262676    0.39816989861816027    0.3118354633132942    0.2212274012338613    
  0.15605587987431974    0.1202635417227606    0.10909307498108395    0.12026356269882557    0.15605587774295865    
  0.2212273755920934    0.31183544186866974    0.39816990357940624    0.4438910521790411    0.4536028459231305    
  0.45919703111061505    0.4536027874008273    0.41358153227492517    0.32557296519383416    0.22877167202063325    
  0.15870237727341163    0.12052177371676927    0.10870260243372906    0.12052174745084675    0.15870236139886665    
  0.2287716778586193    0.32557298034346893    0.4135816191303197    0.4536027808840928    0.45919703111061505    
  0.26134528507492516    0.3023020519650604    0.3721754488583295    0.36027785911117866    0.27293244302690484    
  0.19074526839862146    0.1434014488972531    0.12871283134854858    0.14340143076415224    0.19074525438342474    
  0.27293244678064715    0.3602779110850789    0.3721755450421325    0.30230198013304627    0.26134528507492516    
  0.30230205614568645    0.33510930765774727    0.3821724861544    0.35396841666380124    0.26722048601368104    
  0.18987632819698239    0.1452832691543356    0.13131892526851505    0.14528327430965252    0.18987633248856375    
  0.26722048633211976    0.35396842661378225    0.38217245300219577    0.33510931722443077    0.30230205614568645    
  0.3721754610849358    0.3821725080752796    0.38004681470913126    0.32798961311917246    0.25080956265091897    
  0.18786031246666013    0.1511641298392627    0.13937226135774336    0.1511641000777388    0.18786025221845637    
  0.250809590279451    0.32798967397951906    0.38004680480189124    0.38217250032236205    0.3721754610849358    
  0.3602778441677554    0.35396833148544293    0.3279896632345212    0.28051636319621476    0.2278424198713769    
  0.18625026903444902    0.16120464245739474    0.1528768978387793    0.16120464327997236    0.1862503065396002    
  0.2278424678247262    0.28051630685747514    0.3279896155083539    0.3539683963770549    0.3602778441677554    
  0.2729324341399113    0.26722046610168215    0.2508095735335214    0.227842435249496    0.20452975537693768    
  0.18585367949905607    0.17426212083072046    0.17033158817952695    0.17426208683266578    0.1858537049556181    
  0.20452979315522624    0.22784242755204054    0.2508095644764421    0.26722051627884547    0.2729324341399113    
  0.19074524698974019    0.18987631512010697    0.18786029658566708    0.1862503550718332    0.18585367141862608    
  0.1865376517371907    0.18766752312424703    0.18818239146126217    0.18766746491844552    0.18653763624248712    
  0.18585369995260861    0.1862503177324    0.18786027303075278    0.18987632063366108    0.19074524698974019    
  0.14340146028668269    0.1452832807505815    0.15116411513673586    0.16120464776617113    0.17426216239639922    
  0.18766753160351948    0.19756061855824497    0.20105331809283788    0.1975606331623169    0.18766749713273512    
  0.17426210508431794    0.16120467997759505    0.15116410306541467    0.1452832699188905    0.14340146028668269    
  0.12871280727264586    0.13131888777560163    0.13937224199416334    0.15287692787287033    0.1703315590622461    
  0.1881823947725706    0.20105333948899867    0.20545569421432722    0.20105330233938143    0.1881823552948819    
  0.17033157473622537    0.1528769423593486    0.13937224969617534    0.13131890069876515    0.12871280727264586    
  0.14340146406695098    0.14528327858294182    0.1511641241983553    0.1612046710180041    0.17426211760876684    
  0.18766749977527827    0.19756063118796977    0.20105325679167815    0.19756063015917563    0.18766750113840114    
  0.17426216145819262    0.16120466891075774    0.15116410887463266    0.14528328832233228    0.14340146406695098    
  0.19074520350565574    0.1898763482712117    0.18786026863971586    0.18625030213246394    0.18585366587018345    
  0.18653761988018933    0.18766750309418312    0.18818236465852678    0.18766751140181653    0.1865376029353818    
  0.1858537027080017    0.1862503140108749    0.18786027860807553    0.18987634889018984    0.19074520350565574    
  0.27293243466070977    0.2672204471412568    0.2508095851448978    0.22784245971297362    0.20452976566088718    
  0.18585366485508328    0.1742621391788571    0.170331577437614    0.1742621071511409    0.18585368022132792    
  0.20452975640406465    0.2278424384739752    0.25080954114421483    0.26722051026516214    0.27293243466070977    
  0.3602777956578176    0.3539683589973698    0.3279896332928661    0.28051637152060777    0.22784244608579285    
  0.1862502821500367    0.16120463575460794    0.15287690273690066    0.16120462996576634    0.1862502796253048    
  0.22784246320219798    0.280516314475184    0.3279895706734185    0.35396841230988274    0.3602777956578176    
  0.37217548926129107    0.38217248071460236    0.3800468309584402    0.3279896146764293    0.25080955818980055    
  0.18786026732588376    0.1511641128708328    0.13937228309976402    0.15116411330272458    0.1878602989577982    
  0.250809589379423    0.32798965776700256    0.38004679186201673    0.38217247943788407    0.37217548926129107    
  0.30230206734956594    0.3351092999717571    0.38217245511342657    0.35396843649435855    0.26722052061365387    
  0.18987632106928154    0.14528326915997838    0.1313189145954684    0.14528329359700967    0.18987634125199446    
  0.2672204824419971    0.3539683820647537    0.38217246142270594    0.33510933530671044    0.30230206734956594    
  0.26134528507492516    0.3023020519650604    0.3721754488583295    0.36027785911117866    0.27293244302690484    
  0.19074526839862146    0.1434014488972531    0.12871283134854858    0.14340143076415224    0.19074525438342474    
  0.27293244678064715    0.3602779110850789    0.3721755450421325    0.30230198013304627    0.26134528507492516    
  0.09525895534859406    0.14507158592685301    0.28653108650103143    0.3748068981801451    0.317824571445905    
  0.22738667913253405    0.17105076537773176    0.15346494793729232    0.17105071465660715    0.22738664146508036    
  0.31782459181860173    0.3748069552820594    0.2865311385157238    0.1450715749805069    0.09525895534859406    
  0.14507162150657124    0.19720464711667868    0.3240933843895214    0.3822608072932447    0.3169516137209307    
  0.23026236714249348    0.17670809093852688    0.1598266810743901    0.1767081156154066    0.2302623372969071    
  0.3169516035584729    0.3822607759498151    0.3240933189806275    0.19720464365900134    0.14507162150657124    
  0.28653110362763246    0.3240933825991432    0.3879365501669566    0.38262940002460877    0.3106044809271879    
  0.23792924620361325    0.19331543882525484    0.178816263582801    0.19331540939550024    0.23792919776317428    
  0.3106044945281168    0.38262947845426226    0.38793653744341633    0.3240933425168985    0.28653110362763246    
  0.37480693264953363    0.3822607223707725    0.38262950107606836    0.3496342185879342    0.29653559420357434    
  0.24950136833452935    0.21973293531748841    0.20953502333605897    0.21973290787985952    0.24950139832607096    
  0.2965356430678832    0.3496341708719014    0.382629427560252    0.38226076319129565    0.37480693264953363    
  0.317824554721315    0.31695157376941646    0.3106044794252033    0.29653564162478707    0.2789628241850257    
  0.26298311146940634    0.2516419318575193    0.2473182901191237    0.25164190065133973    0.26298311040508876    
  0.27896288293273774    0.2965356035753304    0.3106044631773142    0.31695163524420183    0.317824554721315    
  0.2273866285260179    0.230262329925901    0.23792924354628464    0.24950144790728124    0.2629831129319995    
  0.2741487841087485    0.2800770984013733    0.2815303366045679    0.280077059013604    0.2741487633355271    
  0.26298312924738637    0.24950140993947367    0.23792918076517436    0.23026236192226723    0.2273866285260179    
  0.1710507494997928    0.1767080999087585    0.1933154341396039    0.21973292179394321    0.25164197954531314    
  0.28007711502312793    0.2966658208204051    0.30123606466316116    0.29666583603955493    0.2800771458140216    
  0.25164195599044165    0.21973295640295912    0.19331543094379444    0.17670806384687374    0.1710507494997928    
  0.15346495248923972    0.15982669000812227    0.17881621556559824    0.20953504090846595    0.24731825668023222    
  0.28153031420715685    0.30123607000951547    0.3064117048762431    0.3012360031600908    0.2815302706594718    
  0.2473182846213897    0.20953504720633834    0.1788162375347611    0.15982666054485914    0.15346495248923972    
  0.1710507519224978    0.1767080903967919    0.19331546238724465    0.21973296822504126    0.251641946867991    
  0.2800771050822388    0.296665848109006    0.3012359964554819    0.29666583317636874    0.28007708943967213    
  0.2516419675021126    0.21973295857452738    0.19331541271930178    0.17670812306855974    0.1710507519224978    
  0.22738660843661707    0.23026236460914273    0.23792919102102122    0.24950142085931862    0.262983075041634    
  0.27414878022920164    0.2800770946513767    0.281530285892756    0.2800771192669368    0.2741487593737635    
  0.2629831575225293    0.24950143757165352    0.2379292107955497    0.23026238374605257    0.22738660843661707    
  0.3178245968777966    0.31695158592683165    0.3106045157269498    0.2965357011062288    0.27896284638234503    
  0.26298308788906455    0.25164197116900167    0.24731824119345408    0.2516419496097632    0.26298314155312597    
  0.27896286506723916    0.2965356499114065    0.3106044431009604    0.31695159967922504    0.3178245968777966    
  0.37480691570656094    0.3822607164177825    0.3826294521926883    0.3496341890777675    0.29653560781112887    
  0.24950140005341878    0.219732890226075    0.20953500736739497    0.2197329022313959    0.24950140527716788    
  0.29653565865806636    0.3496341268922924    0.3826294229800607    0.38226077302223477    0.37480691570656094    
  0.2865311004840517    0.32409333515552247    0.38793655297040586    0.3826294474960577    0.31060444447181085    
  0.23792924694314044    0.19331543013005872    0.17881628155246018    0.19331542164222937    0.23792921367727562    
  0.31060450528952593    0.3826294666582276    0.3879365067580936    0.32409334827064906    0.2865311004840517    
  0.14507161214777511    0.19720464058393236    0.3240933123470602    0.38226079517710326    0.3169516443576473    
  0.2302623250505132    0.17670806870447137    0.15982668645289946    0.17670811050033358    0.23026233712773583    
  0.31695159041103765    0.38226075037458146    0.3240933594735227    0.1972046341224438    0.14507161214777511    
  0.09525895534859406    0.14507158592685301    0.28653108650103143    0.3748068981801451    0.317824571445905    
  0.22738667913253405    0.17105076537773176    0.15346494793729232    0.17105071465660715    0.22738664146508036    
  0.31782459181860173    0.3748069552820594    0.2865311385157238    0.1450715749805069    0.09525895534859406    
  0.05155483473013166    0.09490342938930686    0.24954271884634485    0.38677621042588795    0.35178285908750945    
  0.2583344307517817    0.19667613088856734    0.17717082766423348    0.1966761154660055    0.2583343775573823    
  0.3517828814194844    0.38677625608900307    0.24954274952542083    0.09490340401552295    0.05155483473013166    
  0.09490343324380639    0.14685521032657445    0.29905031411395355    0.4048148824143563    0.35703147641981536    
  0.26642197231838455    0.20735984145304134    0.1884699579024558    0.20735984374080121    0.2664219640622559    
  0.3570314947182498    0.4048148651387655    0.2990502823219939    0.14685520104409702    0.09490343324380639    
  0.24954270742662152    0.2990503453063323    0.3994558127379984    0.42844871085966296    0.36518227742484805    
  0.28847487077565725    0.23899409284662926    0.2225706028238564    0.23899408720709556    0.28847485558357466    
  0.36518230214004066    0.42844875063483406    0.3994558138790754    0.2990503129632661    0.24954270742662152    
  0.38677620149135034    0.40481477965010654    0.4284488175714114    0.4136494689292672    0.3674004579586069    
  0.3207483548139262    0.28897048577298035    0.2774860055316558    0.28897046712606106    0.3207483966779312    
  0.3674005414455354    0.4136493935553625    0.42844875007197936    0.4048148296699621    0.38677620149135034    
  0.3517828797038369    0.3570314572763745    0.36518232604855777    0.367400487558325    0.363533766540293    
  0.35511921052072276    0.34434276830103394    0.33878462971872536    0.34434270444414394    0.3551191941756313    
  0.3635337857459801    0.36740047344606686    0.36518231676794694    0.35703148929334083    0.3517828797038369    
  0.2583344044948387    0.26642197279241653    0.28847489771248264    0.32074844520543544    0.3551192139675731    
  0.37603892092219954    0.3769170051819085    0.3729749367308255    0.3769169871445297    0.3760389565449107    
  0.35511922196100754    0.3207484010606251    0.28847481973194045    0.2664220130614752    0.2583344044948387    
  0.19667614946316958    0.20735983966885446    0.23899410768608562    0.28897047906716056    0.3443428397197476    
  0.3769170331471388    0.37377614790602426    0.36478792523908704    0.3737761749423841    0.3769170861623378    
  0.344342827734662    0.2889704931571518    0.2389941112086506    0.2073598520566077    0.19667614946316958    
  0.17717081995341735    0.18846992398109602    0.22257053486797576    0.2774860264548726    0.33878457577691135    
  0.37297490415276635    0.36478800068683026    0.35223549468708154    0.36478788303391796    0.372974876362161    
  0.33878459512350967    0.2774860405437324    0.22257057382877637    0.18846993484587882    0.17717081995341735    
  0.1966761433043064    0.20735987003441728    0.2389941329844665    0.2889704928120573    0.3443427916201329    