#     DFTpy    
  CRYSTAL 
    
  PRIMVEC    
  7.377310344827585    0.0    0.0    
  0.0    7.377310344827585    0.0    
  0.0    0.0    7.377310344827585    
  PRIMCOORD    
  8    1    
  Si    0.0    0.0    0.0    
  Si    1.8443275862068962    1.8443275862068962    1.8443275862068962    
  Si    0.0    3.6886551724137924    3.6886551724137924    
  Si    1.8443275862068962    5.5329827586206894    5.5329827586206894    
  Si    3.6886551724137924    0.0    3.6886551724137924    
  Si    5.5329827586206894    1.8443275862068962    5.5329827586206894    
  Si    3.6886551724137924    3.6886551724137924    0.0    
  Si    5.5329827586206894    5.5329827586206894    1.8443275862068962    
  BEGIN_BLOCK_DATAGRID_3D    
  3d_datagrid_density    
  BEGIN_DATAGRID_3D#0    
  33    33    33    
  0.0    0.0    0.0    
  7.377310344827585    0.0    0.0    
  0.0    7.377310344827585    0.0    
  0.0    0.0    7.377310344827585    
  0.07637190444719413    0.13051428903516415    0.30389824861500714    0.41900492066924777    0.3250884991074456    
  0.18629805377265274    0.09842780954189223    0.05391900073185588    0.03260619503457877    0.02224803183759882    
  0.016835547770290994    0.01371762332815898    0.011722639384256274    0.010358989382628313    0.009438798173803296    
  0.008904927181537126    0.00873020297635294    0.008904927718256222    0.009438803901138926    0.01035898419168339    
  0.01172264471904347    0.013717617841684418    0.016835550402947458    0.022248034522795182    0.032606198163965885    
  0.05391898970740738    0.09842782479043563    0.18629811789588785    0.32508845686682025    0.4190049552318466    
  0.3038981642103314    0.13051430550659138    0.07637190444719413    0.13051431923386939    0.19078335628196877    
  0.3483266157260349    0.41601640536441853    0.3074413382027969    0.17578977006035015    0.09409084648026417    
  0.05246179653471321    0.0322888202083582    0.022341599471475185    0.01705729528035033    0.01396503625704047    
  0.011955714254319724    0.010572787542532318    0.009634467003190077    0.00908593107605609    0.008904940202293899    
  0.009085929135038757    0.00963445571064459    0.01057280131212817    0.011955696100641797    0.01396506031094895    
  0.017057288981682208    0.022341611967963824    0.03228881632412025    0.052461777399480554    0.09409086758405398    
  0.17578971953002978    0.3074413812950591    0.41601630698602543    0.34832661411106364    0.19078336743350885    
  0.13051431923386939    0.3038981886150248    0.34832660030253404    0.41652779226589715    0.3802534810907207    
  0.2576107659281612    0.14856440848909616    0.08294619956986893    0.04871526562113623    0.03153075259524863    
  0.022686965350867904    0.017763768855551674    0.014737721313074945    0.012679964224824331    0.011224915315051542    
  0.010226429814483047    0.009634466777234198    0.009438797532254305    0.009634461564575246    0.010226434869792508    
  0.011224903254364068    0.012679968843559531    0.014737714188479844    0.017763783119418237    0.022686953041295758    
  0.03153075436587369    0.048715276654609445    0.0829461884192155    0.1485644654418068    0.25761069763841105    
  0.38025352491189984    0.4165277035261974    0.34832665411368047    0.3038981886150248    0.4190049721133242    
  0.41601623673371696    0.38025345091194357    0.2920519402775905    0.19070102360752678    0.11476111175413163    
  0.06903164874743897    0.04406597402634957    0.030791807626811975    0.023453733404872106    0.01902627135049463    
  0.016069632120977614    0.013912362331979856    0.012327166059965299    0.011224922122953084    0.010572781514822506    
  0.010359001491378483    0.010572790264890298    0.0112249121104783    0.012327170202951635    0.013912345761731624    
  0.016069650699917268    0.019026268030623582    0.023453737429813895    0.030791803328388333    0.04406596310626191    
  0.06903165147162683    0.11476107145435689    0.19070106855338    0.29205181835821725    0.3802535518318173    
  0.4160163147874919    0.4190049721133242    0.3250884086381776    0.30744139398002496    0.25761071761436555    
  0.1907010133238625    0.1288331229654227    0.08407610268141255    0.05609243123079718    0.03984160435162525    
  0.030494603100093554    0.024759345028325386    0.020864471252234975    0.017953157533351166    0.015662733794390444    
  0.013912358045859469    0.012679946205706654    0.011955711395811135    0.011722625547999122    0.011955716614788588    
  0.012679953868560018    0.01391234506527192    0.01566274034425544    0.017953155160758398    0.020864463031101038    
  0.024759338075040677    0.030494602801512012    0.03984160540760891    0.05609242600413278    0.08407613091413732    
  0.12883306238125536    0.190701044348227    0.25761065595109683    0.3074414149783558    0.3250884086381776    
  0.18629819154567503    0.1757897129634055    0.14856445987165173    0.1147610814072631    0.0840761154911745    
  0.06121317585820991    0.046154790255637686    0.0367799679487059    0.030791805567257937    0.02656069260712676    
  0.023204909064226474    0.020352656673276744    0.01795316040867063    0.01606962745989247    0.014737730820236697    
  0.013965032595425236    0.013717647461406959    0.013965033310101424    0.014737725995376367    0.016069626523039095    
  0.01795314716440287    0.020352678206680696    0.02320490495504136    0.026560700931446933    0.03079179713310035    
  0.03677996841910377    0.046154789652544576    0.061213169059316785    0.08407613696748777    0.11476105048888562    
  0.14856449003820735    0.17578970977658365    0.18629819154567503    0.09842779002617949    0.09409090671498822    
  0.08294618145837022    0.0690316604890165    0.05609244146089578    0.04615479584475956    0.03937994707032986    
  0.03485948055566907    0.03153076639350037    0.028655190932507603    0.025876075428706884    0.023204919651528648    
  0.020864468158165075    0.019026287817191373    0.01776376626478555    0.017057314996551887    0.016835538457919276    
  0.017057313930974618    0.01776377633312114    0.019026272629580954    0.02086447429273899    0.023204918178522323    
  0.025876088650167543    0.028655187163581404    0.031530768460659525    0.03485948782468237    0.039379923915357114    
  0.046154816836770925    0.05609242156507995    0.06903167983682665    0.08294616475548088    0.0940909259566084    
  0.09842779002617949    0.05391902995541074    0.05246176864817849    0.04871528423788787    0.04406597008598458    
  0.0398415968091127    0.03677997405476105    0.03485947515111382    0.0335604078348578    0.0322888139713838    
  0.03066847649346461    0.028655200042228768    0.02656069197980252    0.02475935782308339    0.023453730499691978    
  0.022686984048419276    0.022341581281524518    0.022248055120240463    0.022341596623268983    0.02268697340410305    
  0.02345373854704699    0.024759334650458115    0.026560705537005798    0.02865519155859996    0.03066849133871064    
  0.03228880938529089    0.033560394273417636    0.03485948676214541    0.03677996151676732    0.03984162047803757    
  0.04406595510886869    0.048715295756704656    0.05246174870424329    0.05391902995541074    0.032606163266397016    
  0.032288838338668836    0.03153074407276259    0.030791795355772002    0.030494615070181374    0.030791779673296764    
  0.03153076523197807    0.032288803734208955    0.032606202637407766    0.03228880376577964    0.03153075837798757    
  0.0307917987912406    0.03049459957375535    0.030791810539011973    0.03153071966885808    0.03228883196790256    
  0.03260616486448506    0.032288840613900985    0.03153074781027161    0.030791794798718453    0.030494609063553235    
  0.030791787039568252    0.03153075882705564    0.032288804870625194    0.032606199862373    0.03228880810581975    
  0.0315307523672332    0.030791797932153808    0.030494600586151856    0.030791808608484676    0.03153072146355463    
  0.03228883734741405    0.032606163266397016    0.022248046249796375    0.022341602067578972    0.022686964746345045    
  0.023453746571747872    0.02475933049920887    0.026560718176016445    0.028655174254771137    0.030668499180964766    
  0.032288801172606886    0.03356040146389757    0.034859481064222125    0.036779968213158314    0.039841613723448174    
  0.04406595718254928    0.04871528529716553    0.05246178381335892    0.053919022800840544    0.05246177924626755    
  0.04871527666049954    0.044065984876912344    0.03984158624288909    0.03677998794839145    0.034859461390973984    
  0.03356041365024755    0.03228879745364887    0.030668492994533576    0.028655184033947307    0.026560704597956536    
  0.024759353327666624    0.023453727101898143    0.02268697385472691    0.02234160329127208    0.022248046249796375    
  0.016835551059713343    0.017057302751237093    0.017763787074395385    0.01902625193620112    0.02086449411346122    
  0.02320489473781093    0.025876112559038912    0.028655171801225426    0.03153077806328345    0.034859460316394794    
  0.03937995604017201    0.04615479476017057    0.056092446119105736    0.06903165330824851    0.08294617579446587    
  0.09409088547268753    0.09842780029544103    0.09409088093519333    0.08294620818573316    0.06903162447595655    
  0.056092467631628805    0.046154766414452514    0.03937996538808496    0.03485946526583625    0.03153077827640098    
  0.028655179864675053    0.025876095213071115    0.023204912319971432    0.02086448588696673    0.01902626752304173    
  0.017763777125817438    0.017057302567982317    0.016835551059713343    0.013717620011833244    0.013965052130764774    
  0.014737707912923654    0.016069654712706154    0.017953126070130696    0.02035270233919501    0.02320488565427287    
  0.02656072018110307    0.030791773099336065    0.03677998066786119    0.046154772235114404    0.06121321434608252    
  0.08407608635617038    0.11476109117948433    0.14856440972780724    0.17578978580787205    0.1862980957264058    
  0.17578976825420944    0.14856441442257234    0.11476114228919215    0.08407606177514505    0.06121323696298551    
  0.046154754675500655    0.036779989451534455    0.030791771463568793    0.026560717539247714    0.023204886628308576    
  0.020352684816333805    0.01795314523601422    0.016069640025735177    0.0147377112259563    0.01396505678087828    
  0.013717620011833244    0.01172264618760904    0.011955706905739156    0.012679977409109634    0.013912319590476806    
  0.015662772712996022    0.017953129572211072    0.02086448957201802    0.024759311736419706    0.030494630590007517    
  0.03984156664542765    0.05609247514414645    0.08407608628937115    0.12883308958273293    0.1907009812841975    
  0.25761073072769824    0.30744131367124056    0.32508845189361063    0.30744133078880065    0.2576108142572329    
  0.1907009369953073    0.12883317481400117    0.08407605578288986    0.056092460374060064    0.03984156996122106    
  0.03049463240759581    0.024759321815619042    0.020864487308568217    0.017953137259496366    0.015662748110741042    
  0.013912337076836935    0.012679970026158149    0.011955696006322458    0.01172264618760904    0.010358983745335048    
  0.010572801191514204    0.011224888812723929    0.012327181636042872    0.013912333852050708    0.016069668694321467    
  0.019026250387022957    0.023453763654557012    0.030791768200609228    0.0440659815731392    0.06903161963133768    
  0.11476112622988197    0.19070101545631366    0.2920519663422898    0.3802534830776434    0.416016370173932    
  0.41900488180290346    0.4160163382422908    0.3802534331187516    0.2920519983327606    0.19070098294840973    
  0.11476113878830936    0.06903160568182032    0.04406600369018917    0.030791775361247685    0.023453750879345654    
  0.01902624809715151    0.016069650457431688    0.013912347486941637    0.012327178798729138    0.011224907038766184    
  0.01057281008918544    0.010358983745335048    0.009438817010717939    0.009634448061721057    0.010226453373305888    
  0.011224889521784083    0.012679988773495033    0.014737697822176968    0.01776379755943863    0.022686942415245263    
  0.031530773903666556    0.048715243037531615    0.08294623339193315    0.14856442958683508    0.2576107670327234    
  0.38025346974561347    0.41652779531681844    0.34832658003972633    0.3038982103516997    0.348326525651838    
  0.41652788069817637    0.380253434536744    0.2576107936638755    0.14856436338803417    0.08294622971476116    
  0.04871524933371344    0.03153076805006732    0.022686948798813052    0.017763782689227896    0.014737712770871486    
  0.012679979064682028    0.011224902120229403    0.010226449642300536    0.00963445142143791    0.009438817010717939    
  0.008904931471067332    0.009085935243254814    0.009634451848146557    0.01057280930623972    0.011955692549031356    
  0.013965065047357231    0.0170572881671061    0.02234162729551355    0.032288812060930684    0.05246178541138978    
  0.09409086650567147    0.1757897674100241    0.3074413624260578    0.41601630157219865    0.3483265708270795    
  0.19078337442590096    0.13051429987380192    0.19078337843921658    0.348326579515061    0.4160164365142814    
  0.30744133603594176    0.17578979882797116    0.09409084372660127    0.05246180970893135    0.032288815919480435    
  0.022341611699297624    0.01705729125457085    0.013965049964741722    0.01195570722498699    0.01057279818009583    
  0.009634459824052153    0.009085937236655687    0.008904931471067332    0.00873020297635294    0.008904927718256222    
  0.009438803901138926    0.01035898419168339    0.01172264471904347    0.013717617841684418    0.016835550402947458    
  0.022248034522795182    0.032606198163965885    0.05391898970740738    0.09842782479043563    0.18629811789588785    
  0.32508845686682025    0.4190049552318466    0.3038981642103314    0.13051430550659138    0.07637190444719413    
  0.13051428903516415    0.30389824861500714    0.41900492066924777    0.3250884991074456    0.18629805377265274    
  0.09842780954189223    0.05391900073185588    0.03260619503457877    0.02224803183759882    0.016835547770290994    
  0.01371762332815898    0.011722639384256274    0.010358989382628313    0.009438798173803296    0.008904927181537126    
  0.00873020297635294    0.008904940202293899    0.009085929135038757    0.00963445571064459    0.01057280131212817    
  0.011955696100641797    0.01396506031094895    0.017057288981682208    0.022341611967963824    0.03228881632412025    
  0.052461777399480554    0.09409086758405398    0.17578971953002978    0.3074413812950591    0.41601630698602543    
  0.34832661411106364    0.19078336743350885    0.13051431923386939    0.19078335628196877    0.3483266157260349    
  0.41601640536441853    0.3074413382027969    0.17578977006035015    0.09409084648026417    0.05246179653471321    
  0.0322888202083582    0.022341599471475185    0.01705729528035033    0.01396503625704047    0.011955714254319724    
  0.010572787542532318    0.009634467003190077    0.00908593107605609    0.008904940202293899    0.009438797532254305    
  0.009634461564575246    0.010226434869792508    0.011224903254364068    0.012679968843559531    0.014737714188479844    
  0.017763783119418237    0.022686953041295758    0.03153075436587369    0.048715276654609445    0.0829461884192155    
  0.1485644654418068    0.25761069763841105    0.38025352491189984    0.4165277035261974    0.34832665411368047    
  0.3038981886150248    0.34832660030253404    0.41652779226589715    0.3802534810907207    0.2576107659281612    
  0.14856440848909616    0.08294619956986893    0.04871526562113623    0.03153075259524863    0.022686965350867904    
  0.017763768855551674    0.014737721313074945    0.012679964224824331    0.011224915315051542    0.010226429814483047    
  0.009634466777234198    0.009438797532254305    0.010359001491378483    0.010572790264890298    0.0112249121104783    
  0.012327170202951635    0.013912345761731624    0.016069650699917268    0.019026268030623582    0.023453737429813895    
  0.030791803328388333    0.04406596310626191    0.06903165147162683    0.11476107145435689    0.19070106855338    
  0.29205181835821725    0.3802535518318173    0.4160163147874919    0.4190049721133242    0.41601623673371696    
  0.38025345091194357    0.2920519402775905    0.19070102360752678    0.11476111175413163    0.06903164874743897    
  0.04406597402634957    0.030791807626811975    0.023453733404872106    0.01902627135049463    0.016069632120977614    
  0.013912362331979856    0.012327166059965299    0.011224922122953084    0.010572781514822506    0.010359001491378483    
  0.011722625547999122    0.011955716614788588    0.012679953868560018    0.01391234506527192    0.01566274034425544    
  0.017953155160758398    0.020864463031101038    0.024759338075040677    0.030494602801512012    0.03984160540760891    
  0.05609242600413278    0.08407613091413732    0.12883306238125536    0.190701044348227    0.25761065595109683    
  0.3074414149783558    0.3250884086381776    0.30744139398002496    0.25761071761436555    0.1907010133238625    
  0.1288331229654227    0.08407610268141255    0.05609243123079718    0.03984160435162525    0.030494603100093554    
  0.024759345028325386    0.020864471252234975    0.017953157533351166    0.015662733794390444    0.013912358045859469    
  0.012679946205706654    0.011955711395811135    0.011722625547999122    0.013717647461406959    0.013965033310101424    
  0.014737725995376367    0.016069626523039095    0.01795314716440287    0.020352678206680696    0.02320490495504136    
  0.026560700931446933    0.03079179713310035    0.03677996841910377    0.046154789652544576    0.061213169059316785    
  0.08407613696748777    0.11476105048888562    0.14856449003820735    0.17578970977658365    0.18629819154567503    
  0.1757897129634055    0.14856445987165173    0.1147610814072631    0.0840761154911745    0.06121317585820991    
  0.046154790255637686    0.0367799679487059    0.030791805567257937    0.02656069260712676    0.023204909064226474    
  0.020352656673276744    0.01795316040867063    0.01606962745989247    0.014737730820236697    0.013965032595425236    
  0.013717647461406959    0.016835538457919276    0.017057313930974618    0.01776377633312114    0.019026272629580954    
  0.02086447429273899    0.023204918178522323    0.025876088650167543    0.028655187163581404    0.031530768460659525    
  0.03485948782468237    0.039379923915357114    0.046154816836770925    0.05609242156507995    0.06903167983682665    
  0.08294616475548088    0.0940909259566084    0.09842779002617949    0.09409090671498822    0.08294618145837022    
  0.0690316604890165    0.05609244146089578    0.04615479584475956    0.03937994707032986    0.03485948055566907    
  0.03153076639350037    0.028655190932507603    0.025876075428706884    0.023204919651528648    0.020864468158165075    
  0.019026287817191373    0.01776376626478555    0.017057314996551887    0.016835538457919276    0.022248055120240463    
  0.022341596623268983    0.02268697340410305    0.02345373854704699    0.024759334650458115    0.026560705537005798    
  0.02865519155859996    0.03066849133871064    0.03228880938529089    0.033560394273417636    0.03485948676214541    
  0.03677996151676732    0.03984162047803757    0.04406595510886869    0.048715295756704656    0.05246174870424329    
  0.05391902995541074    0.05246176864817849    0.04871528423788787    0.04406597008598458    0.0398415968091127    
  0.03677997405476105    0.03485947515111382    0.0335604078348578    0.0322888139713838    0.03066847649346461    
  0.028655200042228768    0.02656069197980252    0.02475935782308339    0.023453730499691978    0.022686984048419276    
  0.022341581281524518    0.022248055120240463    0.03260616486448506    0.032288840613900985    0.03153074781027161    
  0.030791794798718453    0.030494609063553235    0.030791787039568252    0.03153075882705564    0.032288804870625194    
  0.032606199862373    0.03228880810581975    0.0315307523672332    0.030791797932153808    0.030494600586151856    
  0.030791808608484676    0.03153072146355463    0.03228883734741405    0.032606163266397016    0.032288838338668836    
  0.03153074407276259    0.030791795355772002    0.030494615070181374    0.030791779673296764    0.03153076523197807    
  0.032288803734208955    0.032606202637407766    0.03228880376577964    0.03153075837798757    0.0307917987912406    
  0.03049459957375535    0.030791810539011973    0.03153071966885808    0.03228883196790256    0.03260616486448506    
  0.053919022800840544    0.05246177924626755    0.04871527666049954    0.044065984876912344    0.03984158624288909    
  0.03677998794839145    0.034859461390973984    0.03356041365024755    0.03228879745364887    0.030668492994533576    
  0.028655184033947307    0.026560704597956536    0.024759353327666624    0.023453727101898143    0.02268697385472691    
  0.02234160329127208    0.022248046249796375    0.022341602067578972    0.022686964746345045    0.023453746571747872    
  0.02475933049920887    0.026560718176016445    0.028655174254771137    0.030668499180964766    0.032288801172606886    
  0.03356040146389757    0.034859481064222125    0.036779968213158314    0.039841613723448174    0.04406595718254928    
  0.04871528529716553    0.05246178381335892    0.053919022800840544    0.09842780029544103    0.09409088093519333    
  0.08294620818573316    0.06903162447595655    0.056092467631628805    0.046154766414452514    0.03937996538808496    
  0.03485946526583625    0.03153077827640098    0.028655179864675053    0.025876095213071115    0.023204912319971432    
  0.02086448588696673    0.01902626752304173    0.017763777125817438    0.017057302567982317    0.016835551059713343    
  0.017057302751237093    0.017763787074395385    0.01902625193620112    0.02086449411346122    0.02320489473781093    
  0.025876112559038912    0.028655171801225426    0.03153077806328345    0.034859460316394794    0.03937995604017201    
  0.04615479476017057    0.056092446119105736    0.06903165330824851    0.08294617579446587    0.09409088547268753    
  0.09842780029544103    0.1862980957264058    0.17578976825420944    0.14856441442257234    0.11476114228919215    
  0.08407606177514505    0.06121323696298551    0.046154754675500655    0.036779989451534455    0.030791771463568793    
  0.026560717539247714    0.023204886628308576    0.020352684816333805    0.01795314523601422    0.016069640025735177    
  0.0147377112259563    0.01396505678087828    0.013717620011833244    0.013965052130764774    0.014737707912923654    
  0.016069654712706154    0.017953126070130696    0.02035270233919501    0.02320488565427287    0.02656072018110307    
  0.030791773099336065    0.03677998066786119    0.046154772235114404    0.06121321434608252    0.08407608635617038    
  0.11476109117948433    0.14856440972780724    0.17578978580787205    0.1862980957264058    0.32508845189361063    
  0.30744133078880065    0.2576108142572329    0.1907009369953073    0.12883317481400117    0.08407605578288986    
  0.056092460374060064    0.03984156996122106    0.03049463240759581    0.024759321815619042    0.020864487308568217    
  0.017953137259496366    0.015662748110741042    0.013912337076836935    0.012679970026158149    0.011955696006322458    
  0.01172264618760904    0.011955706905739156    0.012679977409109634    0.013912319590476806    0.015662772712996022    
  0.017953129572211072    0.02086448957201802    0.024759311736419706    0.030494630590007517    0.03984156664542765    
  0.05609247514414645    0.08407608628937115    0.12883308958273293    0.1907009812841975    0.25761073072769824    
  0.30744131367124056    0.32508845189361063    0.41900488180290346    0.4160163382422908    0.3802534331187516    
  0.2920519983327606    0.19070098294840973    0.11476113878830936    0.06903160568182032    0.04406600369018917    
  0.030791775361247685    0.023453750879345654    0.01902624809715151    0.016069650457431688    0.013912347486941637    
  0.012327178798729138    0.011224907038766184    0.01057281008918544    0.010358983745335048    0.010572801191514204    
  0.011224888812723929    0.012327181636042872    0.013912333852050708    0.016069668694321467    0.019026250387022957    
  0.023453763654557012    0.030791768200609228    0.0440659815731392    0.06903161963133768    0.11476112622988197    
  0.19070101545631366    0.2920519663422898    0.3802534830776434    0.416016370173932    0.41900488180290346    
  0.3038982103516997    0.348326525651838    0.41652788069817637    0.380253434536744    0.2576107936638755    
  0.14856436338803417    0.08294622971476116    0.04871524933371344    0.03153076805006732    0.022686948798813052    
  0.017763782689227896    0.014737712770871486    0.012679979064682028    0.011224902120229403    0.010226449642300536    
  0.00963445142143791    0.009438817010717939    0.009634448061721057    0.010226453373305888    0.011224889521784083    
  0.012679988773495033    0.014737697822176968    0.01776379755943863    0.022686942415245263    0.031530773903666556    
  0.048715243037531615    0.08294623339193315    0.14856442958683508    0.2576107670327234    0.38025346974561347    
  0.41652779531681844    0.34832658003972633    0.3038982103516997    0.13051429987380192    0.19078337843921658    
  0.348326579515061    0.4160164365142814    0.30744133603594176    0.17578979882797116    0.09409084372660127    
  0.05246180970893135    0.032288815919480435    0.022341611699297624    0.01705729125457085    0.013965049964741722    
  0.01195570722498699    0.01057279818009583    0.009634459824052153    0.009085937236655687    0.008904931471067332    
  0.009085935243254814    0.009634451848146557    0.01057280930623972    0.011955692549031356    0.013965065047357231    
  0.0170572881671061    0.02234162729551355    0.032288812060930684    0.05246178541138978    0.09409086650567147    
  0.1757897674100241    0.3074413624260578    0.41601630157219865    0.3483265708270795    0.19078337442590096    
  0.13051429987380192    0.07637190444719413    0.13051428903516415    0.30389824861500714    0.41900492066924777    
  0.3250884991074456    0.18629805377265274    0.09842780954189223    0.05391900073185588    0.03260619503457877    
  0.02224803183759882    0.016835547770290994    0.01371762332815898    0.011722639384256274    0.010358989382628313    
  0.009438798173803296    0.008904927181537126    0.00873020297635294    0.008904927718256222    0.009438803901138926    
  0.01035898419168339    0.01172264471904347    0.013717617841684418    0.016835550402947458    0.022248034522795182    
  0.032606198163965885    0.05391898970740738    0.09842782479043563    0.18629811789588785    0.32508845686682025    
  0.4190049552318466    0.3038981642103314    0.13051430550659138    0.07637190444719413    0.13051431449342593    
  0.19078337003705154    0.34832656958395025    0.41601632807118505    0.30744133753063513    0.1757897748441993    
  0.09409086013257466    0.05246180038552807    0.03228882366004013    0.02234160729385751    0.01705729780000838    
  0.013965044522050375    0.011955714854938371    0.010572793874675484    0.009634459983585003    0.009085924503500504    
  0.008904936655274117    0.00908593490191624    0.009634458279335113    0.010572801380368955    0.011955698549599235    
  0.013965062100184581    0.01705728644511709    0.02234161657900179    0.03228882497501736    0.0524617831745325    
  0.09409088494162607    0.1757897531821828    0.30744141872175956    0.41601633440136665    0.3483266170012767    
  0.1907833492318038    0.13051431449342593    0.19078338072345924    0.2506573002090255    0.3824533814029815    
  0.4093388664686257    0.2925772141681978    0.16843089403137435    0.0922665899798779    0.052984667414121514    
  0.03356039936155766    0.023719978893514446    0.018294184698806486    0.01497835802517393    0.012737433670402103    
  0.011145448300309392    0.010040510316916714    0.009365311718589326    0.009085936220863554    0.00917909558744959    
  0.009634963297532037    0.010460383545290112    0.011706881400127806    0.013548149996681315    0.016411820574428373    
  0.021349644914604716    0.030668483601925582    0.0495041696410686    0.08821399680635468    0.1640081023833157    
  0.2882153163820232    0.40609938531416767    0.38100041066413154    0.25025372957449915    0.19078338072345924    
  0.34832668372669073    0.3824532778727815    0.4222501079949854    0.3673751801613473    0.24757810325383178    
  0.14588975164293758    0.08447395045350581    0.0517826039580896    0.03485950437891667    0.025754996286644537    
  0.020346006569453734    0.016765240979546236    0.014174526042778674    0.012259516413593314    0.01089907085267333    
  0.010040509315602545    0.009634472193570566    0.009634964671245996    0.010017769283096547    0.010768342706217952    
  0.011919346144597422    0.01361391524370758    0.016209155220243326    0.020593451304142116    0.028655213486000974    
  0.04448034683093153    0.0761213964934534    0.13685751663631548    0.238768544760205    0.360447814411061    
  0.41838193358552495    0.3810004664271608    0.34832668372669073    0.4160162541689013    0.40933880076003076    
  0.36737514741711347    0.2813163925965084    0.1873597300877827    0.1172044210401309    0.07428179769695059    
  0.05017913996154047    0.03677996868833472    0.028800869248080323    0.023458887908714796    0.019491866604075533    
  0.01637764746646103    0.013983855716252528    0.012259509920474344    0.011145445136944656    0.010572781353265644    
  0.010460398318591087    0.01076834273141357    0.01146124059508338    0.012542600664765412    0.014103223102280951    
  0.016403615548198372    0.020101657234043318    0.026560697183046343    0.03860013217458886    0.06155528995870636    