#     DFTpy    
  CRYSTAL 
    
  PRIMVEC    
  3.639827586206896    0.0    0.0    
  0.0    3.639827586206896    0.0    
  0.0    0.0    3.639827586206896    
  PRIMCOORD    
  4    1    
  Si    0.0    0.0    0.0    
  Si    0.0    1.819913793103448    1.819913793103448    
  Si    1.819913793103448    0.0    1.819913793103448    
  Si    1.819913793103448    1.819913793103448    0.0    
  BEGIN_BLOCK_DATAGRID_3D    
  3d_datagrid_density    
  BEGIN_DATAGRID_3D#0    
  17    17    17    
  0.0    0.0    0.0    
  3.639827586206896    0.0    0.0    
  0.0    3.639827586206896    0.0    
  0.0    0.0    3.639827586206896    
  0.054634904671586784    0.09676020881736709    0.2477813011987961    0.39712080996055177    0.38071462668280776    
  0.2910060921219019    0.22321663303571043    0.18783292792481418    0.17691227586580008    0.18783289644357914    
  0.2232166539337374    0.29100609672772904    0.3807146020174293    0.3971208049072875    0.24778127937833674    
  0.09676026419906714    0.054634904671586784    0.09676023497151226    0.14639842823270408    0.2941665265721554    
  0.41020387709146433    0.37842142192126    0.29307761801303306    0.23063321052425173    0.19796316707618303    
  0.1878328597395533    0.19796312343219474    0.23063318344946468    0.29307766637503674    0.37842146977491864    
  0.4102038162930953    0.2941664757219961    0.14639843829298296    0.09676023497151226    0.24778128567701424    
  0.2941664040320404    0.3903118029123734    0.42404438797800253    0.3704765322145731    0.3013774639133779    
  0.25469635042995803    0.23063324542371513    0.2232166468074548    0.23063320438753646    0.25469637448852056    
  0.30137748435543    0.3704765432475106    0.42404426505088677    0.3903117867207001    0.29416653207823185    
  0.24778128567701424    0.3971207303976695    0.41020389629510323    0.4240443403370466    0.4030591189623514    
  0.35873437659370877    0.3216400021522303    0.30137746117409536    0.2930777209557071    0.29100600749070116    
  0.29307765806767744    0.30137742805186746    0.32164001340144843    0.3587344382766576    0.40305909480733376    
  0.4240442747578272    0.41020389027268794    0.3971207303976695    0.38071464479406175    0.37842141654893563    
  0.3704766025768686    0.35873448336232816    0.3526440389490996    0.35873445057711445    0.3704765326789231    
  0.378421505048292    0.38071458424155386    0.37842141511815125    0.37047656560986275    0.35873447399444286    
  0.3526440014761334    0.3587344465943173    0.3704765675544659    0.3784215201388651    0.38071464479406175    
  0.2910060097419372    0.29307766846732647    0.30137748768601874    0.32163999142852145    0.3587343743483845    
  0.4030590713777191    0.4240443394907479    0.41020391012960583    0.3971207991835536    0.4102038265776531    
  0.4240442620040564    0.4030590905379476    0.35873441340945705    0.3216399872712679    0.30137745649671627    
  0.2930776695185553    0.2910060097419372    0.22321664505439967    0.23063314703830365    0.25469637242805565    
  0.30137750458700224    0.37047654830679183    0.42404432418553123    0.3903117819509155    0.29416656544843245    
  0.2477812948865676    0.29416650453151505    0.3903118183450088    0.42404436330211503    0.37047660829694    
  0.30137747801092335    0.25469635063919593    0.2306332411892571    0.22321664505439967    0.1878328576243242    
  0.19796319074689023    0.23063325156680287    0.293077691023295    0.37842141007180624    0.4102037997596114    
  0.29416651777357367    0.14639845346657204    0.09676021949622869    0.14639840260262454    0.29416652959606027    
  0.4102038166626786    0.3784214857965977    0.29307760680341227    0.23063319337864546    0.19796320302581397    
  0.1878328576243242    0.17691234329187971    0.18783285889739817    0.2232166917048339    0.2910060847228116    
  0.38071458940807373    0.3971207256347539    0.24778128654636977    0.09676022642759813    0.05463489739433663    
  0.09676025354035403    0.24778129244430927    0.3971208631340702    0.3807146241832576    0.2910060235714618    
  0.2232166639573782    0.18783294787579588    0.17691234329187971    0.18783285077252881    0.19796310940517683    
  0.23063321322194338    0.29307768038670357    0.378421408664346    0.4102038400035352    0.29416653891548034    
  0.1463984657581821    0.09676020469488916    0.14639840860258485    0.2941664506203315    0.4102038645632106    
  0.3784214830185427    0.2930776611467823    0.2306331950392257    0.1979631603537405    0.18783285077252881    
  0.22321667213686205    0.23063317129328942    0.25469636905178755    0.30137749996681473    0.37047650945292104    
  0.4240443253126975    0.3903117885889721    0.29416654405218756    0.24778127002130618    0.29416654903613343    
  0.3903117917966832    0.4240443562219575    0.3704764894577973    0.3013774387529405    0.2546962955588802    
  0.23063328799604696    0.22321667213686205    0.2910060072648228    0.293077669312875    0.3013774117660401    
  0.3216400175423726    0.3587344561090102    0.40305913045671793    0.424044277993824    0.41020386543946463    
  0.39712075006305086    0.4102038411283418    0.4240443273763693    0.4030590632552685    0.3587344771566228    
  0.3216399710685927    0.3013774459279597    0.2930777105014285    0.2910060072648228    0.3807146011034844    
  0.3784214407473633    0.37047656860368733    0.35873442771478997    0.35264402164570724    0.358734436289101    
  0.3704765249494335    0.37842146111523023    0.38071460764023346    0.37842143737450934    0.37047657273124807    
  0.3587344931389371    0.35264401055505346    0.35873446746301935    0.37047657461408867    0.3784215017022615    
  0.3807146011034844    0.39712076238360194    0.41020382479231515    0.4240443346123268    0.4030591117552549    
  0.35873442721363513    0.32163997452900855    0.30137741792170675    0.29307772242219393    0.29100605256155065    
  0.29307768222125513    0.3013774567882733    0.3216399748196926    0.3587344096195196    0.4030590407657528    
  0.4240443486606747    0.4102038466649041    0.39712076238360194    0.24778129028877502    0.2941664535543241    
  0.39031181025522893    0.42404433220404975    0.3704765517326593    0.30137745739324856    0.25469633205270725    
  0.2306332690475253    0.2232166231282387    0.2306332190895183    0.2546963589371154    0.3013774764525668    
  0.3704765293197869    0.42404428516341997    0.3903118616265156    0.2941665373082639    0.24778129028877502    
  0.09676022420624221    0.14639842461853433    0.29416652634728085    0.4102038119111548    0.3784214697266426    
  0.2930776181798696    0.230633203518983    0.1979631532791586    0.18783289246400062    0.1979631111410888    
  0.23063321716463564    0.2930776535642569    0.37842154211963136    0.4102038462568443    0.2941665259768416    
  0.1463984380018408    0.09676022420624221    0.054634904671586784    0.09676020881736709    0.2477813011987961    
  0.39712080996055177    0.38071462668280776    0.2910060921219019    0.22321663303571043    0.18783292792481418    
  0.17691227586580008    0.18783289644357914    0.2232166539337374    0.29100609672772904    0.3807146020174293    
  0.3971208049072875    0.24778127937833674    0.09676026419906714    0.054634904671586784    0.09676023222620214    
  0.14639840191946218    0.29416652125882925    0.41020393254764365    0.37842146761261913    0.29307769176416804    
  0.23063322468724606    0.1979631353828575    0.18783284895826824    0.19796314093676123    0.23063323399506985    
  0.293077701410576    0.37842145642329117    0.41020384349404315    0.29416653778814544    0.14639844481716355    
  0.09676023222620214    0.14639841185195906    0.19883958841489666    0.3338447788907978    0.4178049849221463    
  0.37464080564270275    0.2940555076902274    0.23686541355539756    0.2071425052128489    0.1979631013004451    
  0.20714244647017072    0.2368654046833598    0.29405552894507087    0.3746408213383658    0.4178049395959434    
  0.3338447595259    0.19883961929410165    0.14639841185195906    0.2941665093443103    0.3338447097259948    
  0.4076821493929829    0.420388327381243    0.36378549238562025    0.2997512217612605    0.2577922694392376    
  0.23686544277085403    0.23063322373703504    0.23686542719810413    0.2577923005089778    0.2997512858195578    
  0.3637854571808631    0.42038823720363394    0.40768212340856325    0.3338448024893367    0.2941665093443103    
  0.41020379616857877    0.4178049487984891    0.4203882918657887    0.3931857547754937    0.35013336394930705    
  0.31670098321210655    0.29975124772084527    0.29405556195789434    0.29307766945054803    0.2940555010876943    
  0.29975121653003867    0.31670102768165365    0.3501333450737029    0.3931857501028395    0.4203882510564505    
  0.41780499006440613    0.41020379616857877    0.3784214722619297    0.37464080735363237    0.3637854928900389    
  0.35013335176978067    0.3435818387360987    0.3501333232289293    0.3637854661137604    0.3746408758456263    
  0.3784214343440907    0.37464081194513993    0.36378555241289157    0.35013340455122915    0.34358184804178216    
  0.35013342165180916    0.3637855112160297    0.3746409249179897    0.3784214722619297    0.2930776602364785    
  0.2940554715815691    0.2997512738213259    0.316701067673411    0.3501333042250084    0.3931857262252484    
  0.4203882157930272    0.4178050136935075    0.4102038366252829    0.4178049807621755    0.4203881889973052    
  0.39318574048667965    0.35013333130707064    0.31670105196218873    0.299751260258239    0.29405558056865155    
  0.2930776602364785    0.23063318802002683    0.23686536062016425    0.2577922727361594    0.2997513097048873    
  0.3637854903321605    0.42038821891378003    0.4076821432925195    0.33384485143040055    0.2941664915395506    
  0.33384475388291246    0.4076821139628659    0.42038830934782456    0.3637854749920434    0.2997511998314137    
  0.2577922771354829    0.236865461660502    0.23063318802002683    0.1979631070770072    0.20714244072696825    
  0.23686541728948748    0.29405552090793163    0.37464080037811615    0.41780498853092696    0.33384477227277304    
  0.19883961922914584    0.14639842758679253    0.198839575772213    0.3338447640355738    0.41780490165434575    
  0.37464088358870906    0.29405551388408724    0.23686539625679817    0.20714247985845333    0.1979631070770072    
  0.18783290198026792    0.19796311725856483    0.23063322329590988    0.29307769762557334    0.37842141334680435    
  0.41020388620648107    0.29416646314070494    0.14639843567922797    0.0967602412207204    0.146398434584302    
  0.2941665168668829    0.4102039003670027    0.3784214588043228    0.2930776444734958    0.23063321280233315    
  0.1979631961474749    0.18783290198026792    0.19796313899399878    0.20714243671628607    0.23686544601398454    
  0.2940555284436583    0.3746407706862229    0.41780493996770013    0.33384478668804096    0.19883965004852622    
  0.1463984193746835    0.19883960028488717    0.3338447477927041    0.4178049507799775    0.3746408296897721    
  0.29405556709774633    0.23686543014417116    0.20714244532803353    0.19796313899399878    0.2306332618025763    
  0.2368653657752451    0.25779230389311425    0.29975126853610945    0.3637854964551033    0.42038824248540807    
  0.4076821080397354    0.33384482853037456    0.29416650914301506    0.33384477548162267    0.40768215918831696    
  0.4203882765398044    0.3637855129024094    0.299751227199724    0.25779229064233466    0.23686545059294603    
  0.2306332618025763    0.293077608876236    0.2940555780252012    0.2997512519204616    0.31670103870001176    
  0.3501333072131798    0.3931857300675861    0.4203882575927526    0.41780498984566683    0.4102037830010675    
  0.4178049246242803    0.4203882298999256    0.39318574927650485    0.3501333764654263    0.31670097462541025    
  0.29975124215149723    0.2940555813730703    0.293077608876236    0.37842146547844807    0.37464078668573747    
  0.36378555702974485    0.3501333581308304    0.34358185900645266    0.3501333812810691    0.36378545025029857    
  0.37464091544650535    0.37842146190656983    0.37464079493824154    0.3637855059687918    0.3501333640676183    
  0.3435818585930064    0.35013333791667495    0.36378554868836616    0.37464084749148446    0.37842146547844807    
  0.4102038226857406    0.4178049473109131    0.4203882930910852    0.39318579717337127    0.35013329797194065    
  0.3167009931514143    0.2997512403347702    0.2940556042936989    0.29307764390806623    0.2940555624936507    
  0.29975124847902596    0.31670102456065924    0.35013335732625156    0.3931857677860035    0.4203882677916743    
  0.41780495982080185    0.4102038226857406    0.2941665179966868    0.333844702758962    0.40768213929435093    
  0.42038828843640075    0.3637855133145175    0.29975122109192315    0.2577922816129553    0.23686547063094318    
  0.23063319747431585    0.23686544833898596    0.2577922906948358    0.29975126345670866    0.36378548947876355    
  0.4203882179822841    0.40768220703490254    0.3338448164825906    0.2941665179966868    0.14639837274305195    
  0.19883962605482944    0.33384475670625213    0.41780495842539045    0.37464083235196416    0.29405549237443174    
  0.23686543841963337    0.20714245937251127    0.1979631258373489    0.20714243185504025    0.23686545063608094    
  0.2940555232272001    0.3746408891239268    0.417804936400103    0.3338447494579268    0.1988396197769551    
  0.14639837274305195    0.09676023222620214    0.14639840191946218    0.29416652125882925    0.41020393254764365    
  0.37842146761261913    0.29307769176416804    0.23063322468724606    0.1979631353828575    0.18783284895826824    
  0.19796314093676123    0.23063323399506985    0.293077701410576    0.37842145642329117    0.41020384349404315    
  0.29416653778814544    0.14639844481716355    0.09676023222620214    0.2477813133253503    0.294166479241159    
  0.39031180113838404    0.42404434936398866    0.37047656762121406    0.3013775061425785    0.25469632978300805    
  0.23063322005208958    0.22321664428282034    0.23063324944445623    0.2546963606899103    0.3013774790539745    
  0.37047656935642653    0.42404431016015387    0.3903117904584248    0.2941665451531636    0.2477813133253503    
  0.2941664956821283    0.3338447758464415    0.40768216106358807    0.4203882838131916    0.36378546696101954    
  0.29975120779098213    0.2577923206743243    0.2368654765641519    0.23063318969114632    0.23686542111343753    
  0.25779227037109526    0.2997512590811368    0.3637855272735394    0.42038822762772565    0.40768216275709357    
  0.33384477676033386    0.2941664956821283    0.39031179157966217    0.40768205944061414    0.42695850922335654    
  0.4021994158705665    0.34736029338448415    0.29901731550729643    0.27026710671663556    0.25779230504715017    
  0.2546963464293642    0.2577922352253375    0.27026712809252945    0.2990173609109437    0.3473602796965647    
  0.4021993484274084    0.4269584728154926    0.40768219653985605    0.39031179157966217    0.42404426180464827    
  0.42038830303766145    0.4021993606944049    0.3668093254815127    0.33024149531007396    0.3071843450144526    
  0.29901735450305467    0.29975129158724356    0.30137742306804394    0.2997512342251529    0.2990173073138585    
  0.30718436496304447    0.33024157952277533    0.3668093376822414    0.40219929857642567    0.42038827383609384    
  0.42404426180464827    0.37047656316044936    0.3637855064517138    0.3473603539691285    0.33024156872685845    
  0.3228815371337917    0.33024155550589074    0.34736026865573816    0.3637855891683068    0.37047658790698335    
  0.3637854631660677    0.34736034802323074    0.33024157707230933    0.32288151436895113    0.3302415459843312    
  0.3473603233636425    0.3637855946771929    0.37047656316044936    0.30137743519010063    0.2997512154065345    
  0.2990173689470364    0.30718443544993645    0.3302415080692623    0.3668093460909208    0.40219935938726475    
  0.4203883546419372    0.4240442550881072    0.42038822224497996    0.4021992913428486    0.3668093636720967    
  0.330241544015098    0.30718439922425333    0.2990173238667694    0.2997512285191595    0.30137743519010063    
  0.2546963397640825    0.25779223354676123    0.2702671173670434    0.2990173982694004    0.3473603401294007    
  0.40219933305692646    0.4269585257762196    0.40768223378016005    0.390311783268115    0.40768214040397166    
  0.4269585186160142    0.4021993546036522    0.3473603427746621    0.2990173309427243    0.2702671373119974    
  0.25779233173619087    0.2546963397640825    0.23063318113493594    0.23686543021846368    0.25779232811940184    
  0.2997512276690085    0.3637854604762227    0.42038824894915555    0.4076821577046517    0.3338447935614788    
  0.2941664834361287    0.333844724157802    0.40768217460550626    0.42038820792010123    0.3637855460333294    
  0.29975119314285625    0.2577922849323834    0.23686549194980963    0.23063318113493594    0.2232166842767199    
  0.23063317549638426    0.2546963924153053    0.30137752189385825    0.37047656838471105    0.42404426231688447    
  0.39031176662401756    0.2941664920508521    0.24778125763946296    0.29416649427225056    0.3903117895027243    
  0.4240443617234972    0.37047656218456776    0.30137745585620157    0.2546963715988554    0.2306332722075225    
  0.2232166842767199    0.2306332060152411    0.23686538025162665    0.25779229502489215    0.2997512529561145    
  0.36378548977598596    0.4203882427333914    0.4076821535553476    0.3338448311956006    0.29416646324208867    
  0.333844779193404    0.4076821342616302    0.4203882942885721    0.3637855480134561    0.29975126468130797    
  0.25779228515322317    0.23686545138215803    0.2306332060152411    0.2546963518903773    0.2577922274078898    
  0.27026715527620887    0.2990173772630048    0.3473603071754155    0.40219935405756746    0.4269585360433877    
  0.4076821770661089    0.3903117553806269    0.40768217419047553    0.4269585015997596    0.4021993684700109    
  0.3473602962799586    0.2990173311698268    0.2702671013408067    0.2577923494258425    0.2546963518903773    
  0.3013774257188319    0.2997512307734898    0.29901729590914405    0.30718439267412184    0.33024152758885217    
  0.3668093227117958    0.4021993302308893    0.42038823547907284    0.4240442413196354    0.4203882592412408    
  0.40219939735576565    0.3668092937068475    0.33024157122271436    0.30718434185520443    0.29901730821883954    
  0.299751268882283    0.3013774257188319    0.37047654399915037    0.36378548353502665    0.3473603848594489    
  0.3302415557720489    0.32288153058130625    0.33024156169540475    0.34736032822666224    0.3637855465119548    
  0.3704765687267216    0.36378550644658625    0.3473602722376232    0.3302416104931697    0.3228815017728148    
  0.330241596050993    0.347360344294776    0.3637856004326845    0.37047654399915037    0.42404435224766124    
  0.4203882064042903    0.40219937479663875    0.36680933623043976    0.3302415532714604    0.3071843307622009    
  0.2990173078092421    0.2997512871872721    0.30137747509645424    0.29975123150304583    0.29901731945743054    
  0.3071843972300146    0.33024153309046966    0.36680928643275673    0.4021993728795459    0.42038824179971457    
  0.42404435224766124    0.3903117476588251    0.4076820596418439    0.426958571635031    0.40219936606733925    
  0.3473603041042854    0.2990173467960143    0.2702670971156686    0.25779233753305925    0.25469632307215984    
  0.2577922615958058    0.27026711846430773    0.2990173512987025    0.34736031147071467    0.40219933123029283    
  0.42695859805841685    0.40768217776467314    0.3903117476588251    0.29416644160537786    0.333844826426755    
  0.40768213347156423    0.4203882353243782    0.3637855205828275    0.29975122101662627    0.25779228478508964    
  0.2368654334325532    0.23063321116419802    0.23686536232708288    0.2577922904792138    0.29975124624385024    
  0.3637855714922115    0.420388248560143    0.40768216627026044    0.3338448524096232    0.29416644160537786    
  0.2477813133253503    0.294166479241159    0.39031180113838404    0.42404434936398866    0.37047656762121406    
  0.3013775061425785    0.25469632978300805    0.23063322005208958    0.22321664428282034    0.23063324944445623    
  0.2546963606899103    0.3013774790539745    0.37047656935642653    0.42404431016015387    0.3903117904584248    
  0.2941665451531636    0.2477813133253503    0.39712079574164744    0.41020381532775263    0.42404433221420906    
  0.4030591193610807    0.3587344334996358    0.32164001063045444    0.30137745824558426    0.29307765052967194    
  0.2910060329290434    0.2930776601686723    0.30137747396712394    0.3216400340592655    0.35873444009227307    
  0.4030590545926588    0.4240443188524617    0.4102038989112254    0.39712079574164744    0.41020382620009926    
  0.4178049392084713    0.4203882384205632    0.3931857425592391    0.35013330965862605    0.3167009997441822    
  0.2997512619108083    0.29405559655036    0.29307761497082707    0.2940555928387264    0.2997512314621582    
  0.3167010526496079    0.3501333195402859    0.39318573241952054    0.42038821753881134    0.4178049745296905    
  0.41020382620009926    0.424044314142242    0.42038814784239636    0.40219933750987147    0.3668094389184731    
  0.3302415299300959    0.3071843800318102    0.29901732127559627    0.2997512707555593    0.3013774163431101    
  0.2997512545071193    0.29901734097330696    0.3071844574959271    0.33024147890404093    0.3668093276829198    
  0.40219935569208415    0.4203882627520294    0.424044314142242    0.4030590412085083    0.39318574630617376    
  0.3668093716161433    0.33481417444762773    0.31116836905488127    0.3028008529438478    0.30718437012739497    
  0.31670103764442714    0.3216399883266988    0.316700997512844    0.3071843424624502    0.30280092165648914    
  0.3111684081288275    0.334814158773064    0.36680934759280054    0.39318578039314434    0.4030590412085083    
  0.3587344287711368    0.35013330849931396    0.33024151626765647    0.3111683648734398    0.30340631671996177    
  0.3111683479983191    0.3302415016784937    0.3501334002971384    0.35873440405424145    0.3501332888649879    
  0.33024155723963977    0.3111684080446021    0.30340634250470305    0.3111684024560558    0.33024149431258987    
  0.35013338308718994    0.3587344287711368    0.3216399984806717    0.31670095855460895    0.30718440002563463    
  0.30280095671185275    0.3111683018046955    0.3348141387748843    0.3668093189876485    0.39318577986786496    
  0.40305908285081127    0.3931858099098194    0.3668092718793757    0.3348141563860026    0.31116831679073303    
  0.3028009424864096    0.3071843620688603    0.3167010468631588    0.3216399984806717    0.3013773861757988    
  0.2997511508294085    0.2990173142946564    0.30718444504138276    0.3302415074598258    0.3668093013557122    
  0.4021993511632531    0.4203883241103222    0.4240442486692545    0.42038817777762927    0.40219935082451214    
  0.3668094169940322    0.33024150192022034    0.30718435671893823    0.2990172816020961    0.29975130771363023    
  0.3013773861757988    0.29307768729910194    0.2940555103132811    0.299751272821272    0.31670100993689665    
  0.3501333368585171    0.39318572807125124    0.4203882145218077    0.4178049645619443    0.4102038273852836    
  0.41780492648835    0.4203882434995536    0.39318574526892053    0.3501333796058109    0.31670099129047674    
  0.2997512389068167    0.2940555678143703    0.29307768729910194    0.29100605090806636    0.2930776323627997    
  0.3013774570964914    0.32164004676244573    0.35873442706168995    0.40305908293870946    0.4240442384730548    
  0.410203881103792    0.39712074079431786    0.41020388221223236    0.4240443053591284    0.4030591476540824    
  0.3587344161228988    0.32164000352189015    0.3013774559131775    0.2930777255931846    0.29100605090806636    
  0.2930776718010656    0.29405552576668514    0.29975125519958085    0.31670104544956207    0.3501333077013974    
  0.39318573793146566    0.42038825478545344    0.4178050285502841    0.41020383961087126    0.41780487734665084    
  0.42038825049071593    0.3931857598732139    0.35013334689497955    0.31670103499090196    0.29975123600205367    
  0.2940555709749484    0.2930776718010656    0.3013774535416627    0.2997511610216182    0.29901730614302646    
  0.3071844136499367    0.3302415050805238    0.366809324864928    0.4021992926761929    0.42038832647962326    
  0.4240442874596007    0.4203882249364641    0.4021993533491457    0.3668093923976549    0.3302415037095219    
  0.3071843536414937    0.29901734383572726    0.29975127346439984    0.3013774535416627    0.321639967914697    
  0.3167010846937582    0.3071843462280711    0.30280094360222054    0.3111683529558899    0.3348141132906751    
  0.3668093346021708    0.39318574730799855    0.4030590274361359    0.39318568015655064    0.3668093194128567    
  0.33481418343941605    0.31116836586144814    0.30280088037300046    0.30718436593628096    0.3167011052063677    
  0.321639967914697    0.3587344106499754    0.3501333017972991    0.3302415676386021    0.31116834899977186    
  0.3034063690131341    0.311168344957863    0.33024146662773884    0.3501333988036808    0.35873441002548656    
  0.35013336800083134    0.33024154143985035    0.3111683616582131    0.3034063258036116    0.3111683620353696    
  0.3302415469189167    0.3501333890983262    0.3587344106499754    0.40305909520806055    0.3931857572806716    
  0.36680936774001077    0.3348142015346005    0.31116832403097083    0.302800898378852    0.30718436846326264    
  0.3167011182208917    0.3216400050438065    0.31670100761469877    0.30718435762261725    0.30280096600286266    
  0.3111683557106903    0.3348141625815577    0.3668093473152927    0.39318578442276525    0.40305909520806055    
  0.42404427368146785    0.4203882057077781    0.4021993680716928    0.36680933609748373    0.33024156363041557    
  0.30718437164907036    0.29901734401008745    0.29975124933719643    0.3013774165056699    0.29975124323146274    
  0.29901733005195447    0.3071843871368869    0.33024152357234665    0.36680928933810913    0.4021993917186662    
  0.4203883211437891    0.42404427368146785    0.4102037861749467    0.4178049966990693    0.42038822167164286    
  0.39318574679330676    0.3501333085182533    0.3167010131538103    0.2997512482642485    0.29405553765314335    
  0.2930776369558537    0.29405553043469224    0.29975122993620334    0.3167010096449031    0.3501333653133228    
  0.39318572741831137    0.4203882306751021    0.4178049999215608    0.4102037861749467    0.39712079574164744    
  0.41020381532775263    0.42404433221420906    0.4030591193610807    0.3587344334996358    0.32164001063045444    
  0.30137745824558426    0.29307765052967194    0.2910060329290434    0.2930776601686723    0.30137747396712394    
  0.3216400340592655    0.35873444009227307    0.4030590545926588    0.4240443188524617    0.4102038989112254    
  0.39712079574164744    0.3807145994892198    0.37842138356240307    0.370476585107722    0.35873446322416963    
  0.3526440434200752    0.35873446584964436    0.37047655573315397    0.37842149758115035    0.38071456944434934    
  0.378421432394175    0.37047658086491164    0.3587345113902491    0.35264399203930885    0.35873444323772313    
  0.37047655963012266    0.3784215245512918    0.3807145994892198    0.37842148669429587    0.37464077599097806    
  0.3637855506673916    0.3501333462320533    0.34358180823340606    0.35013330158455047    0.3637855037579537    
  0.3746409063901165    0.37842137523357744    0.37464081768677    0.36378548374931724    0.35013332536639313    
  0.3435818652969679    0.3501333313468599    0.36378552202291264    0.37464083376457225    0.37842148669429587    
  0.3704765389963599    0.3637854338855815    0.34736033343690953    0.3302416016056519    0.32288148437324693    
  0.33024153148386604    0.3473603461347925    0.3637855558750337    0.37047654813730374    0.3637854704535317    
  0.3473603661931712    0.3302416115125249    0.32288149143699596    0.3302415520561195    0.3473603224892901    
  0.36378556296297726    0.3704765389963599    0.35873439000042817    0.3501333862574522    0.33024158504695783    
  0.31116838238664063    0.3034062849257326    0.31116835507225055    0.3302415408324189    0.35013337862991645    
  0.3587343778978731    0.35013332578004974    0.3302415321026161    0.3111683405872294    0.30340634326610383    
  0.3111683481899723    0.33024150391035234    0.3501333786005029    0.35873439000042817    0.3526440156693888    
  0.3435818289234968    0.3228815140041925    0.30340637341293475    0.2955651795674167    0.30340633459210786    
  0.32288146434071124    0.3435818880714589    0.3526439968577213    0.3435818295918168    0.3228815067791026    
  0.30340639173138756    0.2955651760169854    0.30340635786730014    0.32288153320689156    0.3435818854537936    
  0.3526440156693888    0.35873440429552994    0.3501333094883522    0.3302415783513764    0.3111683969613498    
  0.303406287526352    0.3111683284455323    0.33024155913355197    0.35013341031722983    0.3587344328353715    
  0.350133308985024    0.3302415083488925    0.3111683416513494    0.30340633669661815    0.3111683421182815    
  0.330241557269938    0.350133342186909    0.35873440429552994    0.37047650299048734    0.363785415677121    
  0.34736033874505556    0.3302415988347716    0.3228815193647993    0.3302415414878595    0.347360340178521    
  0.36378556599587486    0.37047652553251    0.3637855059240759    0.3473603528554205    0.33024156716261976    