#     DFTpy    
  CRYSTAL 
    
  PRIMVEC    
  1.4006349527973478    -2.4259709011018424    0.0    
  1.4006349527973478    2.4259709011018424    0.0    
  0.0    0.0    2.636447796206896    
  PRIMCOORD    
  1    1    
  Si    0.0    0.0    0.0    
  BEGIN_BLOCK_DATAGRID_3D    
  3d_datagrid_density    
  BEGIN_DATAGRID_3D#0    
  13    13    13    
  0.0    0.0    0.0    
  1.4006349527973478    -2.4259709011018424    0.0    
  1.4006349527973478    2.4259709011018424    0.0    
  0.0    0.0    2.636447796206896    
  0.05680000650888794    0.10101951904210522    0.2528389447108442    0.3819434432729681    0.3486051074595727    
  0.274252280701385    0.245233401463504    0.27425222350683454    0.3486050720728017    0.38194342940004283    
  0.25283901787658297    0.1010195313860449    0.05680000650888794    0.10101953679517717    0.10099352358618488    
  0.20399536007663419    0.3539318314991394    0.3743153111122546    0.2990026952307669    0.24541435349793714    
  0.24540054751673301    0.2990206166057993    0.37430854004846037    0.3538696552293161    0.20403370034712806    
  0.10101953679517717    0.2528389990362119    0.20399540037594235    0.2529270513721062    0.353882455430582    
  0.37949318483437505    0.3121871860729076    0.2452597422156365    0.2212986764995566    0.24526042790999392    
  0.31216833066644323    0.3795761606779967    0.35386963751787176    0.2528389990362119    0.38194345682131847    
  0.3539318209870254    0.3538824923986581    0.38189444926248006    0.37428095762884495    0.312251900504955    
  0.24490530563094084    0.20798742758294333    0.20796891873356488    0.24493775876347731    0.3121683843981989    
  0.3743085371806501    0.38194345682131847    0.3486050773371335    0.37431533132782757    0.37949317367073604    
  0.37428095545185425    0.34868262780402454    0.29902147335382073    0.24520805695812029    0.20797864351990902    
  0.19533048674810588    0.2079689587493208    0.24526048002818912    0.29902062476905567    0.3486050773371335    
  0.27425221850393694    0.2990027371497152    0.31218719829085084    0.312251894084783    0.2990214795952678    
  0.2741773126668941    0.24540409424140147    0.2213482601812371    0.20797856577675222    0.20798740286957193    
  0.2212986822513121    0.24540051965901757    0.27425221850393694    0.2452334188710695    0.2454143711134833    
  0.24525969705028844    0.2449052669706993    0.2452080659506183    0.24540410663201562    0.24530578466969616    
  0.24540408490711943    0.2452080464451384    0.24490529199406882    0.24525976951523767    0.24541434483213032    
  0.2452334188710695    0.27425228465247165    0.24540054284980364    0.22129862453067342    0.2079874270751838    
  0.20797863422095356    0.22134826953499104    0.24540406372422535    0.27417733728476545    0.29902149121630917    
  0.3122518562616564    0.3121872001715368    0.2990026713353876    0.27425228465247165    0.348605064078419    
  0.2990206592546351    0.24526047951514457    0.2079688901792141    0.1953305477011735    0.2079785943297748    
  0.24520803573925193    0.29902147368388104    0.3486825298951784    0.3742809454397622    0.3794932125260171    
  0.37431524961643325    0.348605064078419    0.38194346060811085    0.37430855360045734    0.31216832931155114    
  0.24493774674927932    0.2079689358892444    0.20798743278018308    0.24490527991922362    0.31225187576467395    
  0.3742809569898502    0.3818944440459111    0.3538824964946154    0.35393180369893373    0.38194346060811085    
  0.2528390274634944    0.3538697025939747    0.3795761075488523    0.3121683751160005    0.2452605088395983    
  0.22129865734707524    0.2452597278191177    0.3121872317261299    0.37949313356886527    0.3538825476709596    
  0.2529270526307161    0.20399537623240824    0.2528390274634944    0.10101952163557892    0.20403376947969273    
  0.35386963874989025    0.3743084840113355    0.2990206602903249    0.24540052149452038    0.245414346459253    
  0.29900266308179807    0.37431522925668614    0.3539318437681598    0.20399542825146721    0.10099348925390257    
  0.10101952163557892    0.05680000650888794    0.10101951904210522    0.2528389447108442    0.3819434432729681    
  0.3486051074595727    0.274252280701385    0.245233401463504    0.27425222350683454    0.3486050720728017    
  0.38194342940004283    0.25283901787658297    0.1010195313860449    0.05680000650888794    0.09671903382631791    
  0.14730067539954506    0.29081490364666923    0.38281182577982614    0.33297004653272205    0.25977361254410736    
  0.23235287498286442    0.259773598557802    0.33297000229910206    0.38281179250434255    0.29081496738739937    
  0.14730067992537682    0.09671903382631791    0.14730069888822545    0.1472474733926128    0.24822988269745927    
  0.3677802477455827    0.3617826690691    0.28361743199767886    0.2324779801256899    0.23246189294752895    
  0.28363769908505065    0.36176939746635306    0.36774114170376926    0.2482463787950906    0.14730069888822545    
  0.2908149220464736    0.24822995190878255    0.29091665220044244    0.36773494980459537    0.36914794821447067    
  0.2968328658637053    0.23239458329405333    0.20976347873395987    0.23239417457594905    0.2968203878249802    
  0.3692059332476827    0.3677411095347786    0.2908149220464736    0.3828118066932485    0.367780236035913    
  0.3677349574154756    0.3827547798593589    0.3617574179488495    0.2968816871281442    0.23219386588658456    
  0.19729893845774452    0.197284051545851    0.23221904708296853    0.296820476619626    0.3617694198569048    
  0.3828118066932485    0.33297001295249773    0.3617826882764154    0.3691478985795115    0.3617574363727137    
  0.33304491472490755    0.2836317423684171    0.2323572742245905    0.19729058725025522    0.18541102602367626    
  0.19728407821968016    0.232394250682207    0.28363771563073514    0.33297001295249773    0.259773563517561    
  0.2836174146033124    0.2968328957217378    0.2968816444382131    0.2836317385825834    0.2597053683654887    
  0.23246610333538245    0.20980186221518934    0.19729051705848696    0.19729894120607086    0.2097634925738499    
  0.232461905215608    0.259773563517561    0.23235289416464844    0.23247798729957467    0.23239456835814984    
  0.23219383466829172    0.2323572337800155    0.23246610317181815    0.23242216025209705    0.23246609282628383    
  0.23235726671227874    0.23219385279414015    0.2323946196257177    0.2324779783216581    0.23235289416464844    
  0.2597736023499169    0.23246190754711737    0.2097634302944187    0.19729895647658754    0.1972905929967409    
  0.20980189121388707    0.23246606706458656    0.25970538619316785    0.28363173005897435    0.29688162365432724    
  0.2968328992633953    0.2836173984557834    0.2597736023499169    0.3329700455126128    0.2836377636462852    
  0.23239421602217214    0.19728400517447306    0.1854110383958651    0.19729055805156714    0.23235726091330217    
  0.28363176299687565    0.333044812703503    0.3617574390073718    0.3691480012624849    0.3617826280110192    
  0.3329700455126128    0.38281182452121537    0.3617693803676509    0.296820413765032    0.23221902021028443    
  0.19728407577292317    0.19729897327232307    0.23219387352936247    0.29688162451788563    0.3617574285099717    
  0.38275478076682834    0.3677349900151318    0.3677802144897087    0.38281182452121537    0.29081495467312096    
  0.36774116535053947    0.3692058300894319    0.2968204405186931    0.23239424683634857    0.20976347043409554    
  0.23239457250065298    0.2968328911705616    0.36914794373752824    0.36773504562328646    0.29091663036389553    
  0.24822990585916715    0.29081495467312096    0.14730068722116654    0.24824644315137093    0.3677410918464366    
  0.3617693551422753    0.28363775722680445    0.2324618913318348    0.23247797315875385    0.28361740556541587    
  0.36178259036902616    0.3677802353759577    0.2482299764478385    0.14724742997487986    0.14730068722116654    
  0.09671903382631791    0.14730067539954506    0.29081490364666923    0.38281182577982614    0.33297004653272205    
  0.25977361254410736    0.23235287498286442    0.259773598557802    0.33297000229910206    0.38281179250434255    
  0.29081496738739937    0.14730067992537682    0.09671903382631791    0.24105860762978346    0.2853970294508854    
  0.366271452737762    0.3673238826824777    0.2901351969843936    0.22268186457496858    0.19936244572615894    
  0.22268182879413123    0.2901351773134933    0.3673238979665029    0.3662715584098173    0.28539701241305165    
  0.24105860762978346    0.2853970385336613    0.2853341414725361    0.34794790901610634    0.37938512550472375    
  0.32268586320683695    0.2438471170909305    0.1994890493293909    0.1994801337877066    0.24385838904724083    
  0.3226750536090414    0.3793786758341251    0.3479394082871002    0.2853970385336613    0.36627152413868896    
  0.3479479716663956    0.3663422767946583    0.37936439462085975    0.33343446611194955    0.2564183955927118    
  0.19972575728172715    0.18053955905409227    0.19972466362689925    0.2564161822440406    0.333450802486428    
  0.37937863937280014    0.36627152413868896    0.3673238709219348    0.3793851333433173    0.37936441372596663    
  0.3672840103741993    0.3226777695826019    0.25643577178250404    0.1998571569586215    0.1702680308642544    
  0.17026283855018692    0.19986559514789637    0.2564162244753688    0.32267505767453447    0.3673238709219348    
  0.2901351774689493    0.3226859013861645    0.33343441112741273    0.3226777721457312    0.29017623776132073    
  0.24385084810166005    0.19971411975502268    0.1702642513118381    0.16031903073129436    0.17026284682914755    
  0.19972472981571568    0.24385837196801183    0.2901351774689493    0.22268182907557113    0.2438471167976227    
  0.25641843589275337    0.25643573849694296    0.2438508357376311    0.22264844871110653    0.199482692896992    
  0.1805531547232676    0.170264196471126    0.17026800371459974    0.18053957662401787    0.19948012186023015    
  0.22268182907557113    0.19936245823271112    0.19948908348966282    0.1997257588178565    0.19985714283644807    
  0.19971409437111032    0.19948272108147905    0.19939776384785488    0.19948269879311623    0.19971413025666515    
  0.19985714925465378    0.19972579413381922    0.1994890628304214    0.19936245823271112    0.22268185370731433    
  0.199480126894966    0.1805395218759646    0.17026801321472138    0.1702642578084191    0.18055317159207213    
  0.19948268861874657    0.22264845244554032    0.24385080939639128    0.2564357159284193    0.25641843937243197    
  0.2438470874366612    0.22268185370731433    0.29013520120533376    0.24385843599195614    0.19972469673293874    
  0.17026278971739578    0.16031907305331175    0.1702642114094841    0.19971412373946956    0.243850863146858    
  0.2901761476341663    0.32267775869869625    0.3334345070959631    0.32268582876288177    0.29013520120533376    
  0.3673238897247323    0.32267504843499883    0.2564161609887481    0.1998655970461412    0.17026282950236352    
  0.17026803738629506    0.19985716803060152    0.2564357410827123    0.3226777842503061    0.36728398104972926    
  0.37936441744482263    0.379385102128778    0.3673238897247323    0.36627157142524425    0.3793786850385862    
  0.3334507149937266    0.2564162358768915    0.19972472956912576    0.18053955721585138    0.19972577389141405    
  0.25641847218277447    0.33343444157310914    0.3793644533367285    0.36634223531829313    0.34794798011723665    
  0.36627157142524425    0.28539700657287864    0.34793948332185065    0.3793786253323291    0.32267500855456727    
  0.24385842674853606    0.19948012208831653    0.19948907353322162    0.24384709235121185    0.32268579471101133    
  0.3793851276861423    0.34794804049379335    0.28533409589265685    0.28539700657287864    0.24105860762978346    
  0.2853970294508854    0.366271452737762    0.3673238826824777    0.2901351969843936    0.22268186457496858    
  0.19936244572615894    0.22268182879413123    0.2901351773134933    0.3673238979665029    0.3662715584098173    
  0.28539701241305165    0.24105860762978346    0.4024593299733661    0.40606858965524223    0.38641653443530294    
  0.31692748461288694    0.23377953006502034    0.17806087203563284    0.15981949826261946    0.1780608632112542    
  0.2337794726381325    0.3169274594025031    0.38641661424768353    0.4060686083428298    0.4024593299733661    
  0.40606863923581155    0.406053365402455    0.39649480353075195    0.34541521300991596    0.2640417121628614    
  0.19515550496566553    0.16005653945941908    0.1600550287706433    0.195156299809019    0.26404033525271065    
  0.34541683217201663    0.3964901626258309    0.40606863923581155    0.3864165874072035    0.39649488579553066    
  0.38642869700311183    0.34541508292330225    0.2752115839227879    0.20572242347558187    0.16060417037078462    
  0.14569983334007636    0.1606052267948302    0.20572208635143638    0.27521199153646997    0.34541679388551033    
  0.3864165874072035    0.31692747761923823    0.3454152238155403    0.34541509482749366    0.3169180436603203    
  0.2640411884594107    0.20572323678801663    0.1609238248421965    0.1379581884028224    0.13795614718305743    
  0.16092464611222745    0.20572212122320063    0.26404032933390764    0.31692747761923823    0.23377949748069618    
  0.26404172514456625    0.2752115631214053    0.26404121030256633    0.23378732554951226    0.19515479959429735    
  0.16060498039179302    0.13795573455841556    0.13026547356789145    0.1379561753827202    0.16060526745347037    
  0.19515629567600837    0.23377949748069618    0.17806084094731944    0.19515551874440412    0.20572242947473116    
  0.20572324844132112    0.195154810595595    0.17805605029074253    0.16005434384016695    0.1457023068394478    
  0.13795568079959492    0.13795819938247922    0.14569984516950074    0.160055013957813    0.17806084094731944    
  0.15981949174659493    0.16005652251617386    0.1606041299449389    0.16092380422511235    0.16060498709466137    
  0.16005436249103575    0.15982660142710828    0.16005433897294843    0.1606049766708708    0.1609238198785728    
  0.16060418975028395    0.16005652096457573    0.15981949174659493    0.1780608931795315    0.1600550280047981    
  0.14569981117726497    0.13795819929730033    0.13795573947941306    0.14570230798855052    0.16005432637541    
  0.1780560438204517    0.19515480044624928    0.20572322358407655    0.20572245364006198    0.1951554808463453    
  0.1780608931795315    0.23377951699039684    0.19515630538662682    0.1606052815450247    0.13795613541393634    
  0.13026550636005377    0.13795569990960654    0.16060495991855278    0.19515480212203404    0.233787253198094    
  0.26404120898044053    0.27521161338740563    0.264041662133249    0.23377951699039684    0.31692749990546315    
  0.2640403169314575    0.2057220629920598    0.16092464940997028    0.13795614689258257    0.13795821734072927    
  0.160923810685496    0.2057232265841297    0.2640412027459543    0.3169180066751084    0.3454151408995289    
  0.34541523051573514    0.31692749990546315    0.3864166366326515    0.3454168735392441    0.27521193874089056    
  0.20572211259569476    0.16060530190567807    0.1456998330998048    0.1606041641612785    0.20572246399220817    
  0.2752115744315775    0.3454151860263476    0.3864287020544747    0.39649486446616733    0.3864166366326515    
  0.40606858584811956    0.3964902870066534    0.3454167851976439    0.2640402840472553    0.19515632795052962    
  0.16005502881036457    0.1600565308528364    0.19515547804713826    0.26404163421454097    0.3454152500453367    
  0.39649494571634847    0.4060533029539643    0.40606858584811956    0.4024593299733661    0.40606858965524223    
  0.38641653443530294    0.31692748461288694    0.23377953006502034    0.17806087203563284    0.15981949826261946    
  0.1780608632112542    0.2337794726381325    0.3169274594025031    0.38641661424768353    0.4060686083428298    
  0.4024593299733661    0.420546322604648    0.39792042935296135    0.3346797533415452    0.25294492401882485    
  0.1827636217861547    0.14005056484109799    0.12629925569113407    0.14005055287060608    0.18276360592506516    
  0.252944912448453    0.33467982741168323    0.3979204086749053    0.420546322604648    0.39792045007201865    
  0.39792262443011023    0.3546370644744074    0.2816527995371658    0.2070170830992615    0.15304649963632538    
  0.12657244579455726    0.12657143022855424    0.15304695955251263    0.2070165127999932    0.2816538923628593    
  0.3546368007228215    0.39792045007201865    0.33467978610587823    0.35463714852460226    0.3346772706192166    
  0.2816559266941274    0.2163509450810551    0.16116313663319065    0.12713713689520476    0.11598526432282384    
  0.12713815842169873    0.16116220270422804    0.2163516413750289    0.28165383946383316    0.33467978610587823    
  0.2529449172668263    0.2816527721184715    0.2816559171272093    0.25294312991359064    0.20701767267280302    
  0.16116117592126986    0.1274332199684066    0.11025682216260069    0.11025606094497907    0.12743300783251862    
  0.16116224190034714    0.20701649948683018    0.2529449172668263    0.1827636085385865    0.2070171116272311    
  0.21635089505613814    0.2070176712713944    0.18276324988747747    0.15304666684405738    0.1271388157750059    
  0.11025575889251608    0.10447004558518203    0.11025608511807457    0.12713820804770268    0.15304694103231187    
  0.1827636085385865    0.1400505406480516    0.153046509275204    0.1611631570682374    0.16116116110120654    
  0.15304667255353582    0.14005117591191812    0.12657123685737784    0.11598542745820807    0.11025571491367492    
  0.11025682725527411    0.11598527994329087    0.12657143280490216    0.1400505406480516    0.12629928013448888    
  0.12657245820827134    0.12713712135371472    0.12743319290799732    0.12713879294709166    0.12657123785363447    
  0.12629982006927798    0.12657124764051475    0.12713882366145973    0.12743320256142485    0.12713714319265337    
  0.1265724432358985    0.12629928013448888    0.1400505749552568    0.1265714308463613    0.11598524383786503    
  0.11025684049777985    0.11025576806700903    0.11598546029096218    0.126571232618602    0.14005118673997013    
  0.1530466602714111    0.16116114974151002    0.16116315706529408    0.15304649563205394    0.1400505749552568    
  0.18276361385035433    0.153046996108066    0.12713817892740334    0.11025603562470666    0.10447006962989513    
  0.11025573150731256    0.12713880820271944    0.15304666444639586    0.1827631833749117    0.20701768692127073    
  0.2163509720136092    0.20701705973862766    0.18276361385035433    0.2529449199804945    0.2070164642143937    
  0.16116218965906265    0.12743300758456125    0.11025607687667241    0.1102568493994225    0.12743322320553915    
  0.16116113807362267    0.2070176647114987    0.25294313207530983    0.2816559668769392    0.2816527605807932    
  0.2529449199804945    0.3346798092504485    0.28165390513326194    0.21635158330457052    0.16116224631135148    
  0.1271382083587926    0.11598526201077976    0.12713711685057325    0.16116314416378613    0.21635091444378465    
  0.2816560083747107    0.3346772316261443    0.35463709743957883    0.3346798092504485    0.3979204112445633    
  0.3546368596644308    0.28165386106008533    0.20701647866499187    0.15304696796004622    0.12657142502401894    
  0.12657246445878254    0.15304646658504906    0.20701703384690634    0.2816527795291868    0.3546371818226896    
  0.3979225384287439    0.3979204112445633    0.420546322604648    0.39792042935296135    0.3346797533415452    
  0.25294492401882485    0.1827636217861547    0.14005056484109799    0.12629925569113407    0.14005055287060608    
  0.18276360592506516    0.252944912448453    0.33467982741168323    0.3979204086749053    0.420546322604648    
  0.3652798876144321    0.3401719130278446    0.27781080837281136    0.20667199356964042    0.14980103719192978    
  0.11594934921993015    0.10504418357212784    0.11594932029766825    0.1498010215729787    0.20667198230078532    
  0.27781088171346907    0.340171917101762    0.3652798876144321    0.34017197192268955    0.3401715140096048    
  0.29662438241543015    0.23102402221805357    0.16926455609643726    0.1262478567992217    0.10530921210675623    
  0.10530896251191879    0.1262479468556342    0.16926444999584755    0.2310229802763899    0.29662569193543914    
  0.34017197192268955    0.27781087056259796    0.29662442315309306    0.27781247842383927    0.23102272065568308    
  0.17690904837395002    0.13269704240960445    0.10583354963374943    0.09705573304100402    0.10583349490258975    
  0.13269731597395615    0.17690950988301143    0.23102295166420744    0.27781087056259796    0.20667196035119123    
  0.23102402326048616    0.231022709083333    0.20667222232908505    0.16926461262839806    0.13269745921069195    
  0.1060930251198307    0.09262608801567113    0.09262680911195963    0.10609228960957943    0.13269734152284143    
  0.16926444108936908    0.20667196035119123    0.14980103625894797    0.16926456644852886    0.17690900749385433    
  0.16926461647478885    0.14980068996189275    0.1262482064975213    0.1058328127020371    0.0926269596868688    
  0.08810816908673187    0.09262683132001677    0.10583353098229184    0.1262479279480579    0.14980103625894797    
  0.11594932015911258    0.12624785638522687    0.1326970820891692    0.13269743990466207    0.12624821486197213    
  0.11594904002540704    0.10530979166373154    0.09705530429401119    0.09262691845973622    0.09262607663370033    
  0.09705575965817821    0.10530896755449436    0.11594932015911258    0.10504419149222836    0.10530923433059272    
  0.10583355010315937    0.10609301763093512    0.10583280854034019    0.10530981316302997    0.10504319832346486    
  0.1053097926593641    0.10583282184251668    0.10609302616249978    0.10583357579241934    0.10530921406723136    
  0.10504419149222836    0.11594934526365741    0.10530897804419666    0.09705572440899174    0.09262609408696448    
  0.09262695639890405    0.0970553110302091    0.10530980903815045    0.11594904875102127    0.12624817312819983    
  0.1326974491444186    0.13269707485118593    0.1262478464006791    0.11594934526365741    0.14980104614713133    
  0.1262479715578585    0.10583351579284254    0.09262678967595409    0.088108183365892    0.09262691914744708    
  0.1058328267439895    0.12624820223491695    0.14980062163601363    0.169264603733802    0.17690909370219365    
  0.16926453708298123    0.14980104614713133    0.20667199633294525    0.1692644333535655    0.13269728240979337    
  0.10609228563771567    0.09262681189803455    0.0926260898141636    0.10609304352880115    0.132697438836225    
  0.16926459751169554    0.20667222446613706    0.2310227406236195    0.23102401039716672    0.20667199633294525    
  0.2778109016942388    0.23102299612074906    0.17690946889660986    0.13269735960353382    0.10583352913795703    
  0.09705574471354597    0.10583357202213567    0.13269709200349866    0.17690902698756183    0.23102277088416617    
  0.2778124524685978    0.29662442149818025    0.2778109016942388    0.34017193986251965    0.2966257609296279    
  0.2310229487259492    0.16926441910205925    0.1262479604246686    0.10530897873740723    0.10530922817629271    
  0.12624783987931426    0.16926450739816845    0.2310240387456112    0.2966244534182698    0.34017147013641985    
  0.34017193986251965    0.3652798876144321    0.3401719130278446    0.27781080837281136    0.20667199356964042    
  0.14980103719192978    0.11594934921993015    0.10504418357212784    0.11594932029766825    0.1498010215729787    
  0.20667198230078532    0.27781088171346907    0.340171917101762    0.3652798876144321    0.33866402977216503    
  0.3147248206533135    0.25623796632245405    0.19066612671229244    0.13871907720991206    0.10783499726764699    
  0.09786859408563962    0.10783496698605075    0.13871905586004843    0.1906661231205699    0.256238041989324    
  0.31472484580498916    0.33866402977216503    0.3147248840661363    0.3147227311325018    0.27379106895444705    
  0.21310189033493634    0.15651841440851275    0.11724935274689026    0.09813447802270557    0.09813588896380786    
  0.11724819519229092    0.15651940163987665    0.21309933241158788    0.27379295502647083    0.3147248840661363    
  0.2562380354131177    0.2737911195965579    0.2562424766771403    0.21309720326461937    0.16356902383369623    
  0.12315987495444246    0.09866614344916441    0.09067710773402256    0.09866537084593532    0.12316078458671705    
  0.16356906553741793    0.21309932161901018    0.2562380354131177    0.1906661352255244    0.21310187383061008    
  0.21309720148727004    0.19066748661778285    0.15651899879074826    0.12316211961067737    0.09892552485451248    
  0.08671550998914562    0.08671590413486527    0.09892558421978481    0.12316079519555179    0.15651938928396458    
  0.1906661352255244    0.1387190717566481    0.15651841919845283    0.1635690155365763    0.15651899327620883    
  0.13871870324581712    0.11724817671514182    0.09866475831881616    0.08671592975244452    0.08264731291548068    
  0.08671593644506863    0.09866539903544663    0.11724819084374309    0.1387190717566481    0.10783496950411071    
  0.1172493707364795    0.123159882044268    0.12316212214523004    0.11724817670461588    0.10783600461008448    
  0.09813548475825773    0.09067772695471626    0.08671588479468433    0.08671550586744857    0.09067710508753223    
  0.0981358643991384    0.10783496950411071    0.09786859578328616    0.09813448354288887    0.09866610616260646    
  0.0989255038676283    0.0986647597535269    0.09813548865712236    0.09786733634531    0.09813547474814742    
  0.09866474762131852    0.0989255193506756    0.09866615040436211    0.09813446544728029    0.09786859578328616    
  0.10783500274403961    0.09813588240495492    0.09067707406952308    0.08671551927820419    0.08671593488802315    
  0.09067774080019783    0.09813547147297673    0.10783601427502107    0.11724818731645216    0.12316209978453309    
  0.12315988351653133    0.11724933327198428    0.10783500274403961    0.13871905775922436    0.11724821896275206    
  0.09866540470677991    0.08671589046445302    0.08264735399553504    0.08671590426121227    0.09866474555716233    
  0.1172481707338384    0.13871864114753574    0.1565189915580101    0.16356904253652674    0.15651838155042244    
  0.13871905775922436    0.1906661351146292    0.15651940417176882    0.1231607649991483    0.09892557757144146    
  0.08671591143436409    0.0867155205790046    0.09892551238550985    0.12316210022629802    0.15651898444297493    
  0.1906674851788096    0.21309722579030513    0.2131018638306499    0.1906661351146292    0.25623806351073175    
  0.2130993777608263    0.16356904412404832    0.12316079662489009    0.09866542043837223    0.09067709601369288    
  0.09866613640054653    0.12315989657655926    0.16356898733303923    0.2130972693889731    0.25624248284262646    
  0.2737910874643778    0.25623806351073175    0.31472484155346087    0.27379302820428764    0.21309933035407383    
  0.1565193615240006    0.1172482168931989    0.09813587248408893    0.09813447583058314    0.11724932713683757    
  0.15651836303211197    0.21310190872541174    0.27379114868507365    0.3147226779589307    0.31472484155346087    
  0.33866402977216503    0.3147248206533135    0.25623796632245405    0.19066612671229244    0.13871907720991206    
  0.10783499726764699    0.09786859408563962    0.10783496698605075    0.13871905586004843    0.1906661231205699    
  0.256238041989324    0.31472484580498916    0.33866402977216503    0.3652798844507529    0.3401719028388046    
  0.2778108195858301    0.2066719982090217    0.14980103904732106    0.11594935193865    0.10504418569403354    
  0.11594934438283226    0.14980100973974772    0.20667197681213736    0.2778108839556767    0.3401719125966871    
  0.3652798844507529    0.34017194807858603    0.34017152799001965    0.29662435448334173    0.23102403270816016    
  0.16926455496953885    0.12624786109690425    0.10530922245318063    0.1053089774405288    0.12624793962680583    
  0.16926444163475493    0.23102299212775923    0.2966256852258391    0.34017194807858603    0.27781085045545373    
  0.2966244331239205    0.27781246261190495    0.23102270550083795    0.17690903959295293    0.13269705018680597    
  0.10583356319150075    0.0970557508746188    0.10583349550823606    0.13269730595076143    0.17690950286373563    
  0.2310229555406158    0.27781085045545373    0.20667197727901773    0.23102401092860433    0.23102268437651813    
  0.20667221089349405    0.16926459386960607    0.1326974816277713    0.10609303421623614    0.0926260760001945    
  0.09262681030916342    0.10609229975021302    0.1326973524407475    0.16926444421876402    0.20667197727901773    
  0.14980101980730637    0.1692645747347215    0.17690900805757648    0.16926460411062721    0.1498006784540849    
  0.1262482047959039    0.10583282653652198    0.09262694921472943    0.08810817162698821    0.09262683489562462    
  0.10583354941194242    0.12624794044024967    0.14980101980730637    0.11594932761878332    0.12624784897430893    
  0.13269707184077645    0.13269746266670834    0.12624820497601275    0.11594903665484227    0.10530981767563707    
  0.09705530202122037    0.0926269036907386    0.09262608761550499    0.09705575928630598    0.10530898614738413    
  0.11594932761878332    0.10504419558460996    0.10530922720458949    0.10583355305232837    0.10609302223358247    
  0.10583279983784186    0.10530981110731222    0.1050431735314312    0.10530980427380852    0.10583282545513091    