#     DFTpy    
  CRYSTAL 
    
  PRIMVEC    
  5.093233365929505    2.1308201009251036e-05    -5.342358620689655e-13    
  -2.546598229520297    4.41088026394894    -1.0452586206896552e-11    
  -8.784855172413794e-13    -2.035274068965517e-11    8.37406703085214    
  PRIMCOORD    
  4    1    
  Si    1.2679015962678355e-05    2.9405937370351416    4.70935615018657    
  Si    2.5466224573872775    1.470307835078728    0.522322572924435    
  Si    1.2679017876173798e-05    2.940593737033928    7.85174439608754    
  Si    2.5466224573955425    1.4703078351113952    3.664710942483764    
  BEGIN_BLOCK_DATAGRID_3D    
  3d_datagrid_density    
  BEGIN_DATAGRID_3D#0    
  23    23    37    
  0.0    0.0    0.0    
  5.093233365929505    2.1308201009251036e-05    -5.342358620689655e-13    
  -2.546598229520297    4.41088026394894    -1.0452586206896552e-11    
  -8.784855172413794e-13    -2.035274068965517e-11    8.37406703085214    
  0.013828578867874454    0.014250612748046251    0.015619191395488567    0.01832920882664004    0.023101855950299444    
  0.030976861188363014    0.04332360505247513    0.06136018894712471    0.08485058838042525    0.11032749807469802    
  0.13080000883652546    0.1387358122971294    0.1308000182371675    0.11032747526525744    0.08485057299559787    
  0.06136018136517814    0.04332360562790525    0.030976874516637002    0.023101861900876458    0.0183292105734181    
  0.015619192810230425    0.014250610454721948    0.013828578867874454    0.014250614472030845    0.014250719124824432    
  0.015148586826155518    0.017212583430579586    0.021052751944672914    0.027661137753692763    0.03850273789383299    
  0.05527158276797984    0.07880527749357348    0.10726581657497479    0.1345301965924996    0.15161095821077825    
  0.15161303436295467    0.13452894575919186    0.10725719651210341    0.07881414527549284    0.05527500200763497    
  0.03849989414236393    0.02766107827012578    0.021052922428179938    0.01721279006765209    0.015148603917978537    
  0.014250614472030845    0.015619195215768322    0.015148587579187639    0.015619139940276945    0.017212927611139864    
  0.020480887865951265    0.026465721548914606    0.03693063485715869    0.054390050310677354    0.08118989860142413    
  0.11723662818809517    0.1571252306209819    0.1894256018764425    0.2019195829294794    0.18942794538360833    
  0.15714112023167381    0.11723702099506614    0.08118076415318817    0.054392658654097654    0.03693396978019163    
  0.026466058532510037    0.02048065022253514    0.017212790943117628    0.015619195215768322    0.01832921156319926    
  0.01721257849515422    0.017212924788548474    0.018328798311733473    0.02105294338455331    0.02646528346122934    
  0.03664351014843176    0.05495648009331055    0.0856894672952384    0.13174914605545163    0.18940851616126328    
  0.24435461336827302    0.2775441228844816    0.27753853567004005    0.24434133652962112    0.18941537140337067    
  0.1317573766364789    0.08569417419234292    0.05495684200827015    0.03664100384824679    0.02646605179461336    
  0.02105291711037344    0.01832921156319926    0.02310185522592094    0.021052752439867872    0.02048088896346186    
  0.02105294212433518    0.023102129361919785    0.027661433356152516    0.03693144496086832    0.05495551150654643    
  0.08781597016912694    0.14204572718439554    0.21742344766509633    0.29631003381770377    0.3505810294523559    
  0.3681108091222545    0.35060503373583257    0.2963064842301091    0.21741652973196066    0.14205533975362725    
  0.0878131015329038    0.054956836665352636    0.03693395944821177    0.02766107002023102    0.02310185522592094    
  0.030976864281455154    0.027661138262151715    0.02646573031556184    0.026465278114694804    0.027661434025026823    
  0.030976131325732213    0.038503441635517194    0.054391033352357794    0.08569111353288277    0.14205202122119595    
  0.22847497697357871    0.3255523743804811    0.38850008495190186    0.4044236972856316    0.40441138530499404    
  0.3885137497278313    0.32558068929081674    0.22846650959817696    0.14205530400436864    0.08569419436366718    
  0.0543926479814573    0.038499892436102544    0.030976864281455154    0.043323597736006275    0.03850273063139167    
  0.036930615653250544    0.03664348791229076    0.036931438112447305    0.03850342781506549    0.04332065049442829    
  0.0552761809695913    0.0811847978451456    0.1317571882469683    0.21741055051703148    0.3255773704019375    
  0.3961252396816315    0.3922314683286777    0.37488777350140984    0.3922246719761947    0.39613005583616384    
  0.3255807423095053    0.21741650616514951    0.1317573669242689    0.08118074615384013    0.05527499659380642    
  0.043323597736006275    0.061360182179992624    0.05527158078315176    0.05439005367408659    0.05495647748507544    
  0.05495550796286799    0.054391023031607484    0.05527619850217344    0.06136213944165526    0.07880865953461852    
  0.11724121208293908    0.18941113677659974    0.2963114413631979    0.3885140259623602    0.3922242139082373    
  0.3463311869750264    0.34634416506379095    0.39222471662012603    0.38851376170117696    0.29630648671970233    
  0.18941536977841752    0.11723700088350449    0.07881414089288814    0.061360182179992624    0.0848505723406767    
  0.07880525653529588    0.08118988254411579    0.08568945284624395    0.08781594961152366    0.0856910632412271    
  0.08118480631791228    0.07880864275538657    0.084857122614447    0.10725989301183227    0.1571426600779743    
  0.2443448712677785    0.3506061154656205    0.4043839327368468    0.37491578166760586    0.3463311827212371    
  0.3748877668549984    0.4044114125270161    0.35060503423646544    0.24434138991331572    0.1571411511726602    
  0.10725721253317712    0.0848505723406767    0.11032750353672441    0.10726583888653643    0.11723663382630156    
  0.13174915530718556    0.1420457450860034    0.1420519757782153    0.13175718992477667    0.11724120567865243    
  0.10725991684428805    0.11033594601092755    0.13453022794174846    0.189436966105541    0.2775430185330687    
  0.36813347652193873    0.4043839719807685    0.39222420912999845    0.3922314276953396    0.4044237174718345    
  0.36811083864519234    0.27753857465164405    0.1894279759044388    0.13452895860665173    0.11032750353672441    
  0.13080005339498219    0.13453018934283084    0.1571252182317366    0.18940846290471292    0.21742342433707096    
  0.22847496580243082    0.21741059872021595    0.18941113175041455    0.15714261959700132    0.13453022140812612    
  0.13080509885262168    0.1516163214604513    0.20192430700092168    0.2775429580223751    0.3506061341134127    
  0.38851406629450413    0.39612531832184544    0.38850009829473214    0.35058105680143176    0.277544172610653    
  0.20191955952154267    0.15161304986605575    0.13080005339498219    0.1387358617540594    0.1516109685347186    
  0.18942559020619465    0.24435461439568731    0.29630992525464667    0.3255523320060127    0.32557732218922236    
  0.29631141132412586    0.24434481618622816    0.18943698957789407    0.15161628363110352    0.13874447123275915    
  0.15161628910003677    0.18943697419806257    0.24434486316432927    0.29631145485644583    0.32557730044518923    
  0.3255523585266014    0.296309992907128    0.24435461584108972    0.18942559521552302    0.15161096132276872    
  0.1387358617540594    0.13080003767030932    0.15161303921549102    0.20191953790606135    0.2775441010803303    
  0.35058099013402305    0.3885000541081553    0.3961252843298857    0.38851405371183617    0.35060613083412284    
  0.27754298305903774    0.20192434748205554    0.15161631759214844    0.13080508084372544    0.1345302355183609    
  0.15714265332704616    0.1894111364456172    0.21741059970407492    0.22847497667186537    0.21742347564567124    
  0.18940852096799943    0.15712522308786114    0.13453019043568662    0.13080003767030932    0.1103275284661555    
  0.13452893414278322    0.18942796120487534    0.2775385759929472    0.36811083593028565    0.40442368264453704    
  0.39223152359925223    0.39222422939064094    0.4043840191001622    0.368133461481752    0.27754294947460606    
  0.18943698170518292    0.13453023182568558    0.11033595529208949    0.10725988928453616    0.1172412288064432    
  0.13175718257162555    0.14205199545812763    0.14204574196039826    0.13174917163234    0.11723660286691232    
  0.1072658370036814    0.1103275284661555    0.08485058760986339    0.10725720016638488    0.15714116390065952    
  0.2443413622199445    0.3506049767746163    0.4044114008200705    0.374887855321385    0.3463312230506929    
  0.3749158785707435    0.4043839083166766    0.3506061440872222    0.2443448210877132    0.15714266142010289    
  0.10725987526501475    0.08485710830569895    0.07880863287831194    0.0811847894965633    0.08569108119360856    
  0.08781596647353514    0.08568946271859446    0.08118987058974442    0.07880527179338777    0.08485058760986339    
  0.061360189360882604    0.07881412192648958    0.11723700142103109    0.18941535157837863    0.2963064192110935    
  0.38851371824214487    0.3922247199876547    0.3463441981804148    0.34633124759643746    0.3922241801522076    
  0.3885140046026447    0.29631146133156344    0.18941111256744042    0.11724116817384367    0.07880863402548231    
  0.06136213453199643    0.05527618534621572    0.054391024502410915    0.05495551656364112    0.05495649609804966    
  0.05439004485819969    0.05527157921185127    0.061360189360882604    0.04332359136427942    0.055274992143635765    
  0.0811807467662028    0.13175733721242688    0.2174164917213975    0.3255806882500568    0.3961301578009642    
  0.3922247225705495    0.3748878113711178    0.3922314428516071    0.3961252804044154    0.325577332460179    
  0.21741060192223927    0.13175720564055196    0.08118479345918438    0.055276184570210066    0.04332064605601294    
  0.03850343958633936    0.03693144190591086    0.03664349704041846    0.03693062141452035    0.0385027417239288    
  0.04332359136427942    0.03097686514349073    0.03849988777510838    0.05439264639547851    0.08569417267205977    
  0.1420553118119017    0.22846644873764038    0.3255807133135845    0.3885137151215225    0.40441143377795336    
  0.4044237403614914    0.3885000271207437    0.3255523155567719    0.2284749533275068    0.14205203010320563    
  0.08569107766097432    0.054391033220660696    0.03850343171351572    0.03097613871335909    0.027661435430128143    
  0.02646529513568894    0.026465730192751467    0.027661136885156742    0.03097686514349073    0.02310185501520762    
  0.027661069156235795    0.03693396787743427    0.05495682588885536    0.08781307059601177    0.1420552999078611    
  0.21741649173444597    0.2963064568712706    0.35060505152625404    0.3681107591144491    0.35058104667819623    
  0.2963099443698573    0.21742348072747167    0.14204575997931462    0.08781594753434022    0.054955498276531574    
  0.03693143426259711    0.027661445470410075    0.02310213184863443    0.021052944157862123    0.020480878245272727    
  0.021052755160422366    0.02310185501520762    0.018329211984166014    0.02105291368534544    0.02646605053901544    
  0.036640980862254015    0.05495683779098502    0.08569417099939207    0.13175735858104493    0.18941537262891295    
  0.24434137728079178    0.27753853412622126    0.2775441610246037    0.24435457076095962    0.18940846683500798    
  0.13174915792152206    0.08568946287352458    0.05495649257768018    0.03664350333519443    0.02646528280626285    
  0.021052949325400645    0.018328806171132438    0.01721292381084531    0.01721257366645458    0.018329211984166014    
  0.015619194024093617    0.01721279215977168    0.020480650002487288    0.02646605218907646    0.036933974260283935    
  0.05439264402210352    0.08118076713098511    0.11723700549978443    0.15714116813774726    0.18942795722147474    
  0.2019195691468217    0.18942557836980178    0.1571252330893381    0.11723661756145168    0.08118987985079085    
  0.054390053861260036    0.036930629443174476    0.026465726807827234    0.020480885724986967    0.017212920953480454    
  0.015619139353351151    0.015148588250784939    0.015619194024093617    0.014250617730049672    0.0151486061565177    
  0.01721279393735365    0.021052915627892344    0.027661070481789965    0.03849988415732268    0.055275009960988435    
  0.07881412285182249    0.10725721056387799    0.13452896108421192    0.15161303418010832    0.1516109699361045    
  0.1345301528124644    0.10726583127013949    0.07880527106742648    0.05527158622760865    0.03850273234392448    
  0.02766113815753843    0.021052758572779388    0.017212587536034312    0.015148586911738189    0.014250720481437561    
  0.014250617730049672    0.013828578867874454    0.014250612748046251    0.015619191395488567    0.01832920882664004    
  0.023101855950299444    0.030976861188363014    0.04332360505247513    0.06136018894712471    0.08485058838042525    
  0.11032749807469802    0.13080000883652546    0.1387358122971294    0.1308000182371675    0.11032747526525744    
  0.08485057299559787    0.06136018136517814    0.04332360562790525    0.030976874516637002    0.023101861900876458    
  0.0183292105734181    0.015619192810230425    0.014250610454721948    0.013828578867874454    0.013651845204862012    
  0.014066316454518215    0.015412235631539716    0.018069866345022518    0.022730514676751974    0.030395724311103548    
  0.04237690459099036    0.05980254364597362    0.0823979381827981    0.1068351098914103    0.12641914142899813    
  0.13399621259985306    0.12641179040233932    0.10683333444186183    0.08241584943290749    0.059799640186260945    
  0.04236783795815054    0.030398442745612386    0.022730962000922842    0.01807030830787935    0.015412122836318836    
  0.014066380134678997    0.013651845204862012    0.014066385011821317    0.014066532210060488    0.015004793344722977    
  0.017176649802493147    0.0212268036388534    0.028245097596837566    0.039886271936738084    0.058082782657345955    
  0.08383156026680319    0.11512406601658288    0.14520953954109092    0.1640865154485821    0.16409691923185354    
  0.14521260577061992    0.11510238254295888    0.08383742369743653    0.05809641991043703    0.03988340732812079    
  0.028244786746528597    0.021226539872160465    0.017176853181186252    0.015004928714925505    0.014066385011821317    
  0.015412126350560345    0.0148937963524726    0.015412044122414216    0.01717703991349114    0.02081467055539434    
  0.0275532403047265    0.039547653536125445    0.059915031425827686    0.09170887755867653    0.13504047319308943    
  0.1831785461205922    0.22199689686737706    0.2369047025635308    0.22199540132319565    0.18321546993939572    
  0.1350371787725218    0.09169446773943292    0.059920083384312255    0.03954932814371986    0.027553993974731506    
  0.02081487846396943    0.017176850795180606    0.015412126350560345    0.018070309377717166    0.016775979359431627    
  0.016776737599281166    0.01806935905878743    0.021227259945893077    0.02755286792514457    0.039656603174793595    
  0.06188578502679989    0.09997286475228935    0.1578512049230753    0.22984960776150723    0.2957642327004901    
  0.3330991845409925    0.3330868935280337    0.2957215439277367    0.22986251391947868    0.1578790890447581    
  0.09996802959801467    0.06188717550701628    0.039656058242512254    0.027553996742695302    0.02122653512267553    
  0.018070309377717166    0.022730951520508726    0.02024464998605578    0.01954392855361694    0.020244832942748606    
  0.022731018047126943    0.028244602135486116    0.03954944932007585    0.061885325304983765    0.10347637025428674    
  0.17303916959279525    0.26744236575923314    0.35498515805908815    0.398910425504556    0.40722015646781246    
  0.3989750372811893    0.3549787826097657    0.2674087927106275    0.1730561307128135    0.10347954874726999    
  0.06188715786051746    0.039549320818923636    0.0282447832717363    0.022730951520508726    0.03039843854919463    
  0.026122255353075604    0.02451832015901688    0.024515339973895503    0.026125400369083944    0.03039497236361441    
  0.0398875031796392    0.05991394957377407    0.09997541242130278    0.1730430613111866    0.2815405637049248    
  0.38066672324233425    0.3985978782908154    0.36355191498112244    0.36352015074558197    0.39860404716754205    
  0.38074248957423124    0.28151103990484233    0.17305611405109528    0.09996803292117873    0.05992007700432198    
  0.03988340709601127    0.03039843854919463    0.042367835754803886    0.03558547688033985    0.03296000791362514    
  0.03233845458938315    0.03296022025721616    0.03558586375212392    0.042367820968626284    0.05809701872314052    
  0.09169335762848929    0.15788039394154277    0.26740064205790776    0.38072990354760267    0.3839296665548796    
  0.28451965380162525    0.23227550241386313    0.2845141589052195    0.38391753865613265    0.3807425313182941    
  0.26740879702525105    0.15787908269385403    0.09169445540098925    0.058096428027528464    0.042367835754803886    
  0.059799642148783236    0.04991942660560179    0.04664461244391867    0.04594662427089442    0.045945379011994594    
  0.04664649133872166    0.049919377844341674    0.059802387632451104    0.08383586663663369    0.13504084881430883    
  0.22985230653064198    0.35499012758708687    0.3986161267833309    0.2844968610906444    0.17433040717137527    
  0.17435543691002328    0.28451416421848147    0.3986040778752207    0.3549788507895484    0.22986250046338583    
  0.13503716983336883    0.0838374254652859    0.059799642148783236    0.08241584990313525    0.0696966907787463    
  0.06707933011073806    0.06806314171331473    0.0688960993235627    0.06806427755113305    0.06707873575590922    
  0.06969920072592957    0.08241647352550441    0.11510812793388896    0.18321579050785755    0.29573158035412067    
  0.39896372111103773    0.36347281588026376    0.23233409148832151    0.17433042436917937    0.23227556362200244    
  0.3635201364295817    0.3989750924686194    0.29572164287119235    0.183215488723259    0.11510240798127615    
  0.08241584990313525    0.10683334440960973    0.09333198399583457    0.0939138984629009    0.10033064840871689    
  0.10570796160356609    0.10571725851087622    0.10032589051108379    0.0939232716692493    0.09332693000769592    
  0.1068437684914673    0.14520684020109145    0.22201142591486944    0.3330944338657846    0.40726506594004236    
  0.36347285201593776    0.28449691621454054    0.2845196791090585    0.3635519223760479    0.4072202114839508    
  0.33308693517209564    0.22199541535775152    0.1452126346579893    0.10683334440960973    0.12641183024276353    
  0.11574331853591295    0.12317982789762011    0.14021432916229137    0.1567180471332756    0.16355204671300477    
  0.15671769547384048    0.1402158145469942    0.12318685653883327    0.11574568599521942    0.12641844307447964    
  0.16410071255631653    0.23690225674508414    0.33309442728699956    0.39896374869786244    0.3986162240178043    
  0.383929773372362    0.3985978433171859    0.3989104692277521    0.33309915325073874    0.2369046936770952    
  0.16409693550704374    0.12641183024276353    0.1339962330431668    0.12969696315130103    0.14674114775028807    
  0.17866482639637504    0.21309716853036592    0.2351796304821023    0.2351870344819428    0.21309692058243165    
  0.17866738340573535    0.14674494190783974    0.12970142787036704    0.1340014330155761    0.16410070852031994    
  0.22201146178808925    0.2957315304966623    0.3549901352404212    0.3807298903197865    0.38066672415049513    
  0.3549851827500679    0.2957642357042053    0.22199689924548158    0.16408650145064685    0.1339962330431668    
  0.12641915257472341    0.12969618845087624    0.15585560362743422    0.2025717295943378    0.25732736600297057    
  0.29931228452344594    0.3143779071724917    0.29931976213840716    0.257332862849414    0.2025767456233326    
  0.15585976013128572    0.1297014686322911    0.126418432584108    0.14520686356664791    0.18321577060009392    
  0.2298523047228539    0.2674006764105774    0.28154056736777044    0.2674424153816049    0.22984959202601965    
  0.1831785472223967    0.14520953493043684    0.12641915257472341    0.10683509280745292    0.11573718250372768    
  0.1467429448358982    0.2025709822192243    0.27384211968069644    0.33448345584648875    0.3640452632767001    
  0.36404346613764726    0.3344794331426189    0.2738451779679778    0.20257672373246854    0.14674491510890336    
  0.11574569486228725    0.10684376040562725    0.11510811511989669    0.13504088697362615    0.15788036943652312    
  0.1730430511158945    0.1730391741751271    0.15785123241435464    0.13504046541239242    0.11512407711084176    
  0.10683509280745292    0.08239793735065672    0.09332885120148109    0.12318759372443541    0.17866553455360273    
  0.2573301924314448    0.334485094439639    0.378239244766593    0.3887416906640792    0.378239186374337    
  0.3344793296512716    0.25733286562246255    0.17866733995205034    0.1231868753558311    0.09332690547462623    
  0.08241646111737387    0.08383583052930586    0.09169335469474571    0.09997537466869391    0.1034763721234854    
  0.09997285640396757    0.0917088529326256    0.08383154597467668    0.08239793735065672    0.059802549117012056    
  0.06971275105282125    0.09391765224488528    0.14021273217120647    0.2130968579526522    0.2993198781455166    
  0.36404323483587064    0.38873707611385355    0.38874174306082615    0.3640433714673071    0.2993197537921402    
  0.21309696679770188    0.14021580221011015    0.09392325975250589    0.06969918507646694    0.059802391933909495    
  0.058097016476005    0.059913938047399654    0.06188531974900554    0.061885790263996626    0.05991501427382969    
  0.058082776361092325    0.059802549117012056    0.042376898848134475    0.0499177048405873    0.06706480668472962    
  0.10032971087072133    0.15672324616155142    0.23518754843914377    0.31438392233627294    0.36404320432713344    
  0.3782392466653732    0.3640452304683182    0.3143779219421619    0.23518704215684944    0.1567176622059413    
  0.10032588460131489    0.06707874768033471    0.049919361282394575    0.04236781671282745    0.03988749194174263    
  0.03954944179385252    0.039656595858506484    0.039547625699057926    0.039886271667005355    0.042376898848134475    
  0.030395721617629875    0.03557728279400718    0.04664682019741375    0.06807788855074845    0.10571457961864643    
  0.1635484392580429    0.2351875800647356    0.2993198632318575    0.3344851894889506    0.33448349816388556    
  0.29931222246190564    0.23517966597269174    0.16355200455481722    0.10571730530011261    0.0680642723641044    
  0.046646507701449666    0.03558586259663645    0.030394981751317697    0.028244601776620568    0.027552880761303324    
  0.027553246107196287    0.028245098801610552    0.030395721617629875    0.02273051718237043    0.026123948321415326    
  0.032968308344108396    0.04594607351107018    0.06888363359419283    0.10571456686999893    0.1567232529467757    
  0.21309687144952694    0.25733028016412685    0.2738420782039645    0.2573273262365632    0.2130972059137476    
  0.15671808191305434    0.10570795810910436    0.06889610398733649    0.04594537881865757    0.03296021031363021    
  0.026125412258111352    0.022731014443604272    0.021227256676332844    0.020814660400769545    0.021226810594803063    
  0.02273051718237043    0.018069867144271733    0.020245049679478495    0.02451680034664139    0.03233078728078945    
  0.045946078017454366    0.06807789338260611    0.10032974413204587    0.14021273748215185    0.1786655200084266    
  0.20257094500121203    0.20257177381903874    0.1786648198859291    0.14021431657572997    0.10033065090994384    
  0.06806313109190823    0.04594662719399241    0.03233846760873882    0.024515343094743017    0.020244844226288975    
  0.018069366625263476    0.017177039950274725    0.017176640268658148    0.018069867144271733    0.01541223859372727    
  0.016776157685137915    0.019543808237795546    0.02451680322484112    0.03296831959157246    0.046646813139519475    
  0.06706481551813344    0.09391764950205397    0.12318761391561141    0.1467429062099068    0.15585559752857192    
  0.14674112114283494    0.12317979625547955    0.0939139152823032    0.06707933769954874    0.046644622920567994    
  0.03296000617335145    0.024518320156563852    0.019543924006737403    0.016776732374938846    0.015412039619409292    
  0.015004795515607829    0.01541223859372727    0.014066323175137542    0.014893898414758319    0.016776162107987765    
  0.020245050146736138    0.02612394554701341    0.035577277221651014    0.049917719522099835    0.06971275253730447    
  0.09332886208250646    0.11573718094389158    0.1296961931536717    0.12969696947699236    0.11574331616807434    
  0.09333198317989227    0.06969669967458132    0.049919435428161366    0.035585475808377655    0.026122259960403352    
  0.02024465147636964    0.016775983992144805    0.014893793325728134    0.014066531383706667    0.014066323175137542    
  0.013651845204862012    0.014066316454518215    0.015412235631539716    0.018069866345022518    0.022730514676751974    
  0.030395724311103548    0.04237690459099036    0.05980254364597362    0.0823979381827981    0.1068351098914103    
  0.12641914142899813    0.13399621259985306    0.12641179040233932    0.10683333444186183    0.08241584943290749    
  0.059799640186260945    0.04236783795815054    0.030398442745612386    0.022730962000922842    0.01807030830787935    
  0.015412122836318836    0.014066380134678997    0.013651845204862012    0.013146486412777226    0.013540418236294514    
  0.014821037203117487    0.017330499157833485    0.02167208543439484    0.0287349703594396    0.03966462971169904    
  0.055382643499404104    0.0755369936215851    0.09712703879283063    0.11431301690890963    0.12093838254277647    
  0.11430153833524123    0.09712266671734893    0.07556033161895315    0.05538072661972904    0.03965172613402915    
  0.028738540818272013    0.021673220851001283    0.017330955737480436    0.01482089011836002    0.01354058465204734    
  0.013146486412777226    0.01354059078292554    0.013540369466466945    0.014481143215379307    0.016655605172315586    
  0.02069050299197259    0.02766527359510529    0.03923182818504988    0.05732551029199798    0.08293891384177002    
  0.11403182568073086    0.1438492312666577    0.16250378873102087    0.16251851293307135    0.14385866748911394    
  0.11400515625498474    0.08294319331420562    0.057343840174416905    0.0392286910460995    0.02766455046747759    
  0.020690164416437257    0.01665608301556233    0.014480960670856037    0.01354059078292554    0.014820892335132096    
  0.014279054776678877    0.014821084121060958    0.016655788137412718    0.020427523602397323    0.02743555489857899    
  0.039977701375275156    0.061381434487652146    0.09498717107435536    0.14094422326700115    0.1918929821178477    
  0.23269568108685035    0.24825558140357049    0.23268772740856677    0.1919363135793106    0.14094354018059851    
  0.09496637337592333    0.06138900905694376    0.03997906808469314    0.027436948466012634    0.020427266401731946    
  0.016656081390986916    0.014820892335132096    0.01733095615833351    0.015943907412244968    0.015944335081465148    
  0.017330147034368536    0.020690784197330045    0.027435787445338988    0.040428794835462155    0.0644793069048937    
  0.10600853988081331    0.16931727040382533    0.2472009593599249    0.3160524598527817    0.3529727541531451    
  0.35296466262795523    0.31599940613965727    0.24721157266515628    0.16935715285686628    0.10600112686031324    
  0.064479936045843    0.0404288471036062    0.027436948259324127    0.02069016063043682    0.01733095615833351    
  0.021673214916582202    0.018957034844762743    0.01818541272242502    0.018957190050734454    0.021673422384066027    
  0.027663774147038873    0.039980134004608786    0.06447728753155958    0.11050083068151256    0.18765794060409147    
  0.2899101761629696    0.37543673369626884    0.40496336742737526    0.40445143385447646    0.40503205341997656    
  0.3754392874522063    0.2898589230544566    0.18767910222678796    0.1105054864692581    0.06447993619997745    
  0.039979059315613075    0.027664547134114734    0.021673214916582202    0.028738537719630225    0.023950943539744272    
  0.022112996686764697    0.022109182804975997    0.023954930665270345    0.028733947226842756    0.039234085796602924    
  0.06137966622676151    0.10601270921100785    0.18766134018112643    0.3053540030899258    0.3949872452660281    
  0.3740206281446181    0.30788511471315816    0.3078565467690486    0.374020374667362    0.39508566882521456    
  0.305312620223175    0.18767909923493684    0.1060011275875033    0.06138900531144718    0.03922869391593021    
  0.028738537719630225    0.03965172746328395    0.03179706886146943    0.0285433836169332    0.027707811385221506    
  0.028543258051748267    0.03179749288428724    0.039651828695141424    0.05734429807875773    0.09496576906705383    
  0.1693556009302355    0.28985347192696337    0.3950612405252944    0.34495767760715035    0.20297292040272577    
  0.14498433799305313    0.20297524878933054    0.34492979354614905    0.39508574621717824    0.28985892973346    
  0.16935715291722125    0.09496636092402665    0.057343848535789936    0.03965172746328395    0.05538073088948381    
  0.043346717656737845    0.03857997614556894    0.03703691951770293    0.03703653512193138    0.03858129366139526    
  0.043346100680795474    0.05538261764001691    0.08294221883773548    0.14094681422012845    0.24719897199419985    