#     DFTpy    
  CRYSTAL 
    
  PRIMVEC    
  1.2108715075796428    -2.0972909725654643    0.0    
  1.2108715075796428    2.0972909725654643    0.0    
  0.0    0.0    2.2792516431724135    
  PRIMCOORD    
  1    1    
  Si    0.0    0.0    0.0    
  BEGIN_BLOCK_DATAGRID_3D    
  3d_datagrid_density    
  BEGIN_DATAGRID_3D#0    
  11    11    11    
  0.0    0.0    0.0    
  1.2108715075796428    -2.0972909725654643    0.0    
  1.2108715075796428    2.0972909725654643    0.0    
  0.0    0.0    2.2792516431724135    
  0.0492617765178517    0.09533336094000333    0.26725270067208184    0.44183719624279855    0.4628999499861964    
  0.44596283966720773    0.462899958991901    0.441837090039255    0.2672526970189293    0.09533337349273475    
  0.0492617765178517    0.09533335721051901    0.09526078936541894    0.2099209765299217    0.39508734460024447    
  0.46401744760235203    0.4418436039761501    0.44189913231294053    0.4639827699861836    0.3949862954856897    
  0.20996526298149934    0.09533335721051901    0.26725268409520264    0.20992100382931897    0.2674535502241699    
  0.39497856262843756    0.45946417814570173    0.43648415377709127    0.4163287238662116    0.43645753514398306    
  0.45961839581619873    0.39498628916883577    0.26725268409520264    0.44183718135635475    0.3950873926148742    
  0.394978452265585    0.4417134078835834    0.46395826489597436    0.4366257481436401    0.4060098954597873    
  0.4060629179151704    0.43645754492873606    0.463982728593424    0.44183718135635475    0.46289996900583036    
  0.46401748927592235    0.45946412971170447    0.4639582873948204    0.46307527478877325    0.44188146058980515    
  0.41619788107760153    0.406009935968448    0.4163286814559117    0.44189911315070957    0.46289996900583036    
  0.4459628227684983    0.4418436098239736    0.4364842106812228    0.43662576820981913    0.4418813691694395    
  0.44577526586931443    0.44188140519187996    0.4366257199365982    0.4364842153264959    0.4418436574394912    
  0.4459628227684983    0.4628999450569736    0.441899086930186    0.4163286755451    0.40601003817366926    
  0.4161978565685962    0.4418814343057252    0.4630753109653923    0.4639581953887952    0.45946429721388227    
  0.46401747024043916    0.4628999450569736    0.44183716829895164    0.4639827396658839    0.43645756800537133    
  0.4060630087498389    0.40601003941055147    0.436625670064048    0.4639582610073841    0.4417133153835668    
  0.3949785605985526    0.395087281806118    0.44183716829895164    0.267252601351862    0.3949863558049574    
  0.4596182528945738    0.43645767165109006    0.4163287302209488    0.4364841757545762    0.45946424489291515    
  0.3949784749484096    0.2674535547283867    0.20992098509669296    0.267252601351862    0.0953333576024535    
  0.20996525452309373    0.39498623226438806    0.463982752347385    0.4418990759310318    0.441843659504519    
  0.4640174178460893    0.39508730261844227    0.20992097865532686    0.09526082004977203    0.0953333576024535    
  0.0492617765178517    0.09533336094000333    0.26725270067208184    0.44183719624279855    0.4628999499861964    
  0.44596283966720773    0.462899958991901    0.441837090039255    0.2672526970189293    0.09533337349273475    
  0.0492617765178517    0.0922656886330504    0.14710423748528986    0.3109547282128945    0.4395706720857877    
  0.43619251250651    0.4157120462902546    0.43619251085118144    0.4395705739097425    0.3109547669268266    
  0.1471042288628233    0.0922656886330504    0.14710420489335124    0.14699315941186672    0.26088667602676674    
  0.40954912134538485    0.4434534836488813    0.4126093186384445    0.4126628473047332    0.44341288723895006    
  0.4094881021888139    0.260899953705425    0.14710420489335124    0.3109547089516336    0.26088669998485065    
  0.3111609018572177    0.4094611097134493    0.44249546563087955    0.40878078875520674    0.38740719027631887    
  0.4087641023870929    0.44260231005743905    0.40948803669246714    0.3109547089516336    0.43957070521522706    
  0.40954918525689604    0.40946101798962936    0.43944583224036654    0.44340700094585317    0.4088838721572193    
  0.37748799516456905    0.37752540676766405    0.40876415311527964    0.44341285325929225    0.43957070521522706    
  0.43619255260141326    0.4434534029939257    0.4424954233755432    0.4434069983422245    0.43635068586949016    
  0.41264091982117806    0.38731434020462435    0.37748796352290903    0.38740713541263894    0.41266290028206615    
  0.43619255260141326    0.41571197635700835    0.412609276025633    0.40878083281328353    0.40888384879266504    
  0.4126408184390093    0.41554896200888025    0.4126409397803116    0.40888379803629404    0.40878084547833715    
  0.4126093694045099    0.41571197635700835    0.4361925063476527    0.4126628656270864    0.3874071079097019    
  0.37748802830096895    0.3873143546490227    0.41264092552716664    0.43635072590025936    0.44340691560294687    
  0.4424955918287831    0.44345349376668153    0.4361925063476527    0.43957064740179536    0.443412880316489    
  0.40876415921182047    0.37752547609197334    0.3774880468424043    0.40888383239502113    0.44340697862727263    
  0.4394456866278359    0.409461158121538    0.4095490943243042    0.43957064740179536    0.31095471305670497    
  0.4094880928931279    0.44260213732837067    0.40876420199432595    0.38740717755867304    0.408780784572675    
  0.4424955464984132    0.4094610178972278    0.3111609114992773    0.2608866664552352    0.31095471305670497    
  0.14710419202822922    0.26089994153678703    0.40948796954346917    0.44341292230269286    0.41266286781187395    
  0.41260931088690295    0.44345337134005325    0.4095490707375449    0.2608867186077844    0.14699323214145799    
  0.14710419202822922    0.0922656886330504    0.14710423748528986    0.3109547282128945    0.4395706720857877    
  0.43619251250651    0.4157120462902546    0.43619251085118144    0.4395705739097425    0.3109547669268266    
  0.1471042288628233    0.0922656886330504    0.2663553433058388    0.31508240815565514    0.40395565401602074    
  0.41813910006018407    0.3698780711887361    0.3441045998845412    0.3698781098296944    0.4181390748614511    
  0.4039557270290026    0.3150823478648561    0.2663553433058388    0.3150823404938702    0.31497447338951157    
  0.38346842065620046    0.4236489736779625    0.38735897397760405    0.3428215982628867    0.34284840893438956    
  0.3873355168576415    0.42363612211896123    0.3834534223106641    0.3150823404938702    0.40395562775432486    
  0.3834685198971581    0.4040794897126207    0.42360997862782934    0.39259255850135866    0.34149790901379085    
  0.3192945084125821    0.34149358585067535    0.39262518248577216    0.42363603399781335    0.40395562775432486    
  0.41813916005318086    0.42364904498754313    0.4236098894785654    0.41807335002714463    0.38734303799507525    
  0.34152989426166885    0.31056222487333757    0.31057172179813947    0.34149361191282873    0.38733552325832526    
  0.41813916005318086    0.36987808498406216    0.38735894847203256    0.3925925324795514    0.38734304691677535    
  0.36994781882517297    0.34283674268782083    0.31926399509866227    0.31056218405036773    0.3192944989400752    
  0.3428484108789626    0.36987808498406216    0.3441045211831642    0.34282158200028734    0.341497931750679    
  0.34152989782867654    0.3428367141778156    0.34403180312399495    0.3428367665840707    0.34152986581339945    
  0.3414979976831299    0.3428216415378532    0.3441045211831642    0.3698780599857387    0.342848379237857    
  0.3192944623486901    0.31056225570073775    0.3192640072220831    0.3428367484766843    0.36994778468205497    
  0.3873430146113718    0.39259268915173384    0.38735896714300194    0.3698780599857387    0.41813908041017367    
  0.3873355364697191    0.3414936056726714    0.3105718144043781    0.3105622434342378    0.34152987388324424    
  0.3873430312789477    0.41807323131533586    0.4236100110386831    0.4236489547728209    0.41813908041017367    
  0.4039556158815169    0.4236361663196269    0.3926250139140396    0.34149373002611627    0.31929452934114316    
  0.3414978805732332    0.3925925834180146    0.4236099276979874    0.4040794420469611    0.38346843728961694    
  0.4039556158815169    0.3150823360509718    0.3834534107746991    0.4236360327252544    0.3873355614024671    
  0.34284838682447005    0.3428216093817644    0.38735892060763877    0.423648966971667    0.38346845056820444    
  0.3149745981528618    0.3150823360509718    0.2663553433058388    0.31508240815565514    0.40395565401602074    
  0.41813910006018407    0.3698780711887361    0.3441045998845412    0.3698781098296944    0.4181390748614511    
  0.4039557270290026    0.3150823478648561    0.2663553433058388    0.5010309378703984    0.49570106044245127    
  0.45419201999028747    0.37056645220355144    0.2963250212165578    0.2690743707809407    0.2963250457709557    
  0.3705663716246231    0.45419207999321354    0.49570101556627166    0.5010309378703984    0.49570098075388225    
  0.4956729427512761    0.4704825719043728    0.40138461710708073    0.31879812760686954    0.268913692813251    
  0.2689170522019787    0.3187951939936811    0.4013847236466382    0.4704741610250248    0.49570098075388225    
  0.45419203674198944    0.47048272965326604    0.4542160087967758    0.4013770837764768    0.32733816266143356    
  0.2688864701618093    0.24792665550007356    0.2688861239617577    0.32733908374436277    0.40138460981007756    
  0.45419203674198944    0.3705664879987381    0.40138468752151646    0.40137701393913283    0.3705570632938262    
  0.31879708262451345    0.26888890576885516    0.24040558185375874    0.2404066913022487    0.2688861507532829    
  0.3187951856895507    0.3705664879987381    0.29632501352693774    0.31879812027984783    0.32733810230137267    
  0.3187970927871764    0.29633462259048293    0.26891546385965454    0.24792412235743305    0.24040558033254697    
  0.24792665286058463    0.2689170372579077    0.29632501352693774    0.26907433017835913    0.26891365907033044    
  0.2688864836695233    0.26888889289321    0.2689154640756688    0.269063850279685    0.2689155110136062    
  0.2688888687408928    0.26888651922859863    0.26891374095878645    0.26907433017835913    0.2963250109684265    
  0.268917021740199    0.24792661154404338    0.2404056318022362    0.24792411570797077    0.26891550484250815    
  0.29633463407967653    0.3187970411464339    0.32733826439294106    0.31879814010354973    0.2963250109684265    
  0.3705664393664549    0.31879519340131945    0.26888613535059375    0.24040675265988562    0.24040560802313338    
  0.2688888688501529    0.31879706667898444    0.37055695267545447    0.40137714917634343    0.4013845842751699    
  0.3705664393664549    0.45419199020421214    0.4013847550733532    0.327338979589383    0.26888622510429655    
  0.24792663872027204    0.26888642431970877    0.32733818427727995    0.4013770302970224    0.4542159504564774    
  0.47048263898786535    0.45419199020421214    0.4957009509866889    0.47047417730337093    0.40138465158072617    
  0.318795189377369    0.2689170263050201    0.2689136985235791    0.3187980605855414    0.40138462654800533    
  0.47048264812443114    0.49567310109170926    0.4957009509866889    0.5010309378703984    0.49570106044245127    
  0.45419201999028747    0.37056645220355144    0.2963250212165578    0.2690743707809407    0.2963250457709557    
  0.3705663716246231    0.45419207999321354    0.49570101556627166    0.5010309378703984    0.597535912596637    
  0.5518817370966884    0.4413612241954579    0.32322959149470176    0.24394189230144275    0.21772570712621306    
  0.24394190333650267    0.32322953658362585    0.44136126132058384    0.5518817301424601    0.597535912596637    
  0.5518817220024583    0.5518760954340669    0.4741632359469325    0.36178540328744063    0.26714575819097774    
  0.21816891377414183    0.21816888323131134    0.2671462949803249    0.36178469391200513    0.47416242801596914    
  0.5518817220024583    0.441361214431575    0.47416324235796664    0.4413664240301354    0.3617846854162874    
  0.2765479855088446    0.2187404448849842    0.19934933689083892    0.2187397979658016    0.2765481418807396    
  0.36178467929506414    0.441361214431575    0.32322960819018914    0.36178547208157064    0.3617845798179936    
  0.3232268495179397    0.2671448536114969    0.2187413853371231    0.1925290166548848    0.1925302571173019    
  0.2187398024671209    0.26714628624297876    0.32322960819018914    0.2439419161184233    0.26714573250506846    
  0.2765479618216729    0.2671448323275353    0.24394642737171643    0.21816916768852804    0.19934870260424983    
  0.192528975999825    0.19934930070939189    0.21816890434599795    0.2439419161184233    0.21772564751638257    
  0.21816892845726324    0.21874049012971425    0.21874137570783114    0.2181691094314841    0.2177212488675712    
  0.21816917794977572    0.2187413463970939    0.2187404957579675    0.2181689668941179    0.21772564751638257    
  0.24394191438139182    0.218168863526419    0.19934928536761407    0.1925290325192919    0.19934867655561084    
  0.2181691965824989    0.2439464372335609    0.26714478709984324    0.27654810576955696    0.26714579206931915    
  0.24394191438139182    0.32322959375851623    0.2671462873214722    0.21873984869320198    0.1925302717984578    
  0.19252903782522973    0.21874135582928272    0.2671448566049739    0.32322670342148113    0.36178474414765577    
  0.3617854223857814    0.32322959375851623    0.4413612222617875    0.3617846802308509    0.27654799687378356    
  0.21873985314933728    0.1993493350195773    0.2187404309111624    0.2765480404453954    0.36178461219208075    
  0.44136646319991824    0.47416318770470867    0.4413612222617875    0.551881654900269    0.47416242846920464    
  0.36178459908974664    0.26714631514324355    0.2181688796001963    0.21816894197030604    0.2671457088170764    
  0.36178536745465417    0.47416325343806803    0.5518762214557539    0.551881654900269    0.597535912596637    
  0.5518817370966884    0.4413612241954579    0.32322959149470176    0.24394189230144275    0.21772570712621306    
  0.24394190333650267    0.32322953658362585    0.44136126132058384    0.5518817301424601    0.597535912596637    
  0.6036391104826024    0.5493075150016723    0.4263937105233474    0.3041892908380431    0.2255602869624514    
  0.2000728538105715    0.22556030856843431    0.3041892059643723    0.4263936789666039    0.5493075847890033    
  0.6036391104826024    0.5493075095322152    0.5492967997584338    0.4618523026534184    0.3435009183479212    
  0.2486056217102135    0.20076815538153878    0.20076717714448253    0.24860638022804007    0.34350142424495517    
  0.4618490161931445    0.5493075095322152    0.4263936931663096    0.46185234289932514    0.42640053400026756    
  0.34350000336774184    0.2581398298214514    0.20159045557992245    0.18284506988376686    0.20159100896376334    
  0.25813831991901476    0.3435014235631574    0.4263936931663096    0.30418929180873344    0.3435010053255647    
  0.3434999077034828    0.3041864091072663    0.24860338630843512    0.201594689246729    0.17625493220594723    
  0.17625820871539924    0.20159103494696748    0.24860633617050715    0.30418929180873344    0.22556031028096005    
  0.24860564359117585    0.25813980861302926    0.2486034106460991    0.22556771086682953    0.2007653429488097    
  0.18284548239059648    0.17625494912272463    0.1828450357057421    0.200767180280986    0.22556031028096005    
  0.20007284260657543    0.2007681740440322    0.201590507791884    0.20159471789945865    0.20076527438834152    
  0.20007099879209703    0.20076531288207852    0.2015946886366327    0.20159050570436304    0.20076818734857702    
  0.20007284260657543    0.22556029763141883    0.20076713163937351    0.18284504403417665    0.17625500575725656    
  0.18284547379579752    0.20076532765391883    0.2255677352704566    0.2486033514061464    0.25813990967715583    
  0.24860566160018924    0.22556029763141883    0.30418929379352816    0.24860636200729452    0.2015910421353107    
  0.17625826743060174    0.17625500984011794    0.2015946461103117    0.24860340234148065    0.3041863233315244    
  0.34350001735186103    0.3435009164481213    0.30418929379352816    0.42639358706020153    0.34350148339908737    
  0.25813820900903184    0.2015911045028014    0.18284505781096444    0.2015904750997038    0.25813988297178286    
  0.34349993237132437    0.42640055845850156    0.4618523361467889    0.42639358706020153    0.5493074906879032    
  0.4618489898060008    0.3435013755738073    0.24860635374833606    0.200767143128593    0.20076818328320098    
  0.2486056018947084    0.34350091795584325    0.46185234703756023    0.5492969463077363    0.5493074906879032    
  0.6036391104826024    0.5493075150016723    0.4263937105233474    0.3041892908380431    0.2255602869624514    
  0.2000728538105715    0.22556030856843431    0.3041892059643723    0.4263936789666039    0.5493075847890033    
  0.6036391104826024    0.5975359025688693    0.5518817516393488    0.4413612351882936    0.32322959239341786    
  0.2439419021822035    0.21772571002449492    0.24394191246033403    0.32322952531891797    0.44136126677767407    
  0.551881739647777    0.5975359025688693    0.5518817047168839    0.5518760942482018    0.47416318002402674    
  0.3617853996500881    0.2671457759214913    0.2181689281405822    0.21816888191331316    0.26714629617256946    
  0.36178468174900996    0.4741624346488342    0.5518817047168839    0.4413612178238903    0.47416319683809166    
  0.44136641879562466    0.36178467772304956    0.2765479890649889    0.21874042816068515    0.19934934614368224    
  0.21873979207728408    0.2765481546172287    0.36178464068503086    0.4413612178238903    0.32322963400602317    
  0.3617854736747176    0.3617845860556711    0.3232268625755351    0.2671448545981905    0.2187413852156815    
  0.1925290115534656    0.19253024888741652    0.21873983981298    0.2671462772784009    0.32322963400602317    
  0.2439419178636958    0.26714573785302115    0.2765479663920848    0.2671448427161349    0.2439464201638421    
  0.21816916529916913    0.1993486948172229    0.1925289855973526    0.19934930740799356    0.2181689212801185    
  0.2439419178636958    0.21772565287656945    0.21816891283934797    0.21874048173381325    0.21874137418066525    
  0.21816908829449214    0.21772124054469152    0.21816918329497453    0.2187413395373592    0.21874047314007378    
  0.21816896988451862    0.21772565287656945    0.2439419027101598    0.21816887901448037    0.19934928664113993    
  0.19252902446946954    0.19934870255737458    0.21816917108721004    0.2439464512597224    0.2671447842208646    
  0.2765480803754766    0.2671458005528494    0.2439419027101598    0.3232295919462526    0.26714627746838204    
  0.2187398366117972    0.1925302908257074    0.1925290395416309    0.21874136315491832    0.26714484847668324    
  0.3232267390064943    0.36178472566600267    0.3617854042019451    0.3232295919462526    0.441361219562926    
  0.36178467880685655    0.27654803005925593    0.2187398573530525    0.1993493337043671    0.2187404286931577    
  0.27654806150546385    0.36178460913194077    0.4413664484211978    0.4741631903707766    0.441361219562926    
  0.5518816551411699    0.4741624201762936    0.36178458740741054    0.26714632647244724    0.21816888024181832    
  0.2181689292250051    0.26714569555820805    0.3617853799589721    0.47416325957828587    0.5518762273719315    
  0.5518816551411699    0.5975359025688693    0.5518817516393488    0.4413612351882936    0.32322959239341786    
  0.2439419021822035    0.21772571002449492    0.24394191246033403    0.32322952531891797    0.44136126677767407    
  0.551881739647777    0.5975359025688693    0.5010309344772654    0.49570104815543    0.4541920177595528    
  0.37056644073162326    0.2963250007588374    0.26907440056679727    0.2963250238116444    0.37056641047806715    
  0.45419209810059324    0.4957010208226101    0.5010309344772654    0.4957009904518385    0.4956729606023168    
  0.4704825931983392    0.4013846000399841    0.31879812796274754    0.26891368412539124    0.2689170411759837    
  0.31879517508253336    0.40138473863051843    0.4704741533625647    0.4957009904518385    0.45419199669765625    
  0.4704827268356522    0.4542159643122804    0.4013771092499711    0.3273381428191104    0.26888644520537003    
  0.247926649508283    0.26888612188105515    0.32733909454203    0.4013846494582397    0.45419199669765625    
  0.3705664971032501    0.4013846853987577    0.4013770280762284    0.3705570244278685    0.31879706842155886    
  0.26888888381515336    0.24040560004636918    0.24040668630678277    0.26888615707031105    0.318795191506328    
  0.3705664971032501    0.296325001519574    0.318798118495775    0.3273381327573942    0.31879707868024576    
  0.2963346213978619    0.2689154874545005    0.24792410937531584    0.24040555369517516    0.2479266364347694    
  0.26891704518974385    0.296325001519574    0.26907432156215005    0.26891367398458527    0.2688864770543318    
  0.26888887500503905    0.26891544879295715    0.2690638628229284    0.26891551602644326    0.26888885006787283    
  0.26888652166156096    0.2689137229023607    0.26907432156215005    0.2963249854870858    0.2689170127578529    
  0.24792659288307478    0.24040562732091483    0.24792411762724578    0.26891549612105814    0.29633460429361674    
  0.3187970357800148    0.32733825240365266    0.3187981170902774    0.2963249854870858    0.3705664176080615    
  0.31879517563879994    0.2688861308338017    0.24040675267940995    0.24040560098826763    0.2688888697658055    
  0.31879707587506606    0.37055692161489384    0.40137713359407357    0.4013846020366584    0.3705664176080615    
  0.4541919570248556    0.4013847739779229    0.32733894958924825    0.2688862384185575    0.2479266467104679    
  0.2688864370258854    0.32733816784865105    0.4013770671170215    0.4542159160343957    0.4704826724797824    
  0.4541919570248556    0.49570100264829964    0.470474110314933    0.40138463867744456    0.3187952082987575    
  0.2689170220570596    0.26891369096632467    0.31879808189389375    0.4013846171829586    0.47048265493687574    
  0.49567308906933055    0.49570100264829964    0.5010309344772654    0.49570104815543    0.4541920177595528    
  0.37056644073162326    0.2963250007588374    0.26907440056679727    0.2963250238116444    0.37056641047806715    
  0.45419209810059324    0.4957010208226101    0.5010309344772654    0.26635534630937896    0.31508240312896585    
  0.40395563124948    0.4181391274973204    0.36987809173553965    0.3441045711992917    0.36987812208702503    
  0.41813902138196224    0.4039557212298156    0.3150823460252895    0.26635534630937896    0.3150823247645457    
  0.3149744644991944    0.383468351838214    0.4236489846189069    0.38735896542933285    0.3428216074408303    
  0.34284842795392545    0.3873355489790543    0.42363612454994093    0.3834534279494206    0.3150823247645457    
  0.4039556625962557    0.38346851160198236    0.40407952388495505    0.4236099506439023    0.3925925779881546    
  0.3414979358745598    0.3192945331503315    0.34149360830760583    0.3926251822083236    0.42363601284077984    
  0.4039556625962557    0.41813917721122634    0.4236490335994897    0.42360987377862724    0.4180733856314146    
  0.3873430486081697    0.3415299256088409    0.3105622191528707    0.31057174909031676    0.34149362793263527    
  0.38733552852983383    0.41813917721122634    0.369878077399655    0.38735896564981975    0.3925925109303645    
  0.38734305888802295    0.369947799292606    0.34283670256058474    0.3192640210918235    0.3105622053027574    
  0.31929452632311506    0.3428484200726828    0.369878077399655    0.3441045318640619    0.34282156202799635    
  0.34149795026647684    0.341529909566267    0.3428367082160226    0.34403178690013836    0.34283677470838664    
  0.3415298837871511    0.3414979888828974    0.3428216539130941    0.3441045318640619    0.3698780471803581    
  0.3428483774997814    0.31929446446948656    0.3105622791157022    0.3192639829100562    0.34283675353383375    
  0.3699478324612941    0.3873430191207043    0.39259267951928145    0.387358973706825    0.3698780471803581    
  0.4181390808247199    0.3873355402072377    0.3414936080790319    0.31057180939511053    0.3105622438138905    
  0.3415298817699112    0.3873430282432071    0.4180732553665415    0.4236100011906772    0.4236489220091185    
  0.4181390808247199    0.40395561869503627    0.4236361580244689    0.39262505547131216    0.3414937094593108    
  0.3192945000245274    0.34149788503517864    0.3925926111124274    0.42360989394148074    0.4040794579994192    
  0.3834684276453946    0.40395561869503627    0.3150823104762066    0.38345342253723386    0.42363604879153194    
  0.3873355424331171    0.3428483798055551    0.3428216190738296    0.38735890869100487    0.4236489742189172    
  0.3834684388625436    0.31497460718830145    0.3150823104762066    0.26635534630937896    0.31508240312896585    
  0.40395563124948    0.4181391274973204    0.36987809173553965    0.3441045711992917    0.36987812208702503    
  0.41813902138196224    0.4039557212298156    0.3150823460252895    0.26635534630937896    0.09226569067525774    
  0.14710422769452616    0.3109547300262232    0.43957068333999644    0.436192510802406    0.4157120233717358    
  0.436192514346922    0.43957057197963445    0.31095474676132545    0.14710422004464035    0.09226569067525774    
  0.14710421394830936    0.14699316900367995    0.2608867023955775    0.409549137496351    0.44345344958351823    
  0.41260928985788786    0.41266285967592803    0.44341287124252315    0.4094881166019583    0.26089994770823444    
  0.14710421394830936    0.3109547008831906    0.26088669926112495    0.31116090073925806    0.4094611180986493    
  0.4424954556559494    0.40878080457643645    0.3874071840210502    0.40876411526250955    0.4426022936902548    
  0.40948807732850956    0.3109547008831906    0.4395706813287501    0.4095491649970824    0.4094609953062963    
  0.43944581033928964    0.4434069990517884    0.408883866675084    0.3774880020526508    0.377525422276043    
  0.4087641188363917    0.44341288191117867    0.4395706813287501    0.4361925411730443    0.44345340607370065    
  0.44249543851347894    0.4434069662665744    0.43635068691127504    0.41264090524765756    0.38731436392354696    
  0.3774879505350793    0.3874071399245215    0.4126628826207958    0.4361925411730443    0.4157119541495729    
  0.41260930059877754    0.4087808550835614    0.40888384940157246    0.41264083482029257    0.41554896029226057    
  0.41264093652391753    0.4088838040540823    0.40878086509368244    0.412609370002179    0.4157119541495729    
  0.4361925092499079    0.4126628310950508    0.38740711222344315    0.3774880270629529    0.3873143249118292    
  0.4126409486979499    0.4363507110687798    0.4434069329299728    0.4424956214251502    0.4434534690278228    
  0.4361925092499079    0.43957061057574426    0.443412886237875    0.4087641682441791    0.377525454549648    
  0.37748805015312503    0.4088838220080284    0.44340699868846695    0.43944566483818087    0.4094611508791039    
  0.4095491001320587    0.43957061057574426    0.31095470881726234    0.409488085329423    0.44260210987397014    
  0.40876419073807135    0.3874071730189868    0.4087807944956302    0.4424955304613325    0.40946102179943383    
  0.31116093295614417    0.2608866649730352    0.31095470881726234    0.14710418849711995    0.2608999409341881    
  0.4094879915001663    0.44341293712901575    0.41266285501691574    0.41260933251654264    0.443453394457312    
  0.4095490599258985    0.26088670981719964    0.14699321257080217    0.14710418849711995    0.09226569067525774    
  0.14710422769452616    0.3109547300262232    0.43957068333999644    0.436192510802406    0.4157120233717358    
  0.436192514346922    0.43957057197963445    0.31095474676132545    0.14710422004464035    0.09226569067525774    
  0.0492617765178517    0.09533336094000333    0.26725270067208184    0.44183719624279855    0.4628999499861964    
  0.44596283966720773    0.462899958991901    0.441837090039255    0.2672526970189293    0.09533337349273475    
  0.0492617765178517    0.09533335721051901    0.09526078936541894    0.2099209765299217    0.39508734460024447    
  0.46401744760235203    0.4418436039761501    0.44189913231294053    0.4639827699861836    0.3949862954856897    
  0.20996526298149934    0.09533335721051901    0.26725268409520264    0.20992100382931897    0.2674535502241699    
  0.39497856262843756    0.45946417814570173    0.43648415377709127    0.4163287238662116    0.43645753514398306    
  0.45961839581619873    0.39498628916883577    0.26725268409520264    0.44183718135635475    0.3950873926148742    
  0.394978452265585    0.4417134078835834    0.46395826489597436    0.4366257481436401    0.4060098954597873    
  0.4060629179151704    0.43645754492873606    0.463982728593424    0.44183718135635475    0.46289996900583036    
  0.46401748927592235    0.45946412971170447    0.4639582873948204    0.46307527478877325    0.44188146058980515    
  0.41619788107760153    0.406009935968448    0.4163286814559117    0.44189911315070957    0.46289996900583036    
  0.4459628227684983    0.4418436098239736    0.4364842106812228    0.43662576820981913    0.4418813691694395    
  0.44577526586931443    0.44188140519187996    0.4366257199365982    0.4364842153264959    0.4418436574394912    
  0.4459628227684983    0.4628999450569736    0.441899086930186    0.4163286755451    0.40601003817366926    