#     DFTpy    
  CRYSTAL 
    
  PRIMVEC    
  3.077061522878732    -1.6905976000000003e-10    3.2044057655172415e-10    
  -1.6905976000000003e-10    3.0770615226999323    1.5440376413793105e-10    
  5.85564751724138e-10    2.8220030344827584e-10    5.63723634530987    
  PRIMCOORD    
  4    1    
  Si    1.5385307613807417    1.5385307621966684    1.7322903121628461    
  Si    5.705269027386538e-10    -5.280150440875526e-10    1.0863278585971226    
  Si    8.750541689511727e-11    3.9877745099159336e-10    4.550908483515262    
  Si    1.5385307618420279    1.5385307610278423    3.90494603681935    
  BEGIN_BLOCK_DATAGRID_3D    
  3d_datagrid_density    
  BEGIN_DATAGRID_3D#0    
  15    15    25    
  0.0    0.0    0.0    
  3.077061522878732    -1.6905976000000003e-10    3.2044057655172415e-10    
  -1.6905976000000003e-10    3.0770615226999323    1.5440376413793105e-10    
  5.85564751724138e-10    2.8220030344827584e-10    5.63723634530987    
  0.6462898519675296    0.6023755130349194    0.49143636694427695    0.35939393029095446    0.24717040320336733    
  0.17182073611152354    0.1311498530626329    0.11853595411384363    0.13114984310277386    0.1718207197176047    
  0.24717038223025492    0.35939390431768514    0.49143642463605236    0.6023755321478175    0.6462898519675296    
  0.6023754596967654    0.562555583560251    0.46187812190391    0.3416012828601552    0.2384614241141752    
  0.16840118064255782    0.130202726920438    0.11828388238051042    0.13020270420358912    0.168401172255703    
  0.23846140473473557    0.34160125597398494    0.4618781718543814    0.5625556392480828    0.6023754596967654    
  0.4914363658378541    0.4618781675535654    0.38671010506727216    0.2955491932302994    0.2153713254896956    
  0.15915835471548823    0.12760903067907414    0.11759589937540421    0.12760902908533198    0.15915833332922874    
  0.2153713174906848    0.29554923873514033    0.38671012883359945    0.4618781781996387    0.4914363658378541    
  0.3593938911312454    0.3416012527100744    0.29554921271318985    0.23803293237478426    0.18541909233313933    
  0.14674627920693767    0.12413372991671158    0.1167980129432382    0.1241337224261841    0.14674629329405647    
  0.18541910243086207    0.238032937745982    0.2955492340766188    0.34160127602512486    0.3593938911312454    
  0.24717035495638312    0.23846141256892467    0.21537129285937087    0.185419085750012    0.1566234221508086    
  0.13432480118746407    0.12078826082719364    0.1163353252466355    0.1207882527826102    0.13432478497924483    
  0.15662343117358316    0.18541910784471383    0.21537131720504255    0.23846141836061888    0.24717035495638312    
  0.17182071840858582    0.16840118286698844    0.15915833072987173    0.14674629848053    0.13432480703973643    
  0.1243810321807601    0.11827707625176093    0.11627480666334512    0.11827707158641577    0.12438103215755557    
  0.13432480574575184    0.1467462947225206    0.15915836451380788    0.16840119059517905    0.17182071840858582    
  0.13114982660605815    0.13020272038104036    0.1276089956350294    0.12413372472035636    0.12078825815063711    
  0.11827706828256555    0.1167394224405739    0.11618910377844954    0.11673942500501856    0.11827706159467671    
  0.1207882459123541    0.1241337192873485    0.12760901490140164    0.13020272276526054    0.13114982660605815    
  0.11853594880454774    0.11828388589001151    0.11759591733388784    0.1167980327753918    0.11633534217933791    
  0.11627481215973934    0.11618911854908409    0.11607821370847315    0.11618910235817402    0.11627480753807788    
  0.1163353313079373    0.1167980196658253    0.11759592695024944    0.11828388254768617    0.11853594880454774    
  0.1311498398308257    0.13020272268582989    0.1276090035503675    0.12413372339509465    0.12078826076053026    
  0.11827706792615092    0.1167394264735314    0.11618911222113167    0.1167394144090704    0.11827705775534109    
  0.12078824760860053    0.12413371727757601    0.1276090100179901    0.13020273095072254    0.1311498398308257    
  0.1718207192590127    0.16840118602418389    0.1591583427492752    0.14674628389081878    0.13432481116257658    
  0.12438103476212542    0.11827707662538728    0.11627479714026427    0.11827707627713747    0.12438103994992158    
  0.13432480303800856    0.14674630309792142    0.1591583480421443    0.16840120287308266    0.1718207192590127    
  0.24717038789809384    0.23846140522827547    0.21537129816041276    0.18541909093823516    0.15662342413449315    
  0.1343247962347218    0.12078825134108469    0.11633533963471282    0.12078824072020439    0.13432480348539258    
  0.15662341710072702    0.18541910325048533    0.2153713151683499    0.2384614242893268    0.24717038789809384    
  0.35939389375067005    0.34160125548562204    0.295549211006487    0.2380329279376368    0.1854191103893687    
  0.14674627720619454    0.12413372149892854    0.116798009297306    0.12413372380213716    0.14674628717305216    
  0.18541909079997507    0.2380329442452279    0.29554923655342824    0.34160127067193224    0.35939389375067005    
  0.4914363879866512    0.46187813813342804    0.38671011022126406    0.29554923061368893    0.21537131945413018    
  0.1591583468183279    0.12760902102517688    0.11759591780864803    0.1276090108311548    0.15915834831695186    
  0.21537131819581756    0.2955492306096302    0.3867101313316628    0.461878201187625    0.4914363879866512    
  0.6023754616319595    0.5625556206577066    0.4618781259261884    0.341601273382552    0.2384614225743862    
  0.16840117544840388    0.13020272066345415    0.11828386362825742    0.13020271190947935    0.16840116511720876    
  0.23846140758266376    0.341601252711224    0.4618781503027796    0.5625556492740657    0.6023754616319595    
  0.6462898519675296    0.6023755130349194    0.49143636694427695    0.35939393029095446    0.24717040320336733    
  0.17182073611152354    0.1311498530626329    0.11853595411384363    0.13114984310277386    0.1718207197176047    
  0.24717038223025492    0.35939390431768514    0.49143642463605236    0.6023755321478175    0.6462898519675296    
  0.6159734352050492    0.5837834067664028    0.4932110790353223    0.3714925418458237    0.2596432464372776    
  0.18168858383316452    0.13907202214785894    0.1258418338421258    0.13907201007224    0.18168857771541513    
  0.2596432270977215    0.3714925458816193    0.49321113169961306    0.5837834236905965    0.6159734352050492    
  0.5837833992843284    0.5529590502456904    0.4677296414635614    0.3547950555092652    0.25122252967518    
  0.1785814056493573    0.1385189566647744    0.12600357983304317    0.13851893600683668    0.17858139269169837    
  0.25122252921680027    0.35479505249628435    0.4677296847031993    0.5529590663323356    0.5837833992843284    
  0.49321108583367784    0.4677296822452204    0.3992506379084826    0.3105020463045303    0.22887791703721602    
  0.17034298549152171    0.13715474099082353    0.12658089065598876    0.13715473392162272    0.1703429680293761    
  0.2288778980927124    0.31050206130705466    0.39925063913421976    0.4677296935531727    0.49321108583367784    
  0.37149252280058065    0.35479505670718475    0.3105020421162738    0.25330365383157655    0.19954180123425674    
  0.15935797110425748    0.1355256941383003    0.12771485859710419    0.1355256760225482    0.15935797847766434    
  0.19954181415213088    0.2533036525818361    0.31050206457196555    0.35479506341012995    0.37149252280058065    
  0.25964322393549233    0.25122252629911235    0.22887789014855334    0.19954178586648044    0.1708122658089872    
  0.14810800220277107    0.13400879610509803    0.12927106387231715    0.13400879950203812    0.14810799861061952    
  0.1708122707269102    0.19954178710919745    0.22887790600098554    0.2512225414136085    0.25964322393549233    
  0.18168856627684843    0.17858141081962264    0.17034297703614693    0.15935798543721394    0.14810801329448867    
  0.13877161861740034    0.13282406886636686    0.13082571373746935    0.1328240645303188    0.1387716124356862    
  0.14810801322388703    0.15935798331989406    0.17034298694009817    0.17858142639639232    0.18168856627684843    
  0.139071995172848    0.13851895837633485    0.1371547102574488    0.1355256823412656    0.13400879379471317    
  0.1328240810863555    0.1321206745450841    0.13189838120618816    0.1321206601711233    0.13282406752321463    
  0.1340087945345881    0.13552567924865513    0.13715473125251335    0.13851895337199285    0.139071995172848    
  0.12584183086722187    0.12600357838798507    0.1265808937762418    0.12771487501294643    0.12927109116068788    
  0.13082572373865103    0.13189838963594583    0.13225593359456878    0.13189836681039918    0.13082571570167617    
  0.12927108078987826    0.12771487203305776    0.12658090524393473    0.12600358504063489    0.12584183086722187    
  0.13907200124984545    0.13851895673815492    0.13715471194887777    0.13552568728472306    0.13400879594039541    
  0.13282407217223338    0.13212067971446614    0.13189838190215827    0.13212065633359252    0.13282406009101444    
  0.13400878981825354    0.135525674128547    0.1371547160435368    0.1385189712265087    0.13907200124984545    
  0.18168857046324363    0.17858140626037844    0.1703429846739472    0.15935796887816522    0.14810801721448213    
  0.13877161247281591    0.1328240701116694    0.13082571148900213    0.1328240724248256    0.13877161815772554    
  0.14810799739947722    0.15935799013041996    0.17034298571600176    0.17858141594373134    0.18168857046324363    
  0.25964322927446243    0.2512225238944329    0.2288778896962415    0.19954180213153538    0.1708122698132327    
  0.14810800385593834    0.13400880059494868    0.12927107655894857    0.1340087917463176    0.14810800352414097    
  0.17081227647800262    0.19954180874782837    0.22887791404552663    0.2512225377155529    0.25964322927446243    
  0.3714925247405239    0.3547950502340338    0.31050203997527986    0.25330364736815925    0.19954180196306284    
  0.1593579714893254    0.13552568658307876    0.12771485109543676    0.13552567644635316    0.15935798614150812    
  0.19954179457909899    0.2533036694705479    0.3105020607471597    0.354795046402408    0.3714925247405239    
  0.493211078838855    0.4677296743277961    0.3992506298335724    0.3105020455674515    0.22887789823728819    
  0.17034298344934953    0.13715472974649034    0.12658090618896764    0.13715472388667901    0.17034298246292498    
  0.22887791986748604    0.31050205947111825    0.39925064103219066    0.4677297365607953    0.493211078838855    
  0.5837833880507574    0.5529590651859153    0.46772964983488846    0.35479505180326476    0.2512225375319313    
  0.17858141119251483    0.13851895468324885    0.12600356016286843    0.13851894939054019    0.17858138512988667    
  0.25122251945365603    0.35479504623934266    0.4677296679668372    0.5529590750634589    0.5837833880507574    
  0.6159734352050492    0.5837834067664028    0.4932110790353223    0.3714925418458237    0.2596432464372776    
  0.18168858383316452    0.13907202214785894    0.1258418338421258    0.13907201007224    0.18168857771541513    
  0.2596432270977215    0.3714925458816193    0.49321113169961306    0.5837834236905965    0.6159734352050492    
  0.45112608339770455    0.46139395073674294    0.4568944433489845    0.39236240818983326    0.2935325896636225    
  0.210709135535439    0.16255865254507926    0.14738020498805315    0.16255862725184175    0.21070911286489705    
  0.29353258482014905    0.39236240884846557    0.4568944986473424    0.4613939560952303    0.45112608339770455    
  0.46139395158463725    0.46581854269795764    0.45030894220530127    0.3818986315464843    0.28708921520435643    
  0.2091461406698455    0.16368042328927773    0.14925183124172253    0.16368040635562434    0.20914612490656923    
  0.28708921842165863    0.38189857639872915    0.4503089977213092    0.4658185756265139    0.46139395158463725    
  0.4568944531206578    0.4503089790063756    0.4173951846172605    0.3490919764884487    0.2689775944962259    
  0.20492556869656323    0.1668355142974942    0.1544769853392382    0.16683550724574947    0.20492555065164217    
  0.268977582594239    0.34909201966429876    0.4173951978962116    0.4503090090762745    0.4568944531206578    
  0.3923623853696595    0.3818985824974144    0.3490919803847833    0.29774985974473467    0.2428787393712391    
  0.19881847540894632    0.171438339810478    0.16219351404719165    0.1714383237742796    0.19881847458358137    
  0.24287876095534675    0.29774986913673834    0.34909200701915605    0.38189860945218834    0.3923623853696595    
  0.29353257733481813    0.28708921449040986    0.2689775476747907    0.24287873227137904    0.2150897848314703    
  0.1917431619946994    0.1763234389870677    0.17089219639018835    0.17632343319358734    0.19174315231726213    
  0.21508979410321016    0.24287874725165953    0.2689775909998109    0.2870892126933392    0.29353257733481813    
  0.21070911823826985    0.20914612925628817    0.2049255587188137    0.19881849466514562    0.19174315858976132    
  0.18505833126544682    0.18026689707725851    0.17852022805560536    0.18026689862964648    0.1850583326351596    
  0.19174316188777113    0.19881850046150373    0.20492557663719746    0.20914613375272584    0.21070911823826985    
  0.16255863094097694    0.16368041204795672    0.16683549587857963    0.1714383279317056    0.17632343873180864    
  0.18026692195400607    0.18282484552995193    0.18377786199110063    0.18282482304780354    0.1802668908191673    
  0.17632342920762367    0.17143833107267914    0.1668355055951923    0.16368041708723174    0.16255863094097694    
  0.1473801899626656    0.14925184948085415    0.1544769800399907    0.1621935429545761    0.17089221503479088    
  0.17852022816544313    0.1837778729363047    0.18573002000173447    0.18377786814052072    0.17852022948560503    
  0.17089220217266446    0.1621935325329127    0.15447700530682312    0.14925184627357077    0.1473801899626656    
  0.1625586321843345    0.1636804248984413    0.16683548659003272    0.17143835103028016    0.17632344045769818    
  0.180266904141819    0.18282485160405357    0.18377786730005313    0.1828248285747578    0.18026689218639833    
  0.17632342987106378    0.17143833886596835    0.1668354960973287    0.16368043403377316    0.1625586321843345    
  0.21070910929540013    0.20914615189913105    0.2049255603918711    0.19881847934453944    0.19174316567943042    
  0.18505833972773233    0.18026690610174229    0.178520208316243    0.18026690808253304    0.1850583376042697    
  0.19174316416757736    0.19881849088493897    0.20492557495737523    0.20914613815635447    0.21070910929540013    
  0.29353260710016577    0.287089216975118    0.26897756890000896    0.24287874507216092    0.21508978035629864    
  0.1917431658916291    0.17632344085365415    0.1708922044318473    0.1763234390199645    0.1917431651841989    
  0.21508978898205772    0.24287874829084505    0.26897759696313667    0.2870892186960609    0.29353260710016577    
  0.3923623726974087    0.38189858216618716    0.34909197504268713    0.2977498422288081    0.2428787532876673    
  0.19881848108939182    0.17143833090662022    0.16219351011179312    0.17143833670350087    0.1988184832852676    
  0.2428787379600075    0.29774986996200653    0.3490920104999457    0.38189860321259766    0.3923623726974087    
  0.45689446493408503    0.450308981420251    0.4173951682952581    0.3490919886701443    0.26897757289669405    
  0.20492555885102468    0.1668355069054625    0.15447699818878383    0.16683549189247915    0.2049255556211102    
  0.26897759214481015    0.3490919868291148    0.41739519793682545    0.45030901610265806    0.45689446493408503    
  0.46139392292024367    0.46581856005758865    0.45030896500822437    0.38189859153700517    0.2870892195481333    
  0.20914613648427222    0.1636804119307666    0.1492518184192573    0.16368041630762525    0.20914611399566685    
  0.28708921543170046    0.38189857647908204    0.4503089878314839    0.46581857129994747    0.46139392292024367    
  0.45112608339770455    0.46139395073674294    0.4568944433489845    0.39236240818983326    0.2935325896636225    
  0.210709135535439    0.16255865254507926    0.14738020498805315    0.16255862725184175    0.21070911286489705    
  0.29353258482014905    0.39236240884846557    0.4568944986473424    0.4613939560952303    0.45112608339770455    
  0.19490567302004363    0.24048506045438742    0.3451175433917613    0.3948803108839454    0.339215131836493    
  0.2553475066845231    0.19955774047670707    0.18134896952951937    0.19955773562109286    0.25534748068157453    
  0.33921512387832353    0.39488029949421927    0.34511756484346906    0.24048505344715454    0.19490567302004363    
  0.24048503958886985    0.2825204859501389    0.37028103623458963    0.3993168238827714    0.3382007406734901    
  0.25741133477945943    0.20424505113531827    0.18682744294160022    0.20424503087322443    0.25741132047729626    
  0.33820073844646126    0.399316794284295    0.37028104354293384    0.282520522818663    0.24048503958886985    
  0.34511752302832577    0.370281057623362    0.40947189640475146    0.3969575122680153    0.3318031348855509    
  0.2622397143755535    0.21687512323918376    0.20174472276659594    0.21687513002211437    0.26223968733293995    
  0.3318031311359991    0.3969575506863491    0.40947191917483455    0.3702810781443192    0.34511752302832577    
  0.3948802767691838    0.39931679270323706    0.39695752333960255    0.366441980432758    0.31554415064197705    
  0.26699978639272304    0.23447816511895372    0.22316404900796033    0.2344781407500779    0.26699981400225264    
  0.3155441628518794    0.366441992102998    0.396957554354538    0.39931682816202274    0.3948802767691838    
  0.3392151097105768    0.338200729077991    0.33180310584042483    0.31554413929505976    0.29237980677277114    
  0.2696900625242927    0.25307456692344515    0.24684636381140887    0.25307456927391386    0.269690048505907    
  0.2923798113689312    0.3155441556331644    0.33180314154802165    0.3382007488542519    0.3392151097105768    
  0.2553474851683242    0.2574113266617454    0.26223969012557863    0.2669998137889042    0.26969006101284915    
  0.26958076534786013    0.26754457086346034    0.2663100713327824    0.26754455197120974    0.26958076946390785    
  0.2696900583412579    0.2669998219262037    0.26223972879439045    0.2574113276529201    0.2553474851683242    
  0.19955771340356918    0.2042450471033065    0.21687511050779407    0.23447817414433417    0.25307456942713125    
  0.26754457187032604    0.27539426374619    0.27772146548519533    0.275394251548792    0.26754455054623555    
  0.2530745612663523    0.23447816419092485    0.21687512433136355    0.20424504687517936    0.19955771340356918    
  0.18134897373981565    0.18682744352412875    0.20174473665915213    0.22316407968803167    0.2468463874495894    
  0.2663100931573416    0.27772147264377695    0.28137934052211594    0.2777214557199745    0.26631007774497384    
  0.24684636411199934    0.223164065142427    0.2017447499696859    0.1868274543281987    0.18134897373981565    
  0.19955773098244814    0.20424503768354973    0.21687509802193206    0.23447816087143006    0.25307458496851576    
  0.2675445596404906    0.2753942819775299    0.2777214635787309    0.2753942378568898    0.26754454892667096    
  0.2530745672675411    0.23447815350679302    0.21687511627564807    0.20424506021943167    0.19955773098244814    
  0.25534748706894367    0.2574113169815271    0.2622397058432291    0.26699979421439884    0.26969008283833584    
  0.26958076723832125    0.2675445771151346    0.2663100694969093    0.26754456180190533    0.2695807693947523    
  0.26969006548351254    0.26699982761488117    0.2622397068713815    0.2574113450340193    0.25534748706894367    
  0.33921510286497314    0.33820071894370984    0.33180311216829184    0.3155441515050282    0.2923798053317412    
  0.2696900537694225    0.2530745614328982    0.2468463773755705    0.2530745657149719    0.269690056890967    
  0.29237980212106435    0.3155441558004219    0.3318031321198209    0.338200752447944    0.33921510286497314    
  0.3948802818492963    0.39931678424011957    0.39695751778034133    0.3664419706967492    0.3155441620726663    
  0.2669997967575211    0.23447816106545694    0.2231640567821992    0.23447814083672924    0.26699979825945797    
  0.31554415481417536    0.3664419896915577    0.39695755307878    0.3993168129018109    0.3948802818492963    
  0.3451175407843581    0.3702810388930318    0.4094718846696202    0.3969575397215414    0.3318031256619352    
  0.2622396952032294    0.21687512960754646    0.20174472551374314    0.2168751101031799    0.2622397049658262    
  0.3318031183181651    0.39695755326770943    0.40947190668987227    0.3702810736080973    0.3451175407843581    
  0.24048502288523815    0.2825204995066947    0.3702810224111301    0.39931681886684467    0.33820075638866126    
  0.257411337597893    0.2042450372023017    0.18682743385388906    0.20424503253429166    0.25741131479292184    
  0.3382007419936997    0.39931679493817507    0.37028106247576875    0.28252050933069306    0.24048502288523815    
  0.19490567302004363    0.24048506045438742    0.3451175433917613    0.3948803108839454    0.339215131836493    
  0.2553475066845231    0.19955774047670707    0.18134896952951937    0.19955773562109286    0.25534748068157453    
  0.33921512387832353    0.39488029949421927    0.34511756484346906    0.24048505344715454    0.19490567302004363    
  0.06638824682776528    0.10699629084137685    0.24508468520519353    0.38745566730441294    0.38566105124543637    
  0.30582753777252153    0.24342606572273193    0.2222946442964677    0.24342603858942588    0.3058275220497158    
  0.3856610400321843    0.38745564989066045    0.24508470099339463    0.1069962863278337    0.06638824682776528    
  0.106996280047479    0.15353846463100165    0.2906242025067334    0.40885102787376343    0.392635447799207    
  0.313293891389629    0.25322387132192614    0.23291516595918685    0.25322384839514483    0.3132938619263638    
  0.3926354462395581    0.40885101528471596    0.2906242160343364    0.15353846362360152    0.106996280047479    
  0.24508467983632626    0.29062422448446246    0.392083330929278    0.4451542856278171    0.4047890326474109    
  0.33262882194194493    0.280522510650764    0.2627432801778734    0.2805225066248765    0.33262878879850605    
  0.4047890172282717    0.4451543313815635    0.39208334525692357    0.29062422626652445    0.24508467983632626    
  0.38745562812232653    0.4088510047207604    0.44515430675637624    0.4466958103979913    0.4069851669808756    
  0.3564814429859141    0.31937363525076445    0.3061084478615989    0.31937362539455894    0.3564814507178104    
  0.4069851930967173    0.44669581890190097    0.4451543179780656    0.4088510183609574    0.38745562812232653    
  0.3856610140892312    0.39263543082880015    0.4047889881953957    0.4069851569052431    0.3953703584187231    
  0.37616544210532665    0.3579316560275651    0.3502292457182286    0.3579316476167742    0.3761654346085371    
  0.3953703870390228    0.4069851673202121    0.40478903643468706    0.3926354298940015    0.3856610140892312    
  0.30582751359499544    0.3132938736782009    0.3326288048868488    0.35648145665066905    0.37616545008138136    
  0.3836509601604397    0.37921665075558575    0.3750357716923669    0.3792166433007328    0.38365093625231167    
  0.3761654529190477    0.3564814589501242    0.33262882332524896    0.31329390378899075    0.30582751359499544    
  0.24342604385884556    0.25322386487504506    0.28052247831891713    0.3193736366037328    0.3579316746812375    
  0.37921667555511096    0.37939868167017665    0.3755718769408778    0.37939866169521724    0.3792166501845216    
  0.35793166669581894    0.319373622868139    0.2805225133210045    0.25322386329509167    0.24342604385884556    
  0.2222946261167388    0.2329151654788678    0.2627432854028702    0.3061084857663908    0.35022927551651034    
  0.37503578929967923    0.37557189386364853    0.3713710278965766    0.3755718607213444    0.3750357773308749    
  0.3502292581190272    0.3061084613502458    0.2627433111749188    0.23291518205059034    0.2222946261167388    
  0.24342604054443795    0.253223864974034    0.2805224915358059    0.3193736411412739    0.3579316775122502    
  0.3792166787774822    0.3793986888862137    0.375571876972648    0.37939866061474564    0.37921663344905004    
  0.3579316570954975    0.3193736180209153    0.28052248855569567    0.25322388260862716    0.24342604054443795    
  0.3058275082017897    0.3132938833368505    0.33262881158871294    0.35648143701275864    0.37616544505023136    
  0.38365094375422415    0.3792166449422017    0.3750357631231592    0.37921664338353706    0.38365093968641023    
  0.3761654313864599    0.35648145674175835    0.3326288175318616    0.3132938957638171    0.3058275082017897    
  0.38566104327139056    0.3926354054191348    0.4047889854451914    0.40698516834255355    0.3953703605044673    
  0.37616542801960884    0.3579316679557586    0.35022926990763587    0.35793164345512357    0.37616543158447685    
  0.395370366843808    0.4069851632177192    0.40478903282583295    0.3926354351213578    0.38566104327139056    
  0.3874556200072083    0.40885099370708905    0.4451542967813081    0.4466957783843054    0.40698517303354176    
  0.3564814514292968    0.3193736289516612    0.3061084353959422    0.3193735973126944    0.3564814495193834    
  0.4069851631575122    0.4466958127553283    0.4451543316525565    0.4088509980113033    0.3874556200072083    
  0.24508467571085724    0.2906242123365162    0.392083322129527    0.4451543026081754    0.40478901664003264    
  0.33262880552603236    0.28052249736959156    0.2627433100433183    0.2805224908520879    0.332628811937552    
  0.4047890254331711    0.44515432244079545    0.3920833399393408    0.29062423575432067    0.24508467571085724    
  0.1069962673775593    0.15353847047266894    0.2906242078317561    0.40885101941687324    0.3926354484105543    
  0.3132938959446669    0.2532238703781482    0.23291514484583292    0.2532238639702863    0.3132938632453486    
  0.392635406325375    0.4088509994057241    0.29062421016811196    0.15353846930599363    0.1069962673775593    
  0.06638824682776528    0.10699629084137685    0.24508468520519353    0.38745566730441294    0.38566105124543637    
  0.30582753777252153    0.24342606572273193    0.2222946442964677    0.24342603858942588    0.3058275220497158    
  0.3856610400321843    0.38745564989066045    0.24508470099339463    0.1069962863278337    0.06638824682776528    
  0.05567985103500125    0.09530300375821459    0.24059150376489188    0.40742477385932946    0.42288859913799765    
  0.3448737000824249    0.27969358845001574    0.257175975695515    0.2796935550772912    0.3448736784048223    
  0.42288854006715754    0.40742475758543834    0.2405915253259399    0.09530300587322234    0.05567985103500125    
  0.09530300375434454    0.14293139916032735    0.2923900607786777    0.4367535782553171    0.4364689955536989    
  0.35830953009992855    0.2953025050489529    0.2735875325599782    0.29530247810718296    0.3583095089756564    
  0.43646898718578675    0.4367534992210448    0.29239008972235153    0.1429314067948542    0.09530300375434454    
  0.24059150260867768    0.29239007581788207    0.41452672948068453    0.493014427461823    0.46578005008561396    
  0.3947508956123983    0.3399888343033684    0.32087805721350876    0.3399888176577961    0.3947508527197987    
  0.46578003430249043    0.4930144684172432    0.41452673463814127    0.29239009002772476    0.24059150260867768    
  0.4074247171244863    0.43675348704483025    0.49301443155324615    0.5155761771611888    0.48884652401408935    
  0.4416825604693446    0.4023893738377455    0.3874772697892845    0.40238933811930533    0.4416825676116255    
  0.4888465571741823    0.5155761440643032    0.49301443392217653    0.4367535363330981    0.4074247171244863    
  0.4228885394095113    0.4364689639327096    0.4657799996060746    0.48884650453616996    0.49290432233762843    
  0.47614319743632477    0.449164775115291    0.43571044352052263    0.4491647662207077    0.47614319524938736    
  0.49290434961368723    0.4888465300461704    0.4657800568323665    0.4364689846641912    0.4228885394095113    
  0.34487366429127286    0.3583095160377928    0.3947508729363001    0.44168257693897495    0.4761432087069006    
  0.4720804551803912    0.436275004497367    0.41537010415111925    0.4362749764176036    0.4720804248359171    
  0.47614320098874735    0.4416826002251621    0.39475090701847737    0.35830952229301677    0.34487366429127286    
  0.27969354596859863    0.29530250809386116    0.3399888042873084    0.4023893718060175    0.44916478380889313    
  0.43627503360158365    0.37826173359079507    0.34712636227591576    0.37826171513411316    0.43627496815846545    
  0.4491647833881527    0.40238937502299443    0.33998881728118824    0.29530250904779287    0.27969354596859863    
  0.2571759648982192    0.27358754249076334    0.3208780672127439    0.3874773346082553    0.4357104696929508    
  0.4153701357982934    0.34712638359322445    0.31225267718983174    0.34712636014803744    0.41537009933476204    
  0.4357104349413861    0.38747730522934104    0.3208780928416105    0.27358755954968145    0.2571759648982192    
  0.27969354716571865    0.2953025048418409    0.3399888042969023    0.40238938108187666    0.4491647898473781    
  0.4362750283098288    0.3782617501870003    0.3471263729381242    0.3782617085540002    0.43627497505939467    