#     DFTpy    
  CRYSTAL 
    
  PRIMVEC    
  1.645304738537034    -2.8497514010799705    0.0    
  1.645304738537034    2.8497514010799705    0.0    
  0.0    0.0    5.562911719517242    
  PRIMCOORD    
  2    1    
  Si    1.645304738537034    0.9499171336933234    1.3907279298793105    
  Si    1.6453047385370343    -0.9499171336933234    4.172183789637931    
  BEGIN_BLOCK_DATAGRID_3D    
  3d_datagrid_density    
  BEGIN_DATAGRID_3D#0    
  15    15    25    
  0.0    0.0    0.0    
  1.645304738537034    -2.8497514010799705    0.0    
  1.645304738537034    2.8497514010799705    0.0    
  0.0    0.0    5.562911719517242    
  0.05181037059347597    0.053750798336325276    0.059396508002293194    0.06855822620183075    0.08055768912236606    
  0.09316193481499173    0.103006345765696    0.10680442648350942    0.10300636093725721    0.09316195007481545    
  0.08055769266617735    0.06855823807941973    0.05939650586743297    0.05375079016121906    0.05181037059347597    
  0.053750804158811887    0.05374830292598569    0.05755239848909734    0.0650324093498776    0.07585945953275634    
  0.08859022826755977    0.10030739185686831    0.10752042008250287    0.10752132975396425    0.10030660158726509    
  0.08859003501399092    0.07585844349697043    0.06503390823615694    0.05755112936759885    0.053750804158811887    
  0.05939650361676315    0.057552399502272235    0.059398214768759006    0.06503290469808887    0.07437630762014676    
  0.08651396579394895    0.09924865608346906    0.10922822243388701    0.11306114135813652    0.10922918531864977    
  0.09924839627409    0.0865164313194698    0.07437472127277134    0.06503391741581374    0.05939650361676315    
  0.06855823790266533    0.06503239802380761    0.06503289833621424    0.0685561599404527    0.07585919003759738    
  0.08651507252375575    0.09904781258002357    0.11066488294368539    0.11772807143848471    0.117725939842058    
  0.11066630056229514    0.09904550491369553    0.08651643592570964    0.07585843813099144    0.06855823790266533    
  0.08055768444935334    0.07585945099074773    0.07437631422814497    0.07585919417947107    0.08055907299161241    
  0.08858973943786416    0.09924792913851016    0.110666048404733    0.11952193555807325    0.12280594996906245    
  0.11952200827896932    0.11066629242116936    0.09924839865412313    0.08859004424104296    0.08055768444935334    
  0.09316194530519353    0.08859020940017363    0.08651396663448216    0.08651507512506461    0.08858973930641965    
  0.09316053965213845    0.10030813334656505    0.10922721065941073    0.11772851911957341    0.12280278757392221    
  0.12280595142968515    0.11772595326880145    0.10922917941378489    0.10030659574990457    0.09316194530519353    
  0.10300635134905435    0.10030739856824442    0.09924867471539005    0.09904781849272641    0.09924794602467288    
  0.10030814376681169    0.10300556369129237    0.10752235652860277    0.11306004549249193    0.11772852887509029    
  0.11952193751107244    0.11772807746849115    0.11306113233890508    0.10752132792109068    0.10300635134905435    
  0.10680445193744688    0.10752039188921592    0.10922821583814163    0.11066487438281611    0.11066603143696321    
  0.10922719551114982    0.1075223418126404    0.10680210526507451    0.1075223487109559    0.10922718899958235    
  0.1106660272311999    0.1106648809993131    0.10922820827221154    0.10752039747928263    0.10680445193744688    
  0.10300635136656464    0.10752132213296939    0.11306113141183727    0.11772807646905051    0.1195219340707332    
  0.11772851358364107    0.11306004109064835    0.1075223579587803    0.10300557509514374    0.10030815467074476    
  0.0992479441225578    0.09904783210164975    0.09924866666974107    0.10030739559006983    0.10300635136656464    
  0.09316194193952657    0.10030659763405919    0.10922917794669104    0.11772594832556725    0.12280595416852158    
  0.12280279835527785    0.11772850917772197    0.10922720448930802    0.10030812881895701    0.09316054372983014    
  0.08858973728849864    0.08651506131888968    0.08651396744952407    0.08859021530870426    0.09316194193952657    
  0.08055769289582007    0.08859003881951148    0.0992484016579981    0.11066628188039458    0.11952200820116851    
  0.12280596368805881    0.11952192909196577    0.11066604148183598    0.09924795168362913    0.08858974050532832    
  0.08055907409834402    0.07585919298110758    0.07437631200580395    0.07585944688645523    0.08055769289582007    
  0.0685582403534135    0.07585842639997191    0.08651643478447009    0.09904549324762939    0.11066629752937594    
  0.11772594187041684    0.11772806255093904    0.11066489372874869    0.09904781919687893    0.08651505860624153    
  0.07585918725891647    0.0685561596433414    0.06503289765817147    0.06503239800422056    0.0685582403534135    
  0.05939650225593751    0.06503391114958303    0.07437471624729011    0.08651643610199426    0.09924840607520341    
  0.10922917307509279    0.11306112709505982    0.10922820913848799    0.09924867267941355    0.0865139640853956    
  0.07437630840380473    0.06503289918363894    0.05939822317371446    0.057552396074524836    0.05939650225593751    
  0.05375079428253806    0.057551130774568166    0.06503391342649782    0.07585844135452505    0.08859004495748579    
  0.100306612379208    0.1075213233776242    0.10752041328453561    0.10030739726539963    0.08859022762210925    
  0.07585944988311166    0.0650324074693633    0.05755239564153893    0.053748305351348585    0.05375079428253806    
  0.05181037059347597    0.053750798336325276    0.059396508002293194    0.06855822620183075    0.08055768912236606    
  0.09316193481499173    0.103006345765696    0.10680442648350942    0.10300636093725721    0.09316195007481545    
  0.08055769266617735    0.06855823807941973    0.05939650586743297    0.05375079016121906    0.05181037059347597    
  0.05366928016043445    0.055790270737781165    0.06213764485938055    0.0726150971028523    0.08636210961103102    
  0.10085672043904671    0.11220796636473783    0.11657449216992248    0.11221101420686182    0.10085494474816589    
  0.08636273582806096    0.07261371721929606    0.06213862247843429    0.05579060601031851    0.05366928016043445    
  0.0557906106227404    0.05579030487745356    0.059068886036438104    0.0655021576293571    0.07475229775497819    
  0.08557997930944641    0.09555555285832217    0.10170942734936055    0.10170908488725035    0.0955541654030192    
  0.0855806155192166    0.07475198365048472    0.06550321480627992    0.05906793365754766    0.0557906106227404    
  0.062138616346351136    0.06101160034003847    0.062138338082010504    0.0655039346598965    0.07101345395376508    
  0.07822664592726673    0.08582076643372526    0.0917701236883818    0.09406867409704411    0.09176937300569632    
  0.08582227657808471    0.07822655696055554    0.07101381574697996    0.06550321342301559    0.062138616346351136    
  0.0726137206279623    0.07164645752795643    0.07164610154459147    0.07261305215047693    0.07475118407318955    
  0.07822740181575177    0.08270828461962987    0.08705246108369476    0.08976843481964988    0.08977079835119264    
  0.08705164834201304    0.08270840463752539    0.07822654507301213    0.07475198476908383    0.0726137206279623    
  0.08636272833470106    0.08739055141552556    0.08783720877359451    0.08739194850538178    0.08636264299355023    
  0.08558077648725694    0.0858211107501355    0.08705184417633961    0.08843984865899748    0.0890336954060071    
  0.08843918989094723    0.08705165172667301    0.08582227261466573    0.0855806133158565    0.08636272833470106    
  0.1008549374864883    0.10619353777551056    0.1094802784528147    0.10947855155559422    0.1061937124143867    
  0.10085502171432068    0.09555406717207338    0.09176969522915802    0.08976957108750806    0.08903399651034753    
  0.08903369069806055    0.08977081214490125    0.09176937762403414    0.09555417027125536    0.1008549374864883    
  0.11221101013685542    0.12370493690244518    0.13276225450546597    0.13615133853780637    0.13276193532170305    
  0.1237046138605508    0.1122103633757583    0.10171042917780301    0.09406781338675721    0.08976957545657714    
  0.08843984041716234    0.08976842445066179    0.09406866718010605    0.10170908679130387    0.11221101013685542    
  0.11657450318109584    0.13442794279183531    0.15120051158158115    0.16133956517101183    0.16134181120708113    
  0.1512004861328314    0.13443020841533135    0.11657206284089935    0.10171042969851969    0.09176969372271986    
  0.08705181859038862    0.08705246185238634    0.09177012543669627    0.10170941970985023    0.11657450318109584    
  0.11220797436167775    0.13443232384035597    0.15822915841354318    0.17674864648370506    0.18362820770965485    
  0.1767465724535974    0.15823160623750904    0.13443023415923872    0.11221035700128691    0.09555407662194465    
  0.08582111513738916    0.08270830699757557    0.08582077126725068    0.09555554996463685    0.11220797436167775    
  0.10085673071675523    0.12370290252904129    0.15120188649852842    0.17674630417344478    0.19193851131640047    
  0.19193773839964542    0.17674657648847017    0.1512005123653231    0.12370460038602588    0.1008550313456477    
  0.08558077891619867    0.07822738538033534    0.07822664876184739    0.08557996504560984    0.10085673071675523    
  0.0863621064234834    0.10619319102559577    0.1327634877427631    0.16133941950271705    0.1836295835416805    
  0.19193853614837422    0.18362818603894324    0.16134182679344558    0.13276192437173462    0.10619370521012274    
  0.08636263699288312    0.0747511860822314    0.07101344926860484    0.07475229390360545    0.0863621064234834    
  0.07261511038884678    0.0873906719093148    0.10948071400474513    0.1361498801804843    0.16133943475748186    
  0.17674629475295328    0.17674861942306191    0.16133959701031303    0.1361513539812863    0.10947853489261543    
  0.08739195230998069    0.07261305293242452    0.06550392501113793    0.06550214512658648    0.07261511038884678    
  0.062137642621144525    0.07164617251939147    0.08783678748910922    0.10948070028539113    0.1327634945829302    
  0.15120186380946898    0.15822915141466784    0.1512005198553104    0.132762243806009    0.10948028490411957    
  0.08783721224502257    0.07164610431981928    0.0621383420179369    0.05906888013505728    0.062137642621144525    
  0.055790272510575355    0.06101289028003894    0.07164617111463241    0.08739067510690061    0.10619320454784759    
  0.1237028940051612    0.1344323353553441    0.13442795020083684    0.12370492805513429    0.10619355126068414    
  0.08739055711719762    0.07164646401813293    0.061011588857022105    0.05579031262456446    0.055790272510575355    
  0.05366928016043445    0.055790270737781165    0.06213764485938055    0.0726150971028523    0.08636210961103102    
  0.10085672043904671    0.11220796636473783    0.11657449216992248    0.11221101420686182    0.10085494474816589    
  0.08636273582806096    0.07261371721929606    0.06213862247843429    0.05579060601031851    0.05366928016043445    
  0.058842870721145975    0.06158346349623724    0.07007247108483612    0.08442312722302033    0.10343946866265724    
  0.1237950274884974    0.13992003048438778    0.14608837417798134    0.13992241126716226    0.12379629422010943    
  0.10343642835465397    0.08442381710490508    0.07007296747106154    0.06158429204604966    0.058842870721145975    
  0.06158430147872814    0.06158554056283328    0.06508539788183323    0.07222253412125701    0.08256900107682377    
  0.09470923615365924    0.10596379682883764    0.11285683928528088    0.11285642227526793    0.1059604453092245    
  0.09471102543921503    0.08256962209171746    0.07222268643510744    0.0650847788575262    0.06158430147872814    
  0.07007296258115113    0.06938062062991882    0.070071701293373    0.07222336192184735    0.07594106793795656    
  0.08106323340265269    0.08666321624719647    0.09112334646487567    0.09284518707425668    0.0911235848443912    
  0.08666456114129258    0.08106278495866129    0.07594094848125056    0.07222269601371796    0.07007296258115113    
  0.08442381324289196    0.08561917639946645    0.08561895683949548    0.0844232905080799    0.0825688690972827    
  0.08106312663984992    0.08052125698199507    0.08076999223167922    0.08123147677263344    0.08123266733732999    
  0.08077001091579929    0.08052072616351541    0.08106279286880337    0.0825696000081629    0.08442381324289196    
  0.10343642167077956    0.11026508078847053    0.11281821939488568    0.11026716563506118    0.10343703374133723    
  0.0947097912739858    0.08666393753389663    0.08076999931713004    0.07750792554787907    0.07654651516207088    
  0.07750699751491376    0.0807700069294033    0.08666454737560084    0.0947110290819079    0.10343642167077956    
  0.12379629690074793    0.1404490225458956    0.15050050295773573    0.150496780026674    0.140449374724381    
  0.12379605420557205    0.10596248662844986    0.09112237210801302    0.08123190243992204    0.0765462174543769    
  0.07654650991836232    0.0812326803869853    0.09112357392043399    0.10596044232016703    0.12379629690074793    
  0.1399224239837541    0.16909006579198174    0.1917728246522112    0.2002060828395096    0.19177197621745656    
  0.1690904451426172    0.13992166718060636    0.11285645173725106    0.09284632433113062    0.08123191964791361    
  0.07750791736999187    0.08123146588308895    0.09284520345090326    0.11285642790925365    0.1399224239837541    
  0.14608839252709335    0.18662220322363418    0.22404017267121729    0.2459545278336842    0.24595097023070864    
  0.22404854679925973    0.18661982826202525    0.14608958657515825    0.11285645257814246    0.09112237287050737    
  0.08076998341796204    0.08076998043440359    0.09112333283106165    0.11285682919587112    0.14608839252709335    
  0.1399200534176824    0.18662144034704378    0.23603609220175906    0.2723206574074099    0.28505484241434026    
  0.27231934050511947    0.2360385859753662    0.18661986097849076    0.1399216751049666    0.1059624989189173    
  0.08666394232862257    0.08052126982012978    0.08666322984613697    0.10596378807178872    0.1399200534176824    
  0.12379503474516963    0.16909091719303876    0.22404596905506083    0.27232126124733314    0.298501069503692    
  0.2984986572909291    0.27231932921863483    0.22404857444437654    0.16909044096582498    0.12379606057112823    
  0.09470978323237858    0.08106311922933916    0.08106323681098768    0.09470922960039849    0.12379503474516963    
  0.10343947472511701    0.14044736014750786    0.19177441012020383    0.24594672802185    0.28505628379790865    
  0.2985010885415872    0.28505481752396056    0.24595098839377488    0.19177196439626257    0.1404493835287046    
  0.10343701909185249    0.08256886836736506    0.07594106899427543    0.08256899295494025    0.10343947472511701    
  0.08442314001585267    0.11026693849976023    0.15049850526620293    0.20020934737066384    0.2459467204960136    
  0.27232124746661546    0.27232063112291766    0.24595455107801503    0.2002060857649496    0.15049677079099769    
  0.11026717302225514    0.08442329239181987    0.07222335482353318    0.07222251929383516    0.08442314001585267    
  0.07007247096332128    0.08561844671365208    0.11281808501831377    0.15049850798705391    0.1917744052685838    
  0.22404597176721436    0.23603608399282666    0.22404018529812977    0.19177282751426408    0.15050050815672136    
  0.11281821853339996    0.08561895887757319    0.07007170468193108    0.06508539413885665    0.07007247096332128    
  0.061583463336372095    0.06938315778500176    0.08561844839055424    0.11026692060639016    0.14044737343505354    
  0.16909092080105043    0.1866214343540183    0.18662222377566556    0.16909006306845992    0.14044905117182643    
  0.11026507602816728    0.08561918766398786    0.06938061682949302    0.061585540989177776    0.061583463336372095    
  0.058842870721145975    0.06158346349623724    0.07007247108483612    0.08442312722302033    0.10343946866265724    
  0.1237950274884974    0.13992003048438778    0.14608837417798134    0.13992241126716226    0.12379629422010943    
  0.10343642835465397    0.08442381710490508    0.07007296747106154    0.06158429204604966    0.058842870721145975    
  0.06635412453525207    0.07014968474683202    0.08200167285148689    0.10239254023750201    0.1299244710818561    
  0.15981466875087458    0.1834867549816403    0.1924408785628305    0.18349270505145368    0.1598171091965792    
  0.12991791270107517    0.10239319112072486    0.08200302494424329    0.07015052371668037    0.06635412453525207    
  0.07015052864350918    0.0701500257954225    0.07452126188591232    0.0836061391148263    0.09696678469104025    
  0.11288558653933416    0.12778703202018693    0.13680827501129816    0.1368055747889674    0.12778229703391902    
  0.11288658391317284    0.09696976878269453    0.0836067000391357    0.07451853413956876    0.07015052864350918    
  0.08200302014438643    0.0815481128528085    0.08200220593859467    0.08360552559023317    0.0867555778975724    
  0.09147350572350882    0.09697345388243125    0.101464145260297    0.10317761150758735    0.10146567737099162    
  0.0969747568681553    0.09147497583114507    0.08675168234970189    0.08360670444372599    0.08200302014438643    
  0.10239318460531718    0.1057198606787863    0.10571840504671436    0.10239364088754067    0.09696649954328354    
  0.0914761407870361    0.08736000999246389    0.08502189838277115    0.08414727223204373    0.08414701928346754    
  0.08502295257477986    0.08735808605631269    0.09147498637824511    0.09696976601452229    0.10239318460531718    
  0.1299178959268917    0.1432917897752468    0.14834360120861587    0.14329394419318822    0.1299227583853755    
  0.11288307608967593    0.0969730077749732    0.08502367019785642    0.07807889407572617    0.07589070221286161    
  0.07807836210384501    0.08502295192517835    0.09697475050508403    0.11288658329897752    0.1299178959268917    
  0.1598171026646926    0.18985704708750362    0.2080573873301862    0.20805509198645342    0.18985134809955934    
  0.15981908436155667    0.12778687457966179    0.10146277862866289    0.08414759665978805    0.07588948997265403    
  0.07589070809330052    0.08414702399345929    0.10146566601432801    0.12778229905458396    0.1598171026646926    
  0.18349270311270507    0.233371067537672    0.2704152226310929    0.2835570899499386    0.2704165846385352    
  0.23337359263951885    0.18348682953310164    0.13680958613445005    0.10317697938830843    0.0841476092920012    
  0.07807890082379552    0.08414726623487848    0.10317761067552268    0.13680557278918298    0.18349270311270507    
  0.19244091792003798    0.25908208926017756    0.31342520034591204    0.3389628181477097    0.3389591658085281    
  0.31343737644763775    0.2590864336100066    0.1924377083469707    0.1368095905282337    0.10146275756182108    
  0.08502366019657734    0.08502188972219031    0.10146414029131662    0.13680825338079514    0.19244091792003798    
  0.18348675736306186    0.2590846284011028    0.3273694188376277    0.3594311346695852    0.36452615507315145    
  0.35942913489508177    0.3273712000213832    0.2590864528365333    0.18348684530299497    0.12778689382818045    
  0.09697300993415628    0.08736002599412278    0.09697348002331839    0.12778703664813768    0.18348675736306186    
  0.15981466219034132    0.23337398974472165    0.31343572117801843    0.35942762458735295    0.36534924793358126    
  0.3653434212995306    0.3594291150257669    0.3134374060873853    0.23337356950149196    0.15981907522789152    
  0.1128830630018114    0.09147614139867938    0.09147349926184532    0.1128855753367843    0.15981466219034132    
  0.1299244867016411    0.1898522566517844    0.2704183422627348    0.3389477755082051    0.3645326572504977    
  0.3653492610291167    0.3645261415478445    0.33895916053446534    0.2704165988031053    0.18985134550466967    
  0.12992276364070776    0.09696650251686265    0.08675558159140265    0.09696677337722633    0.1299244867016411    
  0.10239254879234196    0.14329360768764843    0.2080577770172409    0.28356343405524426    0.3389478094902616    
  0.359427601924211    0.35943110950694573    0.33896285347353045    0.2835571003051581    0.20805507382267696    
  0.14329393794833653    0.10239364183785135    0.08360551978267124    0.08360613610828901    0.10239254879234196    
  0.08200166311181176    0.10572058470692626    0.1483403930817127    0.20805777090884559    0.27041832825327355    
  0.3134357202193688    0.3273693923227917    0.3134251743512153    0.27041521858013806    0.20805739511448804    
  0.14834359105934494    0.10571840772676497    0.08200221282346502    0.07452126173559333    0.08200166311181176    
  0.07014968153879333    0.08154951059905842    0.10572058834771694    0.1432936128449507    0.1898522734275468    
  0.2333739963099791    0.2590846181909149    0.25908210114319113    0.23337105658022916    0.18985706576535585    
  0.1432917876044941    0.10571986681945471    0.08154809953203297    0.0701500253187877    0.07014968153879333    
  0.06635412453525207    0.07014968474683202    0.08200167285148689    0.10239254023750201    0.1299244710818561    
  0.15981466875087458    0.1834867549816403    0.1924408785628305    0.18349270505145368    0.1598171091965792    
  0.12991791270107517    0.10239319112072486    0.08200302494424329    0.07015052371668037    0.06635412453525207    
  0.074479362297836    0.07949560012475675    0.09521764732042644    0.12270539178540554    0.16052017558053436    
  0.20142350397006697    0.23291804924791149    0.24450517260313506    0.23294693789799392    0.20142676407766788    
  0.1604937441828136    0.12271087278371885    0.09522070387698163    0.07949486815465567    0.074479362297836    
  0.07949488199425615    0.07949641872172653    0.08512284225733706    0.0968137222958211    0.11421742798559506    
  0.1352780468068287    0.15502958687192245    0.1668079211058101    0.16680672687428275    0.15501005243924992    
  0.13527693645096922    0.1142378914337974    0.09680888434208633    0.08512074403959514    0.07949488199425615    
  0.09522069952979641    0.09479455755772123    0.09521620361558315    0.09680651727162873    0.10018025196862769    
  0.10544445817367847    0.11180344008516689    0.11709004179578296    0.11907915954100941    0.11708702214647342    
  0.111819508882197    0.1054445773146792    0.10016320436246684    0.09680888103145999    0.09522069952979641    
  0.12271086311033878    0.12785064275398186    0.12785401662907186    0.12271412562900796    0.11421788499579477    
  0.10544702371212121    0.09858121139688801    0.09436143488861751    0.09253544137277003    0.0925380084740707    
  0.09436418520349725    0.09856809500562547    0.10544455844881172    0.1142378856659647    0.12271086311033878    
  0.1604937361015446    0.18012466555606052    0.18743765007061763    0.18012322050157636    0.1605193999616802    
  0.13527283227968798    0.11180392169167232    0.09436869965710039    0.08416686502613516    0.08087640836526096    
  0.08416592580714871    0.09436418058142321    0.1118194966344602    0.13527692944262115    0.1604937361015446    
  0.201426749268136    0.24377326136885905    0.26815774308123375    0.2681521221449625    0.2437387051556961    
  0.2014339738948246    0.1550272179395845    0.11708402883960274    0.09253393510452518    0.08088004835553719    
  0.08087641292554999    0.09253802322422068    0.11708701772813325    0.15501004501562368    0.201426749268136    
  0.23294692238584572    0.29837294192260255    0.3382540766237797    0.34931549072644036    0.3382985027144649    
  0.2983687199259826    0.2329219390949736    0.16681579033058266    0.11908024673776539    0.09253394935934332    
  0.08416685266755533    0.09253543853740924    0.1190791599125096    0.1668067334882599    0.23294692238584572    
  0.24450517424246143    0.3264782723847487    0.3664756921297508    0.36373307817006467    0.36370434227693293    
  0.36648098101113674    0.3265260281728879    0.24448247127722145    0.16681577838191736    0.11708402109890848    
  0.09436868530127962    0.0943614375197894    0.11709002932115752    0.16680792308149786    0.24450517424246143    
  0.23291808452294743    0.3265195513559412    0.36857626568626406    0.33364754001061386    0.3045228261906177    
  0.33364438935244184    0.36856816978997153    0.3265260714196021    0.23292194688680112    0.15502725342738546    
  0.1118039463221707    0.09858121844035246    0.11180345432426725    0.15502957825680092    0.23291808452294743    
  0.20142351973613146    0.2983738191843148    0.36648756542889893    0.3336347484712033    0.26631808658805095    
  0.2663457430387336    0.3336443734565002    0.3664810148970862    0.2983687097985098    0.20143397305936572    
  0.13527282800175408    0.10544701001154272    0.10544447624290328    0.13527802864479038    0.20142351973613146    
  0.16052016600525512    0.24374524432961236    0.33829343833470255    0.363666360083485    0.3045799508177865    
  0.2663181102306719    0.30452279652663006    0.36370436165850883    0.3382984987248731    0.24373870480042661    
  0.1605193898229624    0.11421788730575881    0.1001802351815092    0.11421742179669903    0.16052016600525512    
  0.12270541229792156    0.1801316582609908    0.2681501385407113    0.34935046473985365    0.3636663772816111    
  0.33363472799444915    0.3336475095135085    0.3637331047486067    0.34931549324220995    0.26815212362259594    
  0.18012322952737403    0.12271413226459774    0.09680650602827147    0.09681370270120293    0.12270541229792156    
  0.09521765068207551    0.12785639137885443    0.18743047629616003    0.2681501167423827    0.33829344596443695    
  0.3664875682456696    0.368576224813963    0.3664756805965048    0.3382540462197953    0.2681577453134059    
  0.18743764776424313    0.12785401775556787    0.09521620631437944    0.08512283928111294    0.09521765068207551    
  0.07949559630698703    0.09479324288848498    0.12785638879538008    0.18013166937440742    0.24374522574421098    
  0.2983738010183032    0.3265195436335752    0.32647828105915017    0.2983729358731934    0.24377327637691634    
  0.1801246830419259    0.12785064945653224    0.09479454587413608    0.07949642701568058    0.07949559630698703    
  0.074479362297836    0.07949560012475675    0.09521764732042644    0.12270539178540554    0.16052017558053436    
  0.20142350397006697    0.23291804924791149    0.24450517260313506    0.23294693789799392    0.20142676407766788    
  0.1604937441828136    0.12271087278371885    0.09522070387698163    0.07949486815465567    0.074479362297836    
  0.08076235404656172    0.08679216931180549    0.1057388998874632    0.13918678680557015    0.1855343036908144    
  0.23491679268080512    0.2715225739243229    0.28454453288785464    0.27159844941745526    0.2349225353595857    
  0.18547464541251035    0.1391955833482518    0.10574887882711011    0.08679097618533028    0.08076235404656172    
  0.08679098533199962    0.08679172214387836    0.0935211042759628    0.10754180617183062    0.12858584322880814    
  0.1541853260992045    0.17814708384087938    0.19239233999308702    0.1923900491430662    0.1780987727236744    
  0.15418397160499847    0.12863134229331794    0.10753567896945194    0.0935102331803594    0.08679098533199962    
  0.10574887729594792    0.10530736286504072    0.10573537287387409    0.10752878325191104    0.11151996173261014    
  0.11765930067857265    0.12495269926842949    0.1310891578271451    0.1334288170512182    0.13108192242290054    
  0.12499071729162504    0.11766184405588805    0.11147608117647348    0.10753567873229583    0.10574887729594792    
  0.13919558526517278    0.14564373218674878    0.1456593937304089    0.13920410319731952    0.1285851543888887    
  0.11766145286893191    0.10891456944467937    0.10330735421112597    0.10082823866812315    0.10083132081728195    
  0.10331793164452015    0.10887557526534705    0.11766185070459312    0.12863134780525812    0.13919558526517278    
  0.18547462630525233    0.20951443261068065    0.2183030696589329    0.2095037250233586    0.1855343833231202    
  0.15418076370317493    0.12495197728529932    0.10332435292016802    0.0906808862039798    0.08660910917295278    
  0.09067533643822959    0.10331792051659652    0.12499070657018774    0.15418397077735174    0.18547462630525233    
  0.234922546907218    0.2841846357996752    0.3101991886889    0.3101882566805216    0.2841062966870181    
  0.23492962027870526    0.1781457269200287    0.13107309644759915    0.10082761251121436    0.08660866275586417    
  0.08660911058443044    0.10083132568483953    0.13108191842042363    0.17809875228145225    0.234922546907218    
  0.2715984450791268    0.33967653292079425    0.3663680968673945    0.36800506577951847    0.3664743591568831    
  0.33967314910248597    0.2715303917312163    0.19240977898794723    0.13343034257833206    0.10082761994439642    
  0.09068088173165621    0.10082822810731654    0.13342881388404498    0.19239006207305043    0.2715984450791268    
  0.28454454594005923    0.3609856007830045    0.35551210840023534    0.3081335867138194    0.30808001277200553    
  0.35549537675234627    0.3611063344349637    0.28449276380817273    0.19240977049096186    0.1310730983353957    
  0.10332434297249181    0.1033073546693667    0.1310891537641007    0.1923923296301338    0.28454454594005923    
  0.2715225945083735    0.3610888460723068    0.3367926780105383    0.22488337131651934    0.17303224054904087    
  0.2248844672842247    0.33675875550496376    0.36110638032994247    0.27153040167885606    0.178145738130515    