#     DFTpy    
  CRYSTAL 
    
  PRIMVEC    
  1.7831794372971208    -3.0885573844106946    0.0    
  1.7831794372971208    3.0885573844106946    0.0    
  0.0    0.0    6.029077506068965    
  PRIMCOORD    
  2    1    
  Si    1.7831794372971208    1.029519128136898    1.5072693765172414    
  Si    1.783179437297121    -1.029519128136898    4.521808129551724    
  BEGIN_BLOCK_DATAGRID_3D    
  3d_datagrid_density    
  BEGIN_DATAGRID_3D#0    
  17    17    27    
  0.0    0.0    0.0    
  1.7831794372971208    -3.0885573844106946    0.0    
  1.7831794372971208    3.0885573844106946    0.0    
  0.0    0.0    6.029077506068965    
  0.03645934585826628    0.0372744222776074    0.039785014098192024    0.04406299166709035    0.04995618873195144    
  0.056965249865664196    0.0640596004377683    0.06947932308825173    0.07150437365831293    0.06947932188714516    
  0.06405959912096457    0.05696526202881857    0.049956184671004066    0.04406297763596901    0.03978501596249912    
  0.0372744201501224    0.03645934585826628    0.03727441833997024    0.0372745333694631    0.03893951024659719    
  0.04236287129403002    0.04756262784620569    0.05425174180476606    0.06166759777141439    0.06832961872896523    
  0.07230571478577917    0.07230618574154123    0.06832934739508877    0.06166763759962378    0.054251459559707615    
  0.04756303827447545    0.04236280087327991    0.03893945300514339    0.03727441833997024    0.03978501890934823    
  0.038939506960394055    0.03978488860321971    0.04236274271943004    0.046790116346006785    0.05305464436285925    
  0.0606622460777347    0.06837164521302103    0.07425005045720345    0.07645694385166557    0.07424981235087194    
  0.06837189129903537    0.06066244173716466    0.05305469676338587    0.04678978983096043    0.04236279311636788    
  0.03978501890934823    0.044062979369933974    0.04236287440749177    0.042362741502842874    0.04406319579775858    
  0.04756265384384985    0.05305477501668432    0.060409985353065285    0.06870914160729485    0.07618409360696717    
  0.08070140296943927    0.0807015054631587    0.07618430351705278    0.06870897181855215    0.06040991111222021    
  0.0530547173002116    0.04756303287753319    0.044062979369933974    0.04995618719076512    0.04756261722804781    
  0.04679012582815357    0.04756265390513923    0.049956433270879966    0.054251427565481083    0.06066243018852004    
  0.06870878841788544    0.07697544847160749    0.08339788523406198    0.08586723524169998    0.08339794368657756    
  0.07697513820471234    0.06870896952263604    0.06066245210153673    0.05425146742174779    0.04995618719076512    
  0.05696525886935445    0.05425175085916576    0.053054654283544965    0.053054777796728105    0.054251440055650385    
  0.05696537155481387    0.06166765283783147    0.06837182334140975    0.07618405154914108    0.08339775062725951    
  0.08786977299706403    0.08786958015029896    0.08339792545208848    0.07618430261062753    0.06837188858715561    
  0.061667626646733135    0.05696525886935445    0.06405959047273038    0.06166759641534266    0.060662227911623554    
  0.0604099795340017    0.06066241678344229    0.061667649201435755    0.06405937145844584    0.06832961351259807    
  0.07424994675393395    0.08070175530652478    0.08586691170445744    0.08786976432618415    0.08586723279176747    
  0.08070150543827613    0.07424981722090392    0.06832933935014715    0.06405959047273038    0.06947932862374008    
  0.0683296192348587    0.06837166106403532    0.06870914889770559    0.06870879240290259    0.06837182267739828    
  0.06832963155530326    0.06947952954091628    0.07230586849491835    0.07645681152203603    0.08070175917117237    
  0.08339775999655617    0.08339787330403606    0.08070138713842705    0.07645694140475932    0.07230618355144575    
  0.06947932862374008    0.07150436636367352    0.07230570448908498    0.07425006006880672    0.07618407346689009    
  0.0769754511605176    0.07618404924809825    0.07424994942061641    0.07230586191529914    0.07150437544208663    
  0.07230587456933568    0.0742499378934283    0.07618405778656608    0.07697545415718508    0.07618408779789104    
  0.07425005601614498    0.07230572033043689    0.07150436636367352    0.06947932037612613    0.07230619747552469    
  0.07645695006931354    0.08070139634405567    0.08339786927422292    0.08339775929610083    0.0807017567086094    
  0.07645680421137335    0.07230586862473835    0.06947953151650722    0.06832962990197737    0.06837183501467659    
  0.06870878737300415    0.0687091529025545    0.06837165115378076    0.06832960986480162    0.06947932037612613    
  0.06405960006212764    0.06832933892310478    0.0742498054022754    0.08070151237178216    0.08586722757110755    
  0.08786976361017365    0.0858669211554534    0.0807017437827051    0.0742499385266115    0.06832962534363546    
  0.06405936813016791    0.06166765094239048    0.06066241210284385    0.0604099804276684    0.06066223184548408    
  0.06166759138155228    0.06405960006212764    0.05696525687758338    0.061667627518994336    0.06837189548200001    
  0.07618431674102767    0.08339793724258678    0.087869572750561    0.08786976717643925    0.08339776725129823    
  0.07618405202794706    0.06837182562915464    0.06166765781404214    0.05696537600596797    0.054251437869995284    
  0.05305478070164738    0.053054653926248516    0.054251748904587886    0.05696525687758338    0.04995618540516008    
  0.05425145974613762    0.060662449856481865    0.06870897526676814    0.07697513973098134    0.08339793000726309    
  0.08586724652822761    0.08339787652152877    0.07697546055582333    0.06870878772186656    0.06066242792539228    
  0.054251437194457075    0.04995642523825679    0.04756264693966475    0.046790129905489364    0.04756262661526215    
  0.04995618540516008    0.04406298800972384    0.04756303515098545    0.05305470577637694    0.060409921889751785    
  0.06870897157706848    0.07618427995431515    0.08070150291253579    0.0807013944910459    0.07618406969051672    
  0.06870914657193247    0.06040997987356481    0.053054781343438724    0.04756265070290439    0.044063189599389485    
  0.04236274517308425    0.042362865790968894    0.04406298800972384    0.03978501202726176    0.042362794229070876    
  0.04678979129378952    0.05305471641748261    0.06066244189581291    0.06837188714850999    0.07424982907621333    
  0.07645694679200261    0.07425005893783813    0.0683716532833079    0.060662238707842285    0.05305465793001706    
  0.046790114036725686    0.04236273690566978    0.03978489506416353    0.038939501168926784    0.03978501202726176    
  0.03727441918150744    0.03893946115933681    0.042362795559731    0.047563037529579084    0.05425146328902353    
  0.06166762710064125    0.06832934305973278    0.07230619342539811    0.07230571206313444    0.06832960591112416    
  0.061667599582829837    0.05425175019727759    0.04756262363256521    0.0423628764143948    0.038939511894812255    
  0.03727453134705194    0.03727441918150744    0.03645934585826628    0.0372744222776074    0.039785014098192024    
  0.04406299166709035    0.04995618873195144    0.056965249865664196    0.0640596004377683    0.06947932308825173    
  0.07150437365831293    0.06947932188714516    0.06405959912096457    0.05696526202881857    0.049956184671004066    
  0.04406297763596901    0.03978501596249912    0.0372744201501224    0.03645934585826628    0.03738408782165113    
  0.03831489072527803    0.04116912773704724    0.04605150593138275    0.05287931798400107    0.061110552231062175    
  0.06945035426069547    0.07582331928400372    0.07821748971518296    0.07582356494247833    0.06945027144531565    
  0.06111052473393466    0.05287938795196662    0.04605123044423184    0.04116948644566124    0.03831475266222016    
  0.03738408782165113    0.038314751549539595    0.038314958501629394    0.039767006702289165    0.0427504432239555    
  0.04731519617574648    0.05322612055870003    0.059799490853657815    0.06570194652727489    0.06921204401890599    
  0.0692118635937158    0.0657019941586367    0.05979957073174026    0.05322598955992139    0.04731551991614127    
  0.04275012356228303    0.03976714497565464    0.038314751549539595    0.04116948854823904    0.04066066208123798    
  0.04116924256950565    0.04275020759762804    0.04555207169761135    0.04957851854118421    0.054483276619444805    
  0.05950897899103497    0.06336199807217446    0.06479845075102568    0.06336191725241197    0.05950886183773385    
  0.05448333083444363    0.04957840136149043    0.04555242251705367    0.04275011826424285    0.04116948854823904    
  0.046051229321997546    0.04552084191066024    0.045521107501921156    0.04605133630233186    0.047315487296960126    
  0.04957867673986937    0.0528205077236755    0.05665440726609248    0.060248004924315035    0.0624355982030785    
  0.06243571386177488    0.06024822641859063    0.05665442768705545    0.05282059314583512    0.04957841062975597    
  0.04731551387699503    0.046051229321997546    0.052879393307843255    0.053005314129592467    0.053107282301320925    
  0.05300520637454339    0.05287926455940667    0.053226087043342904    0.05448316094516193    0.05665433505015434    
  0.059286255402745146    0.06148489303347759    0.06233626597612936    0.061484817057945285    0.05928619685393194    
  0.05665440983507211    0.054483348134698975    0.05322598698514109    0.052879393307843255    0.06111052546144305    
  0.06282833393595277    0.06400871707900187    0.06400806960434184    0.06282879504283088    0.06111037531958036    
  0.05979951424118774    0.0595090773147741    0.060248294881477246    0.06148479463574339    0.062391161860250885    
  0.0623910058674175    0.06148480324703489    0.060248225809768054    0.05950885703017124    0.05979956165395395    
  0.06111052546144305    0.06945026258736522    0.07384370166764162    0.07747958709371318    0.07890230835407595    
  0.07747986564230155    0.07384364170199968    0.06945028444747167    0.06570206574364727    0.06336173296019576    
  0.06243567224801065    0.06233611947142329    0.06239116203352984    0.06233626135114193    0.062435713905020215    
  0.0633619137918332    0.06570199500216332    0.06945026258736522    0.07582356345066321    0.0837824816158382    
  0.09126934394754316    0.09593499994408591    0.0959352228139373    0.09126920264030663    0.08378261920399728    
  0.07582363183001728    0.0692119235371716    0.06479866694571898    0.06243567876051453    0.06148480131069643    
  0.061484884965966075    0.06243558874913764    0.06479845837871209    0.06921185874385397    0.07582356345066321    
  0.07821748408191342    0.089799137281653    0.10191127883099027    0.11139944589123743    0.11504971005750848    
  0.11139855630386142    0.10191193841499026    0.0897988103055954    0.07821772925770129    0.069211930712938    
  0.06336173336919128    0.06024829817729051    0.05928626043602022    0.06024800727462335    0.06336200234744435    
  0.06921204884417886    0.07821748408191342    0.07582331620782586    0.08979910377276065    0.1059734470448409    
  0.12081757913795368    0.12990511560558576    0.129905188796443    0.12081771705556663    0.1059733216128786    
  0.0897988130865811    0.07582362575062435    0.0657020833054418    0.059509082757050816    0.056654332712640046    
  0.056654409303503725    0.05950898441959328    0.0657019437436325    0.07582331620782586    0.06945034838335833    
  0.08378284072841648    0.10191166871871034    0.1208174801046686    0.13560644660671772    0.14128913278253974    
  0.13560681511254302    0.12081770687395973    0.10191192182352496    0.08378260665882425    0.06945028590962248    
  0.05979950747428216    0.05448314135828872    0.052820497967096675    0.05448326399476753    0.05979947771739199    
  0.06945034838335833    0.06111055237545763    0.07384312350451604    0.09126941897305382    0.11139897041543953    
  0.1299053883025906    0.1412900501059238    0.14128914935066975    0.12990520193549276    0.11139855565113865    
  0.0912692169411273    0.07384364828281323    0.06111038498412275    0.05322609719611126    0.04957867725521285    
  0.04957852875256424    0.053226126440260445    0.06111055237545763    0.052879319915168775    0.06282870378831924    
  0.07748008549152652    0.09593515525197484    0.11504968951884485    0.12990538068774438    0.1356064729394474    
  0.12990510769058775    0.11504972470592124    0.0959352113573632    0.07747988221768279    0.06282879133658394    
  0.05287925941502732    0.04731548212871971    0.0455520827902303    0.04731519473153562    0.052879319915168775    
  0.04605150336655554    0.05300503750958446    0.06400841021231828    0.07890213707165017    0.09593514826718305    
  0.11139892885307041    0.12081747697891497    0.12081757822803134    0.1113994472044821    0.09593497521746017    
  0.07890231433865753    0.06400807322548503    0.05300519920812804    0.04605133547889659    0.04275020501871121    
  0.042750435878728114    0.04605150336655554    0.04116912892645664    0.045521019929397784    0.05310731226060245    
  0.06400842005816432    0.07748006880022243    0.0912694272870375    0.10191167579928079    0.10597344201920311    
  0.1019112769915553    0.09126935413425614    0.07747959140470369    0.06400872107535925    0.05310726530994994    
  0.0455211035031711    0.041169254344176315    0.03976699878678201    0.04116912892645664    0.03831489729568392    
  0.04066066835265906    0.045521019994238125    0.053005038117499466    0.0628287158166387    0.07384312039910336    
  0.08378284263771299    0.08979909934483218    0.08979914505792046    0.08378247011092117    0.07384370660118544    
  0.0628283320747478    0.053005314777804055    0.045520839966605595    0.04066066823150655    0.03831495308766853    
  0.03831489729568392    0.03738408782165113    0.03831489072527803    0.04116912773704724    0.04605150593138275    
  0.05287931798400107    0.061110552231062175    0.06945035426069547    0.07582331928400372    0.07821748971518296    
  0.07582356494247833    0.06945027144531565    0.06111052473393466    0.05287938795196662    0.04605123044423184    
  0.04116948644566124    0.03831475266222016    0.03738408782165113    0.04007081028295346    0.04133248111916406    
  0.04522050293198689    0.051973313513772865    0.061670499491526184    0.073630274301571    0.08582672853262163    
  0.09519598928435921    0.09875908906929462    0.0951959968111727    0.08582704469360107    0.0736302597247632    
  0.061670197397608394    0.051973212772814595    0.045220773479489454    0.04133230719196864    0.04007081028295346    
  0.04133230352262066    0.04133224130148105    0.04296773432958276    0.04633262769544592    0.051590410907321305    
  0.05858928329514891    0.06646072604662344    0.0735432736827096    0.07780641454581064    0.07780655583748927    
  0.07354318986196709    0.06646071621751933    0.05858937656580343    0.05159065163337878    0.04633235475280958    
  0.04296785781099686    0.04133230352262066    0.04522077321082441    0.04487892761867033    0.04522075904258467    
  0.04633214959959558    0.04846897005947017    0.051769084066395174    0.0559694699023588    0.06037513822071166    
  0.06381403459834051    0.06511264807704698    0.06381399334132204    0.060375153625367994    0.05596923753275059    
  0.051769237820692926    0.04846913543788433    0.04633234611799441    0.04522077321082441    0.051973204718431844    
  0.052390455251202436    0.05239089059969924    0.05197338273316316    0.05159065906888655    0.051769600174539444    
  0.052715970687138    0.05433082338421915    0.05611639851844821    0.057258769036352505    0.057258574473574415    
  0.05611648673898686    0.05433103001825363    0.05271597152474615    0.05176924871977137    0.051590652167628766    
  0.051973204718431844    0.06167020310896021    0.06426509943929802    0.0652956693536539    0.06426455229219552    
  0.061670207000071066    0.05858920880240229    0.05596905540198251    0.0543307426372179    0.05370497165652204    
  0.053628591488637196    0.05364199217349918    0.053628884115501076    0.05370465349550239    0.054331017635219164    
  0.055969250763167645    0.05858937834603791    0.06167020310896021    0.07363025180378853    0.08028264964018304    
  0.08438531010028974    0.08438506787099402    0.0802829649753347    0.07363028387963401    0.06646093436363759    
  0.06037548892174587    0.05611675919283065    0.053628652523257096    0.05250825746797417    0.05250792293211237    
  0.05362887626914299    0.05611647741135706    0.060375156666258534    0.06646071684999753    0.07363025180378853    
  0.08582704631167815    0.09860186954175222    0.10858891213637235    0.11243122443370711    0.10858919829070751    
  0.09860203507515326    0.08582672782252965    0.07354301938537838    0.06381371205712218    0.05725850351956641    
  0.053642104475086556    0.052508251926993973    0.05364198009340905    0.05725857589003532    0.06381398715614493    
  0.07354318285857109    0.08582704631167815    0.09519600276971736    0.11530866157873662    0.13384382202366682    
  0.14528280008751282    0.1452823925017204    0.1338442073240552    0.1153085433009226    0.09519651529900833    
  0.07780662834192716    0.06511304964905511    0.0572585170092819    0.053628660515940306    0.053628588439826916    
  0.05725876618393796    0.06511264114376666    0.07780654461731873    0.09519600276971736    0.09875907502688362    
  0.12553524656235374    0.1535653137389336    0.17542205560253224    0.18378805133351814    0.17542117870921278    
  0.15356567066815527    0.12553512715518048    0.09875900828316109    0.07780663731811342    0.06381371532073729    
  0.05611675017277508    0.05370497271552788    0.05611639924357413    0.06381403854438668    0.07780641281522152    
  0.09875907502688362    0.09519599572905892    0.12553532712003734    0.16114133346378653    0.19369794075815927    
  0.21326579444616559    0.21326577249438392    0.19369779542691404    0.16114157925224845    0.12553513861174376    
  0.09519651297580063    0.07354302779335758    0.06037549841709294    0.05433074571079585    0.05433082375151448    
  0.06037514960905872    0.07354327382892799    0.09519599572905892    0.08582672321438675    0.11530892929251543    
  0.15356625162111387    0.19369751687738115    0.2242971502343321    0.23568500056753944    0.22429774410378933    
  0.19369776299839786    0.15356566641438235    0.11530853804947676    0.08582672901304708    0.06646092579443003    
  0.05596903579159514    0.05271596868915332    0.055969466924671134    0.06646072541051262    0.08582672321438675    
  0.07363027358093241    0.09860172641814162    0.13384428390150402    0.1754210164421443    0.21326663925731307    
  0.23568580068772324    0.23568499576112684    0.2132657957047668    0.17542118639535514    0.13384421040901673    
  0.09860204898284405    0.07363028700789225    0.05858921378127885    0.0517696041735678    0.05176908682294904    
  0.05858928381716685    0.07363027358093241    0.06167049591740528    0.08028307332532646    0.10858882840387803    
  0.14528276389650993    0.18378866175970318    0.2132666358860024    0.22429717756700943    0.21326578314560382    
  0.18378807338559366    0.14528237332067517    0.10858921501479102    0.08028296884308146    0.06167020072967247    
  0.05159064783783378    0.04846898029366559    0.05159041187951515    0.06167049591740528    0.05197330796627124    
  0.06426426836964044    0.08438520640648102    0.11243210880674166    0.1452827647745565    0.17542099044413045    
  0.19369750867777655    0.19369792871552655    0.17542204445998869    0.14528279250186532    0.1124312256275149    
  0.08438506810234976    0.06426454935794776    0.051973377375911574    0.04633214456197117    0.04633262355861818    
  0.05197330796627124    0.045220505565038226    0.0523909788053275    0.06529576644004707    0.08438521478525575    
  0.108588823218402    0.13384427871941432    0.15356626897963735    0.1611413253500576    0.153565302521444    
  0.1338438356676578    0.10858891230583041    0.08438531347720853    0.06529565781448256    0.052390884646172545    
  0.04522076700760661    0.04296772679106862    0.045220505565038226    0.04133248737673028    0.044878601213947024    
  0.05239097538154078    0.06426426691936304    0.08028308846208898    0.09860172562025292    0.11530892992098389    
  0.12553530975026367    0.12553526451025757    0.11530864384671691    0.09860187599877791    0.08028265255165057    
  0.06426510248497773    0.052390456251240315    0.0448789370100144    0.04133223653166881    0.04133248737673028    
  0.04007081028295346    0.04133248111916406    0.04522050293198689    0.051973313513772865    0.061670499491526184    
  0.073630274301571    0.08582672853262163    0.09519598928435921    0.09875908906929462    0.0951959968111727    
  0.08582704469360107    0.0736302597247632    0.061670197397608394    0.051973212772814595    0.045220773479489454    
  0.04133230719196864    0.04007081028295346    0.044129161100875024    0.04589591820697164    0.05145370984532711    
  0.06135095465883823    0.07589064902375355    0.09416938863958059    0.11304498907874734    0.12766198423358419    
  0.13326103198582576    0.12766157979271556    0.11304482698497692    0.0941689479995842    0.07589077687821011    
  0.06135088880105056    0.051453972971729614    0.04589595928194654    0.044129161100875024    0.04589595865500574    
  0.04589624682828569    0.04802045470491171    0.05247811888480766    0.05958644178550488    0.06922548294044943    
  0.08017047168185752    0.09008473620813837    0.0961446395877209    0.09614557191993235    0.09008451702793752    
  0.08017142014105551    0.06922510112205585    0.05958687740260426    0.05247777724935814    0.04802062655873587    
  0.04589595865500574    0.05145396648818793    0.051150213137947896    0.05145388853050425    0.05247732949254677    
  0.05460683566565705    0.05817208055976843    0.06294447234833381    0.06803223999723458    0.07206119010371395    
  0.07361078311995524    0.07206073362327466    0.06803218130082962    0.06294407509795323    0.05817242192541166    
  0.05460660204911849    0.05247777834337702    0.05145396648818793    0.06135088624568551    0.0625642827587733    
  0.06256402574669714    0.061351785059633186    0.05958637223986131    0.05817285948567112    0.05768195812736069    
  0.058163922322430374    0.059148772409298334    0.059881812896071335    0.0598815690872225    0.05914923004784435    
  0.0581637306844838    0.05768238225402849    0.05817243281578607    0.05958687522176087    0.06135088624568551    
  0.07589077932822373    0.08116065451748887    0.08319849019600783    0.081160251227334    0.07589047109568142    
  0.06922520673472826    0.06294404708463869    0.058163595486380865    0.055161637916102714    0.05360682760021921    
  0.05312515372565341    0.053607058400716334    0.055161449936136066    0.058163731996982784    0.06294407528498706    
  0.06922509598860654    0.07589077932822373    0.09416893430125939    0.10696387894634017    0.1147775916854294    
  0.1147780956435833    0.10696347830873022    0.0941696861640679    0.08017087607013977    0.06803291431735964    
  0.05914881389977055    0.053607572400595695    0.05100909262493298    0.05100933356339655    0.05360704335536427    
  0.0591492167537396    0.0680321896767946    0.08017142422573548    0.09416893430125939    0.11304480765537313    
  0.13709272163397287    0.15577356225937586    0.16288845390246606    0.1557734228573226    0.1370935005960717    
  0.11304466574608667    0.09008451233570793    0.07206080029741352    0.059881457793242256    0.053125033775930516    
  0.05100909803771937    0.05312514332099263    0.05988157448775074    0.07206072980490812    0.09008452013582487    
  0.11304480765537313    0.12766157447931303    0.16472697848470477    0.19861643972471682    0.21890958686095746    
  0.21890884876279984    0.19861752364451682    0.1647254745843275    0.12766252739351353    0.09614495879538831    
  0.07361157367953342    0.05988144190682988    0.05360758073656786    0.05360683134051013    0.05988180666692122    
  0.07361079712583102    0.09614556103092525    0.12766157447931303    0.133261018785532    0.1815252901351955    
  0.23118970567784236    0.267504613027586    0.28048218493231974    0.26750536578174255    0.2311909076106341    
  0.18152566025222602    0.13326149762169504    0.09614496716468929    0.07206079832409688    0.05914881161754381    
  0.055161634643732    0.05914877522714091    0.0720611862254982    0.09614465865720609    0.133261018785532    
  0.12766199653089724    0.18152594954697734    0.24330509980401976    0.29435007270848973    0.3204416878895483    
  0.32044122118913126    0.29434722102406685    0.24330587295493383    0.18152567528572364    0.12766251683094842    
  0.09008451740712772    0.06803291353197442    0.05816358993943931    0.05816392281060994    0.06803224701987683    
  0.09008473865267189    0.12766199653089724    0.11304496904806313    0.164725774447326    0.23119181659593144    
  0.29434856153880984    0.33294357224516713    0.34413762796603004    0.33294539820760516    0.29434717533292926    
  0.23119090838914322    0.16472546842865615    0.11304467201866387    0.08017087131760268    0.06294403273681695    
  0.057681946854227235    0.06294446500538807    0.08017046375748459    0.11304496904806313    0.09416938829370745    
  0.1370937186601418    0.19861633536532142    0.26750649681166633    0.32044127405958384    0.3441393644218458    
  0.34413765737069646    0.32044123834018484    0.26750535595914987    0.19861751010521597    0.1370935251944244    
  0.0941696921895247    0.06922521195803318    0.0581728677810616    0.05817208552746254    0.06922548518706115    
  0.09416938829370745    0.07589064931753696    0.10696359878727181    0.1557731318248184    0.21890996361802578    
  0.2804832982824015    0.32044124939531465    0.33294359830580095    0.32044165843733946    0.2804822015570138    
  0.21890883776961462    0.1557734381412064    0.10696348150269858    0.07589046815301534    0.059586360365105895    
  0.05460685140771032    0.05958644778182034    0.07589064931753696    0.06135094798832722    0.08116071571396534    
  0.11477778688090702    0.16289005671649304    0.21890997110677812    0.2675064522261502    0.29434854445860603    
  0.294350075933776    0.2675046193512162    0.21890955899909453    0.16288846860680917    0.11477808717284549    
  0.08116024523984154    0.061351776533011784    0.05247732580487136    0.05247811181794436    0.06135094798832722    
  0.05145371725465974    0.0625642298627221    0.08319819873622669    0.11477779923278196    0.15577312105190566    
  0.19861633143203697    0.23119183424582812    0.24330510890101117    0.2311897012656159    0.19861642637003024    
  0.1557735658769825    0.1147775991731751    0.08319847239381115    0.06256402346218426    0.05145389090604512    
  0.04802045162115833    0.05145371725465974    0.045895923947166385    0.05115051158094343    0.06256422379528595    
  0.08116072071481455    0.10696361305077788    0.13709371294106756    0.1647257623104768    0.18152592439613513    
  0.18152531516774328    0.1647269392501723    0.1370927278057461    0.10696387777967395    0.08116065504003914    
  0.06256427456133393    0.05115022330527725    0.04589623695845596    0.045895923947166385    0.044129161100875024    
  0.04589591820697164    0.05145370984532711    0.06135095465883823    0.07589064902375355    0.09416938863958059    
  0.11304498907874734    0.12766198423358419    0.13326103198582576    0.12766157979271556    0.11304482698497692    
  0.0941689479995842    0.07589077687821011    0.06135088880105056    0.051453972971729614    0.04589595928194654    
  0.044129161100875024    0.04874961404088586    0.05113531956376089    0.05877121117662873    0.07265776715899584    
  0.09340251725156609    0.11992297025180328    0.1477080859513561    0.16931183692342566    0.17755581529860864    
  0.16931223864146946    0.14770208129956625    0.1199222062614601    0.09340620081400698    0.07265722393088049    
  0.05877091565057036    0.05113578448049986    0.04874961404088586    0.051135778568030234    0.05113543370562594    
  0.05393035912407788    0.05995269495513066    0.06970609914251386    0.08302675610028787    0.09830290993002973    
  0.11228468860223181    0.12088738556983868    0.12088489817851276    0.11228519504179747    0.0983073882300005    
  0.08302730089576509    0.0697028363201277    0.05995389936109464    0.05392983700387205    0.051135778568030234    
  0.05877091088273879    0.05844292107634845    0.058771126783802335    0.059953820985355705    0.0625460437044002    
  0.06701902803970052    0.0731045070587323    0.07964025373637743    0.08484014296821421    0.08685405624153623    
  0.08484094811868202    0.07964034058980098    0.07310085912905702    0.067019232765866    0.06254828112068916    
  0.05995389937615571    0.05877091088273879    0.0726572261193657    0.07459068961988738    0.07459052445613443    
  0.0726568006919912    0.06970598131302626    0.06701857563685282    0.06551080153759217    0.06535536045950098    
  0.06602327007912397    0.06665571091572688    0.06665635212702395    0.06602237183953366    0.06535529118047945    
  0.06551365918891475    0.06701923897452615    0.06970282611902079    0.0726572261193657    0.09340619937168007    
  0.10153422447025738    0.10466121871658557    0.10153485571724258    0.09340250487853087    0.08302739735849553    
  0.0731043051005068    0.0653547557974063    0.06028415646809163    0.05757908096483372    0.05674759351666117    
  0.05757873893966123    0.06028497151890792    0.06535526800268207    0.07310086561506507    0.0830272905392505    