#     DFTpy    
  CRYSTAL 
    
  PRIMVEC    
  4.935710684509004    2.0649184483191725e-05    -5.177131034482759e-13    
  -2.467837459535133    4.2744612867134055    -1.0129310344827585e-11    
  -8.513158620689656e-13    -1.9723274482758616e-11    8.115075267011353    
  PRIMCOORD    
  4    1    
  Si    1.2286881448368714e-05    2.849647538982508    4.563705959974614    
  Si    2.46786093808664    1.4248343968804167    0.5061682665453288    
  Si    1.2286883302683886e-05    2.849647538981332    7.60890694053844    
  Si    2.4678609380946495    1.4248343969120736    3.5513693669430286    
  BEGIN_BLOCK_DATAGRID_3D    
  3d_datagrid_density    
  BEGIN_DATAGRID_3D#0    
  21    21    37    
  0.0    0.0    0.0    
  4.935710684509004    2.0649184483191725e-05    -5.177131034482759e-13    
  -2.467837459535133    4.2744612867134055    -1.0129310344827585e-11    
  -8.513158620689656e-13    -1.9723274482758616e-11    8.115075267011353    
  0.01648113119916468    0.017059449143635393    0.018993914015037063    0.02300856774793295    0.030398388965335556    
  0.04302124996542524    0.06315172811119149    0.09155646530084026    0.1246175449509811    0.1527798674540191    
  0.16401658633160346    0.15277986333246726    0.12461749881237663    0.09155643749068998    0.06315173611104637    
  0.04302125261400393    0.030398402981724925    0.023008567262833776    0.01899391339034816    0.017059442158890936    
  0.01648113119916468    0.017059444675494213    0.0170600540449905    0.018323093281326905    0.0213511978429768    
  0.027255851222026603    0.037891107690172    0.05582115406460935    0.08330757129813812    0.1192627310041579    
  0.15599685245477526    0.17995981088311788    0.17996693337800154    0.15601814658928875    0.11924671735150134    
  0.08329495118689453    0.05583747635344184    0.03788987857096562    0.027255335274022227    0.021350569539260796    
  0.01832374233148436    0.017059444675494213    0.018993918326858573    0.018323105288109046    0.018993634217725604    
  0.02135070767935622    0.026411184934408888    0.03620450610166705    0.05413794657952294    0.08421287330578976    
  0.1283235039206816    0.18080303800126163    0.22522913592879157    0.2427105682711676    0.2251953926585458    
  0.18080986333419338    0.1283623170383305    0.08420607429079416    0.054129248951105935    0.036206065601064555    
  0.02641348993249302    0.02135057341894802    0.018993918326858573    0.0230085713017738    0.021351215998227983    
  0.021350708383899703    0.02300922457626815    0.02725567589051789    0.03620725990611677    0.05398586607626967    
  0.08680969630880052    0.14058246226881868    0.2129630357076228    0.284142240519483    0.3267137995917402    
  0.32676388090342073    0.28413713625440196    0.21294094484193768    0.14058447147258182    0.0868125783544494    
  0.05399709134088749    0.03620605805818447    0.027255349205319735    0.0230085713017738    0.03039840032257294    
  0.027255864196174928    0.02641119631044028    0.02725567564802294    0.030396905635392532    0.03788963749071217    
  0.05413745103372932    0.08680878783692593    0.14598177906599208    0.23487522264526506    0.32876516182960913    
  0.38538707760854735    0.39960132951774946    0.3854215215495741    0.3288110286146462    0.23485805256226772    
  0.14599619359761784    0.08681258128692221    0.054129236005348844    0.03788986693382701    0.03039840032257294    
  0.04302124892597052    0.03789111825499459    0.036204512392477003    0.036207253840174605    0.037889621655239056    
  0.04302420863958448    0.05582237007368871    0.08421354714460538    0.14058719373488995    0.23485365102127284    
  0.34385356172374987    0.3987121945890999    0.3909168719418279    0.3908936363541791    0.3986243304269227    
  0.3439089333567722    0.23485804203636246    0.14058445072925693    0.0842060593410974    0.055837457328591356    
  0.04302124892597052    0.06315172401056716    0.05582115633873884    0.05413792769795347    0.053985852267428615    
  0.054137436589457216    0.055822358336745946    0.06316486128720887    0.08329033162464769    0.12835248384593623    
  0.21294534300695725    0.3288076575640119    0.3986831102098775    0.36821755002285866    0.3341995481774704    
  0.36828106974057667    0.3986243237264254    0.32881107175666285    0.21294097222815253    0.12836231378716256    
  0.08329495194881473    0.06315172401056716    0.09155645840001947    0.08330757207713572    0.08421286696887768    
  0.08680966207788153    0.08680877848388624    0.08421353774224448    0.0832903400420009    0.09156770422788243    
  0.11925367886568264    0.18081012323590082    0.28413540347704525    0.38542361485923227    0.3909029302735631    
  0.3342254748841847    0.33419956254086397    0.3908937541634848    0.385421575970607    0.2841372306373307    
  0.18080988908393342    0.11924672558353484    0.09155645840001947    0.1246175316247993    0.11926276866442294    
  0.1283235060426715    0.14058244421872557    0.1459817629314727    0.14058720519808576    0.12835253498870322    
  0.11925370766702045    0.12461249164557818    0.15602330249766796    0.22521171616110305    0.3267609548606916    
  0.399616040778052    0.3909029166960773    0.3682175154230106    0.3909169561920738    0.39960135524023443    
  0.3267638841467267    0.22519542675907583    0.1560181495804    0.1246175316247993    0.15277989055115207    
  0.15599686295196158    0.18080299799674246    0.2129630165048549    0.23487515375164386    0.23485360924955645    
  0.21294532365753674    0.18081011829274518    0.15602326373305575    0.15277147851907094    0.17998118781790778    
  0.24269396322129916    0.3267609617206212    0.3854235754477748    0.3986830843491279    0.39871224655764576    
  0.3853870149266734    0.32671379067937095    0.24271056822757847    0.17996690380221372    0.15277989055115207    
  0.16401652536122485    0.17995983360085072    0.2252291418170602    0.28414222223859287    0.32876510477971754    
  0.34385348384983766    0.3288077016062578    0.28413541579107054    0.22521172191800212    0.17998116663813923    
  0.1640128459374506    0.17998120382045307    0.22521170761826934    0.2841353643249974    0.32880773168577987    
  0.34385356551545554    0.32876516163251435    0.2841422539569036    0.22522913365443564    0.17995981223284704    
  0.16401652536122485    0.15277987189641543    0.17996692794683147    0.24271059432862202    0.32671373473478466    
  0.38538700677751386    0.39871214818124384    0.39868318915512724    0.3854236493004957    0.32676096239381486    
  0.24269393838776063    0.17998121568718156    0.15277153855044165    0.15602328334061144    0.1808101375208051    
  0.21294530592641367    0.234853628040903    0.23487516691665955    0.21296303500676933    0.1808030086356815    
  0.1559968146513363    0.15277987189641543    0.12461750974763865    0.1560182198237859    0.22519544698872432    
  0.32676383139127707    0.399601326170144    0.3909169555620327    0.3682176092667034    0.39090295415795295    
  0.3996160526411908    0.3267610397201541    0.2252117413561456    0.15602326209564518    0.12461248379581266    
  0.11925366427648357    0.12835253290336804    0.14058721849928832    0.14598179713152779    0.14058249202176318    
  0.1283234861537439    0.1192627326048671    0.12461750974763865    0.09155646287624895    0.11924676321690028    
  0.18080984552554824    0.2841371308320929    0.3854215121190216    0.3908936908216779    0.3341996011880195    
  0.33422557859585317    0.3909028551467567    0.3854235876483797    0.28413542390126595    0.18081013308159324    
  0.11925368765615636    0.09156767408249014    0.083290339328437    0.08421355537271474    0.0868088027698424    
  0.08680968292408091    0.08421286295787878    0.08330756176653038    0.09155646287624895    0.06315172636058843    
  0.08329498488692617    0.12836229650602393    0.21294095350774173    0.3288109719139493    0.3986243059523676    
  0.3682812315920398    0.3341995871499795    0.36821752093413956    0.3986830935096693    0.32880769219625394    
  0.21294535098476158    0.12835250394849274    0.08329030927871812    0.06316483609946479    0.055822360538912486    
  0.054137431588156766    0.05398584957260896    0.05413792710243757    0.055821142330301686    0.06315172636058843    
  0.04302124973797461    0.05583748091458255    0.08420605682510315    0.140584449405975    0.23485799554767578    
  0.3439088553966801    0.39862434168702343    0.39089367388438295    0.39091691785819704    0.39871214699351065    
  0.3438534902967418    0.23485358575723198    0.14058719372320252    0.08421350794888027    0.055822355747026695    
  0.04302422114211719    0.03788963579663106    0.036207250026644835    0.03620450683590794    0.03789109826367255    
  0.04302124973797461    0.03039839978245816    0.037889881693501194    0.0541292375127277    0.08681256796170991    
  0.14599613842383471    0.23485803279032733    0.3288111046939719    0.38542158748212507    0.3996013612480871    
  0.38538704656693523    0.3287652139910021    0.23487523778916725    0.14598177099404058    0.0868087807108543    
  0.05413742274422144    0.037889634933775854    0.030396911605332512    0.027255668905828083    0.02641119528967736    
  0.02725584454978125    0.03039839978245816    0.02300857281902192    0.02725535937170925    0.03620606165857569    
  0.053997088105577656    0.08681256553049237    0.140584447051615    0.21294097066524348    0.2841372130931138    
  0.32676386826458254    0.3267137786103641    0.28414224285976397    0.21296304290167212    0.14058247070608804    
  0.0868096786529104    0.053985859313294325    0.036207271558245734    0.027255688486619734    0.023009234285964277    
  0.02135070954327133    0.02135120362630596    0.02300857281902192    0.018993916300241095    0.021350576985776793    
  0.02641348363213054    0.03620605289682033    0.05412922502467878    0.08420603811391404    0.12836231295624909    
  0.1808098788842643    0.2251954406042844    0.24271058165430937    0.22522911702688894    0.18080302440358692    
  0.1283235255665589    0.08421284863708148    0.05413791874926524    0.03620452460670705    0.026411197783877356    
  0.021350711407007773    0.018993635929681254    0.018323094206076376    0.018993916300241095    0.01705944344381636    
  0.018323760272018482    0.02135056748198564    0.027255349551079694    0.03788986206718236    0.05583746694934342    
  0.0832949523452616    0.11924673701413832    0.15601815124842336    0.17996691881948965    0.1799597834414169    
  0.15599686590902534    0.11926269163669231    0.08330753821211768    0.05582114075638647    0.037891120507742036    
  0.027255850627569918    0.021351203339115155    0.018323093882945708    0.017060044779317114    0.01705944344381636    
  0.01648113119916468    0.017059449143635393    0.018993914015037063    0.02300856774793295    0.030398388965335556    
  0.04302124996542524    0.06315172811119149    0.09155646530084026    0.1246175449509811    0.1527798674540191    
  0.16401658633160346    0.15277986333246726    0.12461749881237663    0.09155643749068998    0.06315173611104637    
  0.04302125261400393    0.030398402981724925    0.023008567262833776    0.01899391339034816    0.017059442158890936    
  0.01648113119916468    0.016287305610069858    0.016853490758795324    0.018749892222466574    0.022680213255232614    
  0.02988630045458083    0.042138128086215275    0.061559980194569555    0.08886548206975059    0.12054553757221957    
  0.1474533107458283    0.15818838417461953    0.14745486929147153    0.12050265836456064    0.08887299699450665    
  0.061591218736803614    0.04213020006444687    0.02988386843647296    0.022680162276589796    0.018750567768516985    
  0.016853498111052904    0.016287305610069858    0.01685350068076356    0.016853836508590944    0.01818473864052959    
  0.021395263888394384    0.02767574857834609    0.03908316349973405    0.05851768239424317    0.08850481098161946    
  0.12792627889011615    0.1683088078785273    0.19465510124469576    0.19466252028239323    0.16837338227454854    
  0.12791531834270506    0.08846380814115841    0.05853327186562714    0.03908717863381493    0.027675762734743526    
  0.021394643113304215    0.018184900118928423    0.01685350068076356    0.018750572786250728    0.017998913865244354    
  0.018749939255249447    0.021394918141703217    0.027109271360196734    0.03830726988325735    0.05912995568275211    
  0.0946576184835739    0.14741804839549494    0.21015072087986045    0.26241542645613847    0.28260218809537374    
  0.2623173178774286    0.21016437212844027    0.14749155250591323    0.09464025427741041    0.059127113324172725    
  0.03830671985738473    0.027111782766716816    0.021394647764118865    0.018750572786250728    0.022680170786726003    
  0.02071992486096785    0.02071970313070052    0.022680705557712365    0.027675314490736142    0.03830664125761968    
  0.05978032961625248    0.10014688658512733    0.16712922252754622    0.25596824544587915    0.33689679943225603    
  0.37897991950189647    0.3791200249842227    0.33688493906286987    0.2558852863159633    0.1671569072273563    
  0.10015644696971605    0.05978380453142743    0.038306712978939686    0.027675778102236665    0.022680170786726003    
  0.029883864221775882    0.025984785486652277    0.024903877554430826    0.025984926511211513    0.029882328010614304    
  0.03908940505867713    0.059123468221777296    0.10015653897429302    0.17535305531166953    0.2846471665391708    
  0.3798848003711189    0.40537845572884823    0.39842753358673755    0.40543301375280477    0.3800184400614838    
  0.28460687201524254    0.17535607212273066    0.10015643147492109    0.0591270783898377    0.039087156717025076    
  0.029883864221775882    0.0421302049656954    0.03529207643942722    0.03284343449677816    0.03285222178567383    
  0.03528295108447648    0.04213945704876572    0.05851816285280031    0.09465811538239771    0.16713149810317685    
  0.28461503691480455    0.3895924246506022    0.37214339657561774    0.29415446604175916    0.29410216800194044    
  0.37193816890547055    0.3897286204943631    0.28460686692723525    0.16715687678893107    0.09464024962343119    
  0.05853324741645049    0.0421302049656954    0.061591221215432514    0.05063439622660458    0.04701517365267225    
  0.04615385136409572    0.047016953909501766    0.050633615250689476    0.06159620870237187    0.08845785201172167    
  0.14749673457724324    0.25587733100445514    0.3800274079317184    0.3720592431395423    0.23494872382352047    
  0.17003335194565666    0.2351002399619528    0.3719382524541417    0.38001845005599444    0.2558853401072133    
  0.14749154212732046    0.08846381953828718    0.061591221215432514    0.08887302203595213    0.07381005204128717    
  0.07009457893586805    0.07008256340804951    0.07007746208089043    0.07009797660577993    0.07380429296529478    
  0.08888168557531806    0.12790663148767095    0.21017893425621878    0.33686868707760326    0.40540909817021087    
  0.29413740024870666    0.17010733530630093    0.17003338341440616    0.2941022009823328    0.40543302863095176    
  0.3368849878297545    0.2101643666626342    0.12791532899638053    0.08887302203595213    0.12050266246901647    
  0.10372307436653475    0.10315160975497542    0.10826552908733732    0.11085213513112743    0.10826686355167843    
  0.1031597374531365    0.10371886194034645    0.12051233400804275    0.16836832003746977    0.26234362033704084    
  0.3791319932759783    0.3984096530153553    0.2941373740035519    0.23494869977037375    0.29415451337418    
  0.39842753563845035    0.3791200533206933    0.26231733779350463    0.16837337035874195    0.12050266246901647    
  0.14745489082285915    0.13393747738962603    0.14200753905883948    0.1592586859975156    0.1724527543468678    
  0.17243422518564885    0.15927792022714898    0.1419935646342786    0.13395894916462056    0.14743752040577454    
  0.19469734115219328    0.2825328316832095    0.3791319187122159    0.4054091507706018    0.3720591131080951    
  0.3721434578611005    0.4053784067990416    0.37897997336943895    0.28260220534568775    0.1946624968404927    
  0.14745489082285915    0.15818835831572503    0.15354177761053134    0.174868788201923    0.21113516764050955    
  0.24407724337099154    0.25708741907905225    0.24407415280032188    0.21114252176731202    0.17486876040432867    
  0.153555822746102    0.1581816941655431    0.19469734226302918    0.26234361753067403    0.33686870785164913    
  0.38002750749747666    0.3895924641673931    0.379884789856592    0.3368967769604024    0.2624153822025194    
  0.19465512167494606    0.15818835831572503    0.14745331347272475    0.153547588839742    0.1878662895293258    
  0.2442960814134803    0.30033557937194355    0.33184391474954655    0.3318468205348755    0.3003545677156015    
  0.24430428821207215    0.18786626204561024    0.15355583515419274    0.14743757811335026    0.16836829406957945    
  0.2101788977416451    0.2558772664874441    0.2846149853766979    0.284647149821028    0.2559681577312161    
  0.21015068860960578    0.1683087949785466    0.14745331347272475    0.1205454933231293    0.13394215070851342    
  0.1748612347934075    0.24430749719726166    0.3208521459061385    0.36838423754659294    0.3807879479774394    
  0.368382620748843    0.320865267490429    0.24430430048557422    0.17486882187727984    0.1339589622892085    
  0.12051231607823704    0.1279066130316364    0.1474967729002812    0.16713151303014304    0.17535307081358276    
  0.1671292234764902    0.14741800602688243    0.12792628394799616    0.1205454933231293    0.08886548575117745    
  0.10368486205821753    0.14200785457681364    0.21113503175744874    0.30035005713793345    0.3683755333865659    
  0.39106101888673933    0.39104139112014746    0.36838253380166625    0.30035457002802624    0.21114255311356606    
  0.14199357337902802    0.10371886036793049    0.08888165616333507    0.0884578506315171    0.09465810654695421    
  0.10015654877931153    0.10014686924074054    0.09465761746740067    0.08850480468814577    0.08886548575117745    
  0.061559961535313554    0.07381257809963407    0.10319127336783394    0.1592647860573479    0.24407976565198125    
  0.3318330401072448    0.3807869999368931    0.3910609710163234    0.3807878734978032    0.33184675161276134    
  0.24407415314057182    0.15927794993782132    0.10315972165690969    0.07380426248413559    0.061596185685446565    
  0.058518167407416555    0.0591234516695575    0.05978030982529834    0.05912992794721434    0.058517661620804975    
  0.061559961535313554    0.042138126985605553    0.050664042272161265    0.07009196659552129    0.10823676102170421    
  0.1724459025329515    0.2570989133688022    0.3318330247138756    0.3683755288454523    0.3683842618674134    
  0.33184390462579993    0.2570874234141336    0.17243424190029258    0.10826685656971488    0.07009795996924277    
  0.05063360784441028    0.04213946666843973    0.03908940850276451    0.03830663202381384    0.038307279067525825    
  0.03908314678055482    0.042138126985605553    0.029886299633851032    0.035286066628225414    0.04698913710986238    
  0.0700834293651896    0.11088523294520365    0.17244590733894372    0.24407987408847384    0.3003500648649744    
  0.32085206601858113    0.30033562474741726    0.2440773102514139    0.1724528138790698    0.11085214809891215    
  0.07007744677026904    0.04701694141320994    0.035282979384091216    0.029882329998360598    0.027675307477789995    
  0.027109270915387184    0.027675737700781872    0.029886299633851032    0.02268021311498041    0.02598171928738958    
  0.03284859904662938    0.046181293817180114    0.07008343457986509    0.10823675339603152    0.15926476247619767    
  0.21113501981909258    0.24430752805128106    0.2442961422429461    0.2111351381508201    0.15925870736054198    
  0.10826556495965992    0.07008254033672288    0.04615386771533399    0.03285222499152458    0.025984940360076373    
  0.022680710826603    0.02139492846707253    0.02139526870821638    0.02268021311498041    0.01874988818034414    
  0.020719724763740278    0.02490756223024411    0.032848605606473326    0.04698912785178044    0.07009193679364742    
  0.10319127924766755    0.1420078887326356    0.1748612091740079    0.18786625022161346    0.17486881899296267    
  0.1420075337286129    0.1031516151332347    0.07009456410883247    0.04701516556835202    0.03284343434310431    
  0.02490387973120548    0.02071969697726768    0.018749936351811495    0.018184738266444476    0.01874988818034414    
  0.016853485966629795    0.01799952144735861    0.020719722009038818    0.025981711988307215    0.03528604828289936    
  0.05066403701066826    0.07381255936662859    0.10368484971339006    0.13394208072222644    0.15354754095534814    
  0.15354175425020739    0.1339374951257651    0.10372300802247326    0.07381002129223779    0.05063437747375722    
  0.035292075659171376    0.025984766453938223    0.020719915986152252    0.017998905364126325    0.0168538286171491    
  0.016853485966629795    0.016287305610069858    0.016853490758795324    0.018749892222466574    0.022680213255232614    
  0.02988630045458083    0.042138128086215275    0.061559980194569555    0.08886548206975059    0.12054553757221957    
  0.1474533107458283    0.15818838417461953    0.14745486929147153    0.12050265836456064    0.08887299699450665    
  0.061591218736803614    0.04213020006444687    0.02988386843647296    0.022680162276589796    0.018750567768516985    
  0.016853498111052904    0.016287305610069858    0.015721981667224164    0.016258828401999027    0.01805224435294711    
  0.021735561863230973    0.02840897347158875    0.0396246500515839    0.05715560138998709    0.081477564209871    
  0.10940114566465702    0.13292510886696318    0.14227205177038507    0.1329282298208438    0.1093383966092026    
  0.08148625262540604    0.05720212895646712    0.03961410782421367    0.028404199881028835    0.021735979451813423    
  0.018052843662428025    0.016258917956884823    0.015721981667224164    0.016258923891509694    0.01625887909126446    
  0.017601185841214912    0.020824481809465736    0.027092057260602195    0.03846675268901671    0.05783785760042215    
  0.08765975793662845    0.12675034454692805    0.16662836701730904    0.19257181518171607    0.1925827940667838    
  0.16671918702797112    0.1267428308938034    0.08760017377448673    0.05785569991732579    0.03847426465501808    
  0.027091499755145902    0.02082452220144558    0.017601008614470018    0.016258923891509694    0.018052852349073917    
  0.01725932580261018    0.018052457746220586    0.02082457316935994    0.026788089209792892    0.03851092410549033    
  0.060421482154521214    0.09798179312120076    0.1538685636350651    0.21988216768977667    0.27401656912077127    
  0.29460156386571745    0.2738730699763965    0.2198943799559661    0.1539681822203647    0.09796139271697085    
  0.06041509375345393    0.03851196979095507    0.026789671028034763    0.020824529077187535    0.018052852349073917    
  0.02173598721325005    0.01961397572076399    0.01961428771214203    0.021735501028913147    0.02709167125394009    
  0.038510020355193866    0.06173020682966887    0.10570359512874901    0.17881060704202137    0.27407809889777957    
  0.35545036807066943    0.39256067493178354    0.39275471351932456    0.35544440017768186    0.27395753614952184    
  0.1788427384957712    0.10572356072743161    0.06172915291760317    0.03851196134981366    0.027091513440668628    
  0.02173598721325005    0.028404191687082015    0.02411411056376046    0.02290678855255044    0.024114514066458623    
  0.028402786420711583    0.038476668484109716    0.06040996531474401    0.10572098312152317    0.18896303941585013    
  0.30641998213663474    0.39323835521073847    0.3909006302469451    0.36902247067843563    0.3909656433694937    
  0.3934130313277871    0.30638203248004797    0.1889510195093108    0.10572355103759619    0.06041506653546834    
  0.03847425849177615    0.028404191687082015    0.03961410151175739    0.03186427401533497    0.028999110283093817    
  0.029011363071837812    0.03185112340918347    0.039627618502925975    0.05783616852369448    0.09798644632265562    
  0.1788053754109832    0.30638695376021    0.3975878961425837    0.3288358877982925    0.220231709390427    
  0.22016199013700805    0.3285951410492637    0.3977545186382927    0.30638208645023884    0.17884271018246678    
  0.09796135277293296    0.05785568240517841    0.03961410151175739    0.05720213324327951    0.044245964996343395    
  0.039473834856240696    0.03818349379954354    0.03947542965863496    0.04424446234439966    0.05720618611067643    
  0.08759264770492407    0.15397889286032274    0.27394138188389683    0.3934380075949304    0.3287316546334396    
  0.15413172858044738    0.0917605126724007    0.1542925809172857    0.32859521500383243    0.3934130327549901    
  0.27395750647990974    0.1539681535587683    0.08760018815775365    0.05720213324327951    0.08148627542523718    
  0.0624935038760109    0.05585773008609599    0.05411911152479388    0.05411401347403187    0.055862033290693135    
  0.062488740647837056    0.08149508876797731    0.12672865228577143    0.21991552795469005    0.35541595922166347    
  0.3909168742392123    0.22022330147261088    0.09182435625368768    0.09176051094737857    0.2201620314429748    
  0.39096564472755124    0.3554444319961205    0.21989435670623086    0.12674283377682807    0.08148627542523718    
  0.10933840513782456    0.08552668912009985    0.07854737713119116    0.07860832345122022    0.07918849687707903    
  0.07860852543307748    0.07855095327304383    0.08552351336897161    0.10934840383422174    0.16671530538612775    
  0.27390136661824344    0.392789916733947    0.36896749390406774    0.22022328287800622    0.1541317312674848    
  0.22023177935916333    0.3690224578437994    0.3927546670193547    0.2738730654607777    0.16671921164500753    
  0.10933840513782456    0.13292824015109284    0.10834205589086468    0.10456701278796807    0.1103182561862397    
  0.11618119036053003    0.1161595271137208    0.11034372206686043    0.10454578368804195    0.10836777354033243    
  0.13290089094480056    0.1926274909169609    0.29449356526667175    0.3927898982425827    0.39091691863611316    
  0.3287316060985511    0.3288359423750373    0.3909005482923811    0.39256061371797185    0.29460160806975655    
  0.19258279636036252    0.13292824015109284    0.1422720245960058    0.12297012814488681    0.12618787542501994    
  0.1423325340397323    0.15968511934565577    0.16703861009151894    0.1596795852314184    0.14233999055446456    
  0.12618708583241647    0.12298197713081017    0.1422668966093483    0.19262748652489411    0.27390141317881767    
  0.35541593703458657    0.39343808875879277    0.39758790084183987    0.3932383684437469    0.3554503612704833    
  0.2740165024748738    0.1925718137909334    0.1422720245960058    0.1329251012854073    0.12297642071629745    
  0.13467024546692224    0.16300736770176902    0.1962339405052041    0.21846405034007782    0.21846903979083118    
  0.1962393763956369    0.16301152712858583    0.13467025422901108    0.12298199143421865    0.13290092248969135    
  0.16671529288164635    0.2199154652755756    0.27394135024289784    0.3063869149315343    0.30641997737483967    
  0.27407804518695933    0.2198821135509029    0.16662834971052795    0.1329251012854073    0.10940114163906432    
  0.10834528540466029    0.12618236866023017    0.1630122400194493    0.210632934463474    0.2507272965555389    
  0.2661495731718928    0.25072903188937473    0.21063782806111953    0.16301154643445667    0.12618711674778765    
  0.10836779304555956    0.10934840554616536    0.12672863250578567    0.15397888747687904    0.17880541497599287    
  0.18896304414958584    0.1788105954492363    0.15386853472414694    0.1267503479490591    0.10940114163906432    
  0.08147756994092357    0.085474811582299    0.1045642993609514    0.14233470767325782    0.1962391749834815    
  0.2507212541659016    0.28393987762487877    0.2839229477219798    0.25072899903774865    0.19623934910214075    
  0.14233998833045902    0.10454580570935926    0.08552349991066517    0.08149506128968455    0.08759266558150162    
  0.0979864392606992    0.10572098359407733    0.10570358174875777    0.09798176943354121    0.08765974066278366    
  0.08147756994092357    0.057155591114000315    0.06249827024944123    0.07859349155878757    0.11032806613901529    
  0.1596800944697532    0.2184671106415154    0.2661446461027135    0.28393989172468714    0.26614950356658323    
  0.21846902025221338    0.15967957851146514    0.1103437312968374    0.07855094107997188    0.062488708930729345    
  0.05720615629268659    0.05783615787747388    0.06040993746391521    0.06173018531513044    0.060421448411666315    
  0.05783782608408077    0.057155591114000315    0.039624652270914204    0.04428511928176763    0.05585515428942098    
  0.07856725684190674    0.11617324187330455    0.16704281865314907    0.21846718602859216    0.25072122836646765    
  0.2507272704963636    0.21846401515319713    0.1670386598375402    0.11615953780943446    0.07860854360770993    
  0.05586200435917    0.044244460644276375    0.03962762793111069    0.03847667183298881    0.038510015454798326    
  0.03851093348529213    0.03846673044558383    0.039624652270914204    0.028408976983957075    0.031855868896239155    
  0.039437984796466936    0.054119640601583995    0.07922970157758437    0.11617327165019423    0.15968014101509068    
  0.19623917290235807    0.21063291511100826    0.1962339661602415    0.15968513923947253    0.11618124307606781    
  0.07918849675489303    0.05411402175750986    0.0394754123862539    0.03185115033089184    0.02840278755157805    