#     DFTpy    
  CRYSTAL 
    
  PRIMVEC    
  5.042206896551723    0.0    0.0    
  0.0    5.042206896551723    0.0    
  0.0    0.0    2.777931034482758    
  PRIMCOORD    
  4    1    
  Si    0.0    0.0    0.0    
  Si    2.5211034482758614    2.5211034482758614    1.388965517241379    
  Si    0.0    2.5211034482758614    0.6944827586206895    
  Si    2.5211034482758614    0.0    2.0834482758620685    
  BEGIN_BLOCK_DATAGRID_3D    
  3d_datagrid_density    
  BEGIN_DATAGRID_3D#0    
  23    23    13    
  0.0    0.0    0.0    
  5.042206896551723    0.0    0.0    
  0.0    5.042206896551723    0.0    
  0.0    0.0    2.777931034482758    
  0.05590418546989815    0.09889071134011507    0.25185576724144976    0.40183704947112636    0.39373063588127355    
  0.32687660404543656    0.2940147210754202    0.3070135638914655    0.3488487290993007    0.3838053920679518    
  0.3871284134539169    0.38078635558046314    0.38712842153398486    0.3838053943752476    0.34884869924599554    
  0.30701359384038784    0.2940147103635168    0.32687656189732767    0.39373058423825663    0.40183706310291456    
  0.25185575377487535    0.09889072887751627    0.05590418546989815    0.09889071513220905    0.14858469766603136    
  0.293758514821775    0.40288911137627675    0.3733518504571202    0.30641841157417854    0.27531102991159884    
  0.2876366705500285    0.32875312150282265    0.36813751171494247    0.3810672967700524    0.37992292616328555    
  0.38106734906018974    0.3681375217052879    0.328753105964476    0.2876366752994197    0.27531101400181823    
  0.3064184477363735    0.37335180612071417    0.4028891515104418    0.2937585091238937    0.14858470881051286    
  0.09889071513220905    0.2518557413786452    0.29375847049769116    0.37296336394806884    0.3829459987614293    
  0.31800143480417903    0.2551138813562283    0.22862169866461454    0.23887992440877784    0.2759483671516258    
  0.3196121168783148    0.3479321627603231    0.35616246252092243    0.3479321855365038    0.31961211152697105    
  0.2759483984748903    0.23887994198870816    0.22862171602332026    0.25511388285813646    0.3180013850528239    
  0.38294599214354336    0.3729633483653799    0.2937585097972062    0.2518557413786452    0.4018370179471981    
  0.40288905581590695    0.382945936273819    0.32114832341505023    0.24706085071727116    0.19545418356530803    
  0.17496343705168946    0.1824228113090134    0.211536147036197    0.25010196595196    0.2817082156354543    
  0.29372520810485714    0.28170824445802706    0.2501019792287949    0.21153615688212196    0.182422834025019    
  0.17496344486875973    0.19545419866040992    0.24706086612360348    0.32114833785434443    0.3829459727471195    
  0.40288912897738927    0.4018370179471981    0.39373061724505237    0.3733518735530399    0.31800141746439187    
  0.24706089277419033    0.18536274706202543    0.14650242073097103    0.13127916969149545    0.1362807011862517    
  0.15707882136192067    0.18591722953573506    0.21127083820799913    0.22148553899032358    0.2112708273249609    
  0.18591723359801904    0.1570788265966061    0.13628072244972028    0.1312791771054255    0.14650242576697597    
  0.18536275220476855    0.24706088129032955    0.3180014535780417    0.3733518686772667    0.39373061724505237    
  0.3268765703774965    0.30641845124457784    0.25511387597578655    0.1954542315345631    0.14650242252499898    
  0.11608437965162334    0.10402081324231924    0.1073338065163301    0.12241222106089973    0.1437483422120338    
  0.16270843546840524    0.17032815810551702    0.1627084740946482    0.14374833498729755    0.1224122198046358    
  0.10733381055401339    0.10402080792182625    0.11608437453873849    0.14650242220716173    0.19545421496792517    
  0.2551139322911436    0.3064184622970072    0.3268765703774965    0.29401476328823245    0.27531104201534556    
  0.22862170027460482    0.17496347090488312    0.13127918183293316    0.10402082115197107    0.09293734913172305    
  0.09523894397375454    0.10768882418736979    0.12569845878288244    0.1417506823722054    0.14815622868386802    
  0.1417506963743736    0.12569843966307195    0.10768882749058574    0.09523894512115655    0.09293735825770356    
  0.10402080480821531    0.13127918841339212    0.1749634615889432    0.22862173995139537    0.2753110916582103    
  0.29401476328823245    0.30701356549263115    0.2876367021143181    0.23887992690722176    0.18242284427647282    
  0.1362806971245762    0.10733381283426816    0.09523893702813681    0.09712425623613355    0.10973421336788249    
  0.1282204041356584    0.14478748131632002    0.15145955284033508    0.1447874619951691    0.12822038073970993    
  0.10973420841324738    0.09712427016672559    0.09523895671195419    0.10733381526832615    0.1362807005014085    
  0.18242281853717954    0.2388799288648278    0.28763670656174245    0.30701356549263115    0.3488486898793235    
  0.32875305323791226    0.2759483231580088    0.21153614848585978    0.15707880067194468    0.12241221423163434    
  0.10768881523621249    0.10973420555309461    0.12479426572640316    0.1468444782752415    0.16669949299680095    
  0.1748163821909327    0.16669951792351734    0.1468445010810315    0.12479424636505086    0.10973420386959049    
  0.10768881882626641    0.1224122055733438    0.15707880288663936    0.21153614091587064    0.2759483676700034    
  0.3287530790738769    0.3488486898793235    0.3838053585186056    0.3681375349448906    0.31961209852553735    
  0.25010196015146285    0.1859172308395506    0.1437483268640819    0.12569843691691543    0.12822038499230803    
  0.14684449727301024    0.17426017594677967    0.1991827542410599    0.20946080040290155    0.19918273762617605    
  0.17426017906576138    0.14684452623458752    0.12822040199078047    0.12569844065969857    0.1437483458734288    
  0.18591718418272893    0.25010198870513856    0.3196120905784155    0.3681375442834748    0.3838053585186056    
  0.38712840421029754    0.3810673220896435    0.3479322072137213    0.2817082266367627    0.21127081080897925    
  0.16270844521331118    0.14175067058967206    0.14478745900886678    0.1666995222113377    0.1991827474105162    
  0.22874459673684608    0.24087332248418838    0.2287446293731274    0.19918276000500243    0.16669953036313037    
  0.14478744544221303    0.14175067100010014    0.16270846353537985    0.21127081272001472    0.2817082685011027    
  0.3479321762190334    0.3810673331274542    0.38712840421029754    0.38078638023138284    0.3799228893366422    
  0.3561624419023896    0.2937252522149955    0.22148554995470537    0.17032813530961408    0.14815621395259032    
  0.15145954567016431    0.17481638385102277    0.20946082528830615    0.24087332872451317    0.25366844718218634    
  0.24087334118124712    0.20946081818457796    0.17481640625809988    0.15145957665107915    0.14815619780400535    
  0.17032813734691468    0.22148549288557204    0.293725242772116    0.35616242063874226    0.3799229189783959    
  0.38078638023138284    0.3871284836589975    0.3810673053269143    0.3479322254222797    0.2817082416822708    
  0.21127082239008982    0.16270843510956107    0.14175065741210813    0.14478745304032528    0.1666995135445851    
  0.19918275514175546    0.22874460241941047    0.240873337784328    0.22874462197557177    0.19918276010520372    
  0.16669953436423532    0.14478746682326205    0.14175066295537825    0.16270845899059114    0.21127082829171903    
  0.281708260732328    0.3479321875627572    0.381067330747095    0.3871284836589975    0.3838053350121994    
  0.36813749748542235    0.31961213063846916    0.2501019582640388    0.1859172310621311    0.14374833925805847    
  0.12569841524230688    0.12822039066546287    0.14684451067045173    0.17426017928252271    0.19918276845628494    
  0.20946078798250656    0.199182746726004    0.17426019380375907    0.14684450055331258    0.12822041071808787    
  0.12569844837066188    0.1437483362183782    0.18591720086834113    0.25010198461729605    0.31961209865529083    
  0.36813752729520083    0.3838053350121994    0.3488486707188881    0.32875306027769297    0.27594833038924554    
  0.2115361419595208    0.15707880894836515    0.12241221867810226    0.10768881316963018    0.10973418542438336    
  0.1247942522810075    0.1468444883549091    0.1666995137205125    0.17481637913166662    0.16669949797169648    
  0.14684449180380504    0.12479424847494637    0.10973420069848276    0.10768881806284301    0.12241221510560735    
  0.15707881433586998    0.21153613253263795    0.27594833960822496    0.32875311177556976    0.3488486707188881    
  0.3070135738572045    0.2876366914000372    0.2388799247922058    0.18242282540722873    0.13628071294448327    
  0.10733382040034828    0.09523893775906486    0.0971242520106182    0.10973421568647292    0.12822039123432055    
  0.14478746371084936    0.15145955910760073    0.144787461085677    0.12822039365905283    0.10973421290244889    
  0.09712426774023894    0.09523894076663787    0.10733380012040783    0.13628070172884751    0.18242281624504106    
  0.23887995243281634    0.2876366760370292    0.3070135738572045    0.29401474142326267    0.27531106258816157    
  0.22862170722902275    0.17496347782035407    0.13127917746463805    0.10402081951776611    0.09293734719342997    
  0.09523895939527484    0.10768880632235113    0.12569844147222067    0.1417506824836524    0.1481562119118534    
  0.141750686136345    0.12569843345573836    0.10768881253586554    0.09523893911300507    0.0929373528292491    
  0.10402080469431983    0.13127918561670754    0.17496347111880722    0.2286217223878237    0.27531104276342    
  0.29401474142326267    0.32687661523648365    0.3064184488634291    0.2551138851879354    0.19545422243049085    
  0.14650241086328972    0.11608438024437344    0.10402081046597843    0.10733380843645242    0.12241221496889322    
  0.14374833943933799    0.16270845597852632    0.17032815722684586    0.16270847718119782    0.14374833066176293    
  0.12241222245328243    0.10733380477518475    0.10402080750424553    0.11608436205446081    0.14650240521799343    
  0.19545421864164547    0.2551139132408933    0.30641850384759955    0.32687661523648365    0.39373066049975824    
  0.37335187889878185    0.3180014245529958    0.24706087785210187    0.18536274832143973    0.14650243159443893    
  0.13127917200153214    0.13628069332585868    0.15707882296946163    0.18591723807394014    0.21127083903216953    
  0.22148553268811594    0.21127083274049624    0.1859172082789969    0.15707884677823605    0.13628071238718673    
  0.13127917273159706    0.1465023935464818    0.1853627290115485    0.2470608797151758    0.3180014373658509    
  0.37335188399201946    0.39373066049975824    0.4018370562379201    0.4028890907204367    0.3829459886633513    
  0.32114832240146607    0.24706085663155603    0.1954542134183009    0.17496344719295176    0.1824228069502894    
  0.2115361540578754    0.2501019474356777    0.2817082050366685    0.29372520295528376    0.2817082408388942    
  0.2501019537663983    0.21153614106801175    0.18242281443610953    0.1749634447805642    0.1954541850553123    
  0.247060851712361    0.32114831875087263    0.38294598805253116    0.4028891343876148    0.4018370562379201    
  0.25185579013690407    0.29375849730784803    0.3729633745539441    0.3829459555242305    0.3180014006919748    
  0.2551138844378139    0.22862169141957392    0.23887992606402858    0.27594837274628986    0.31961214254979436    
  0.34793219459934427    0.35616244950142895    0.34793220600006697    0.31961210664203826    0.27594838937920385    
  0.23887994497873719    0.22862167598221025    0.25511386898032773    0.3180013687692862    0.38294598994268003    
  0.3729633515522621    0.2937585564573564    0.25185579013690407    0.09889070628548678    0.14858468272531972    
  0.2937585342103123    0.4028890863459821    0.37335183485153434    0.3064184054027873    0.27531101887351545    
  0.28763666758851775    0.3287530848071504    0.36813749038832816    0.3810672873310699    0.37992288406087454    
  0.38106735888194576    0.3681374865680728    0.32875309832563343    0.2876366709469525    0.2753110272281772    
  0.30641844379328875    0.37335182132394124    0.40288914013397925    0.2937584878982232    0.14858473726776839    
  0.09889070628548678    0.05590418546989815    0.09889071134011507    0.25185576724144976    0.40183704947112636    
  0.39373063588127355    0.32687660404543656    0.2940147210754202    0.3070135638914655    0.3488487290993007    
  0.3838053920679518    0.3871284134539169    0.38078635558046314    0.38712842153398486    0.3838053943752476    
  0.34884869924599554    0.30701359384038784    0.2940147103635168    0.32687656189732767    0.39373058423825663    
  0.40183706310291456    0.25185575377487535    0.09889072887751627    0.05590418546989815    0.09890374060568002    
  0.14741731975845224    0.2868881972769217    0.38624177013259564    0.34829393023126576    0.2744951669868898    
  0.23472471861741293    0.2344038941856221    0.26396727843809603    0.3071442953085334    0.34192293939519286    
  0.35438127045430046    0.34192293305802207    0.3071442843307064    0.26396727161791295    0.23440392210667066    
  0.23472471108602633    0.2744951535819034    0.348293873644107    0.38624176343350475    0.28688816852256127    
  0.14741734015046767    0.09890374060568002    0.14963378368884786    0.19956603115326163    0.32184332794045906    
  0.38439962492519    0.3313095268274477    0.25870692647607524    0.22107075222135464    0.22067941583887377    
  0.24853301325699131    0.2897547025614193    0.323841153737305    0.33643024074947514    0.3238411966660319    
  0.2897547399514777    0.2485330137863022    0.22067940210841117    0.22107073911781655    0.258706934820232    
  0.33130952464078245    0.38439966481356025    0.3218433094508499    0.19956604279195672    0.14963378368884786    
  0.3002744407439795    0.3323868486735358    0.38140639316694663    0.3618603702954388    0.28559635577623815    
  0.2191110983397638    0.18701353591428974    0.18645908546025244    0.20978254442771582    0.24507261648204595    
  0.2756595056902381    0.2875709737465117    0.27565951525825394    0.2450725942774232    0.20978256381542626    
  0.18645912028184472    0.1870135452517433    0.21911111609506012    0.28559631513267775    0.3618603798288044    
  0.38140635609111023    0.3323868671827476    0.3002744407439795    0.42147779044110684    0.4148077086646208    
  0.3789259503737624    0.30605697034842366    0.22758863093791767    0.17308917757142028    0.14792947149821162    
  0.14719822777669472    0.16476823218811007    0.19178246811051658    0.2160248657376827    0.22583179333047373    
  0.21602491295847612    0.19178247920229285    0.1647682446259232    0.1471982252054285    0.1479294850693409    
  0.1730891837983875    0.22758864586890262    0.306056968793424    0.3789259840746682    0.41480775497437955    
  0.42147779044110684    0.4061116076856801    0.3826326348900251    0.32060695380625787    0.24384251103266688    
  0.1781471885632969    0.13582977067286442    0.11652745932748486    0.11566092781299295    0.12831671938451736    
  0.1480583510527786    0.16611648781681382    0.17352596790769112    0.1661164708866696    0.14805836404187986    
  0.1283167305033199    0.11566093964263764    0.1165274606939941    0.13582978869953924    0.1781471796144826    
  0.24384252375719234    0.32060699943990567    0.3826326512635987    0.4061116076856801    0.3532405039578598    
  0.32995252836360695    0.2717264099416581    0.20451890807458517    0.14948028537658298    0.11440049287322798    
  0.09832481746020214    0.09730878361265027    0.10709390000024069    0.12259766795272935    0.13681763689524468    
  0.14261032897268375    0.13681766582709057    0.12259763931628634    0.10709391203196876    0.09730878532709163    
  0.09832482531227102    0.11440047641782963    0.14948029285789508    0.20451887997271043    0.27172647406912126    
  0.32995253595608076    0.3532405039578598    0.34026902618253807    0.31768646454419097    0.2613016459656606    
  0.1965154763961669    0.14365672468010932    0.10992716131847001    0.09434187283035696    0.09305643008442242    
  0.10200679610932513    0.11644492997164867    0.12970144636102443    0.13507741602703355    0.1297014546953064    
  0.11644493802899625    0.1020068005646423    0.09305642258313514    0.09434186621352497    0.1099271442067108    
  0.14365670154658017    0.19651545730941644    0.2613016961445831    0.31768648941718175    0.34026902618253807    
  0.37382222854058034    0.35033886198109904    0.2901944130735324    0.2188429241595201    0.15942934809802675    
  0.12129407048821851    0.10354751778326952    0.10190776904496598    0.11200622147041543    0.12838976138540828    
  0.1434315722194459    0.1495623948031107    0.14343157130033107    0.12838974566823716    0.11200623995058147    
  0.10190777944311015    0.103547527315308    0.12129405878037329    0.1594293467201873    0.21884292739666575    
  0.29019444768232033    0.3503388537552417    0.37382222854058034    0.41278034251884543    0.3951982940225649    
  0.341401050697747    0.2646443456205495    0.19348901118192677    0.14601801845304999    0.12372060670654578    
  0.12173343255360572    0.13483072502820206    0.15596919611208465    0.1752910961131909    0.18317998151288725    
  0.17529113577536407    0.155969199906586    0.1348307036274404    0.12173344411639987    0.12372060315709275    
  0.14601802324360783    0.19348899995391677    0.2646443374381164    0.3414010596330775    0.3951983316435717    
  0.41278034251884543    0.3818848414134144    0.38735558072714427    0.3748437703992805    0.3146602890721772    
  0.2361098967518211    0.17797025700768776    0.1500584755312194    0.1477160919279646    0.1646574616420135    
  0.19213743285461696    0.21731967849503284    0.22758113461469998    0.21731964625797223    0.19213743409527137    
  0.16465749290002882    0.1477161089656124    0.15005847784420612    0.17797025748531356    0.23610986963490144    
  0.31466032651326187    0.3748437606421887    0.3873555933014017    0.3818848414134144    0.2924047765840308    
  0.32288479122238284    0.368074683546939    0.3467106847914261    0.2714522369676755    0.2057095089247381    
  0.17311060937215605    0.1705504168218877    0.19086924818537093    0.224004875017425    0.25432502963138404    
  0.26655283752485537    0.2543250717815337    0.2240048917307693    0.19086923948788476    0.17055040872415672    
  0.17311061326661917    0.20570951557164233    0.2714522157829876    0.346710727092189    0.36807463517337935    
  0.32288486691356094    0.2924047765840308    0.24812918293283656    0.2867814644214116    0.35625466306440656    
  0.35615615317860266    0.28513518558202805    0.21677394212843015    0.18230865251892633    0.17972768072745918    
  0.2015007485702511    0.2369813247959039    0.26930153401889456    0.2822377604071146    0.2693015417811021    
  0.23698133190462317    0.2015007807561655    0.1797277080534814    0.18230867966491388    0.21677390458109577    
  0.2851351397252351    0.3561561294645543    0.3562546431344451    0.2867814895013201    0.24812918293283656    
  0.2924048108072241    0.32288478168073564    0.36807469633857604    0.34671069478175975    0.27145224098804566    
  0.20570950606462604    0.17311061444768186    0.17055040671267419    0.1908692419850377    0.22400488994374396    
  0.2543250167590755    0.26655285798849265    0.25432504562487346    0.22400489915780106    0.19086923985427112    
  0.1705504324779208    0.17311059558151912    0.20570952610414572    0.2714522121819889    0.34671073670705854    
  0.3680746885013864    0.32288482752329367    0.2924048108072241    0.38188481442459404    0.38735554552632917    
  0.3748437868596649    0.3146602967664025    0.2361099139287089    0.1779702624617861    0.15005844868897175    
  0.14771609286552317    0.1646574691255796    0.19213744191208754    0.21731968026931323    0.2275811125432923    
  0.2173196950913099    0.19213744929036464    0.1646574821882401    0.1477160973659556    0.15005848855996898    
  0.17797025737102132    0.23610985966630735    0.31466034281427746    0.3748437711969719    0.38735559005069736    
  0.38188481442459404    0.4127803478804726    0.3951982953613674    0.34140103259243043    0.2646443609713283    
  0.1934890262228869    0.1460180057698403    0.1237205972462966    0.12173342863084785    0.13483072995743223    
  0.15596918838926804    0.175291117029016    0.18317997074308326    0.17529110461456354    0.15596920012573545    
  0.13483072027124035    0.12173344327741412    0.12372059860711832    0.14601800861676886    0.1934890017550398    
  0.2646443542965317    0.3414010478278223    0.39519834685069327    0.4127803478804726    0.37382221217619277    
  0.3503388427225869    0.290194413755763    0.2188429297250481    0.15942935134517564    0.12129407119603097    
  0.1035475119048358    0.10190776690267139    0.11200622665283776    0.1283897512075504    0.14343155149042364    
  0.14956240332070533    0.1434315620284185    0.1283897607187172    0.11200623127454025    0.10190778776236842    
  0.10354751945102315    0.12129406427751016    0.15942934735359693    0.21884290827548916    0.29019446161657814    
  0.3503388467674315    0.37382221217619277    0.3402690177977572    0.317686464578905    0.2613016638494374    
  0.19651546108017923    0.14365670229905972    0.10992715852033516    0.09434186160046347    0.0930564347942583    
  0.10200678951141896    0.11644494347665621    0.12970144301360237    0.135077424254578    0.1297014498080726    
  0.11644492952229119    0.10200679960691188    0.09305642074665871    0.09434187842415052    0.10992714887590999    
  0.14365670552012913    0.1965154622713076    0.2613016928451452    0.3176864732377042    0.3402690177977572    
  0.3532405486139222    0.32995253707943795    0.27172641181616985    0.20451889770795761    0.14948029772187021    
  0.11440048915246384    0.09832482201731596    0.09730879120770482    0.10709389770270204    0.12259765616918092    
  0.13681764421982306    0.14261029479211904    0.13681765333681478    0.12259766014121763    0.10709391261015741    
  0.09730877378410162    0.09832482422063964    0.11440046459398788    0.14948028615162065    0.20451888081026043    
  0.2717264520477551    0.3299525758284649    0.3532405486139222    0.4061116273355103    0.38263267129605644    
  0.3206069791405924    0.2438425192485216    0.17814718856417028    0.13582977487226344    0.11652746136883688    
  0.11566092101661128    0.12831673470997054    0.1480583612060979    0.16611648892335368    0.17352596732219386    
  0.16611649266701134    0.1480583418509875    0.12831672985719436    0.11566092443348865    0.11652746349926976    
  0.13582975746469675    0.1781471654681988    0.24384252898621914    0.3206069759215466    0.3826326641594405    
  0.4061116273355103    0.42147779511776795    0.41480775958455823    0.37892599704265884    0.3060569553366259    
  0.22758864746465965    0.17308916871102117    0.14792948247651524    0.1471982248950015    0.1647682398210729    
  0.19178245231367538    0.21602488520074137    0.225831791274417    0.21602489244152445    0.1917824731797744    
  0.16476822130031019    0.14719822233905658    0.1479294965376961    0.17308916847765424    0.22758864096973236    
  0.30605696583534925    0.37892600610826827    0.4148077976460275    0.42147779511776795    0.30027449029574166    
  0.3323868637235276    0.38140640228937633    0.3618603272130553    0.2855963602535877    0.21911108196487356    
  0.18701354061596412    0.18645911663617173    0.2097825476090373    0.24507259913131124    0.2756595314535813    
  0.2875709665216247    0.2756594975271951    0.24507259977205453    0.20978257177923382    0.1864591286285496    
  0.18701352550438524    0.2191110852830396    0.28559630999064145    0.3618603814633704    0.38140636215002016    
  0.3323868895219572    0.30027449029574166    0.14963378039158076    0.19956601500612967    0.321843320827143    
  0.38439960918469745    0.33130952621489934    0.2587069353550634    0.2210707407743246    0.22067941388431617    
  0.24853299315955082    0.28975471681705917    0.32384114450061846    0.33643022317068766    0.323841189774329    
  0.28975473366616056    0.24853298491034106    0.2206794011758274    0.2210707413228977    0.25870693605054396    
  0.33130953402745766    0.3843996535130445    0.32184327947360797    0.19956605953137163    0.14963378039158076    
  0.09890374060568002    0.14741731975845224    0.2868881972769217    0.38624177013259564    0.34829393023126576    
  0.2744951669868898    0.23472471861741293    0.2344038941856221    0.26396727843809603    0.3071442953085334    
  0.34192293939519286    0.35438127045430046    0.34192293305802207    0.3071442843307064    0.26396727161791295    
  0.23440392210667066    0.23472471108602633    0.2744951535819034    0.348293873644107    0.38624176343350475    
  0.28688816852256127    0.14741734015046767    0.09890374060568002    0.2481291865651218    0.28678144186962223    
  0.3562546940719527    0.3561561272894799    0.2851351510326731    0.21677394562680166    0.1823086491685143    
  0.1797276898568141    0.20150076720796836    0.23698132914443293    0.26930153912742283    0.28223773600231616    
  0.2693015243847609    0.23698131969936376    0.2015007834677785    0.1797277140564627    0.18230866475524207    
  0.21677390383450681    0.2851351168655039    0.35615612626348037    0.35625465965840336    0.2867814864056078    
  0.2481291865651218    0.29240481639856847    0.3228848141678744    0.36807469474413895    0.34671071462993047    
  0.27145223629012843    0.20570950961807938    0.17311061298884461    0.17055044226403937    0.19086924974332073    
  0.22400487458706064    0.2543250256202879    0.2665528418094876    0.2543250568493719    0.22400491374470502    
  0.19086924466764232    0.1705504145984671    0.1731106062701156    0.20570952485189734    0.27145220651346047    
  0.3467107364030742    0.3680746921597762    0.32288482549926856    0.29240481639856847    0.3818848450370997    
  0.3873555427697111    0.37484378263190815    0.314660327393649    0.23610989229367718    0.1779702718059426    
  0.15005846690063437    0.14771608604402842    0.16465747340021583    0.19213745746263564    0.2173196525489666    
  0.22758111961726687    0.21731965961109476    0.1921374472145021    0.1646574861013282    0.14771609739086505    
  0.1500584846078086    0.17797026388343454    0.23610985677015447    0.31466032818585127    0.3748437487366354    
  0.38735557474728916    0.3818848450370997    0.4127803267548674    0.395198272811408    0.34140102259642136    
  0.26464436601249286    0.19348901104899469    0.14601801451465518    0.12372058991987347    0.12173343359279278    
  0.13483070933358884    0.15596920479180856    0.17529110576853726    0.1831799674844095    0.17529111642664782    
  0.15596921760305887    0.13483071988472786    0.12173344136252612    0.12372060446479984    0.14601801075637535    
  0.1934889986477772    0.2646443580562766    0.34140105516485336    0.3951983041843947    0.4127803267548674    
  0.37382220099155733    0.3503388313742031    0.29019441461143575    0.21884291994055155    0.15942936581582756    
  0.12129405920870302    0.10354750853697234    0.10190777276556143    0.11200622319223208    0.12838975007743356    
  0.14343155178199973    0.14956240103894702    0.14343156232748336    0.1283897715661904    0.11200622897220362    
  0.10190778660212371    0.1035475125582538    0.12129405879795496    0.15942934839207776    0.21884292323054438    
  0.2901944453989984    0.350338839905075    0.37382220099155733    0.3402690015515709    0.31768646396077094    
  0.2613016583232169    0.19651546699821706    0.14365670551659665    0.1099271568204328    0.09434187023593199    
  0.0930564316151748    0.10200679150353575    0.11644493590748745    0.12970142677135715    0.13507743460365407    
  0.12970145342722328    0.11644492833409568    0.10200679724301664    0.093056427962595    0.09434187028132121    
  0.10992715474995339    0.14365671162307278    0.19651545525000624    0.2613017023234335    0.3176864525236    
  0.3402690015515709    0.353240544705759    0.3299525316315853    0.27172640749874455    0.20451889736370824    
  0.14948029290647802    0.11440049526355052    0.09832481672889645    0.09730879017032598    0.10709390562122653    
  0.12259766796744716    0.13681765341712154    0.1426103220968074    0.13681764822414294    0.1225976506049236    
  0.10709391466483559    0.09730878849525026    0.09832482079703139    0.11440046866630811    0.1494802996805473    
  0.20451887429471174    0.2717264451619279    0.32995257367714287    0.353240544705759    0.4061116495313761    
  0.38263265864667445    0.3206069548530459    0.2438425084725405    0.1781471913473822    0.13582978290118494    
  0.11652745785890711    0.11566092398316695    0.12831672798551488    0.1480583487205254    0.16611650437796058    
  0.17352594111175443    0.16611648438591234    0.1480583426282341    0.12831673867018983    0.11566093099798734    
  0.1165274596308112    0.13582977389571674    0.17814718184491177    0.24384252727272118    0.32060701150108945    
  0.38263267015082153    0.4061116495313761    0.42147780183816835    0.4148077443547318    0.37892597812975065    
  0.30605696682920985    0.22758864742340762    0.17308918756950495    0.14792947621695324    0.14719822644187786    
  0.1647682367387346    0.19178246548218436    0.21602487714598467    0.22583180420128252    0.2160249031346102    
  0.19178247015131333    0.1647682305767796    0.14719821869527674    0.14792947265434253    0.1730891822609619    