#     DFTpy    
  CRYSTAL 
    
  PRIMVEC    
  5.539793103448275    0.0    0.0    
  0.0    5.539793103448275    0.0    
  0.0    0.0    3.0520689655172406    
  PRIMCOORD    
  4    1    
  Si    0.0    0.0    0.0    
  Si    2.7698965517241376    2.7698965517241376    1.5260344827586203    
  Si    0.0    2.7698965517241376    0.7630172413793102    
  Si    2.7698965517241376    0.0    2.2890517241379307    
  BEGIN_BLOCK_DATAGRID_3D    
  3d_datagrid_density    
  BEGIN_DATAGRID_3D#0    
  25    25    13    
  0.0    0.0    0.0    
  5.539793103448275    0.0    0.0    
  0.0    5.539793103448275    0.0    
  0.0    0.0    3.0520689655172406    
  0.06071107578054681    0.10610792971584485    0.25923724607913456    0.3838524239651581    0.33689568186644026    
  0.24241618188942493    0.18936481828331814    0.18259118685248196    0.2143327251479016    0.27443941201585254    
  0.3361154444404173    0.36978067060162206    0.37720915437007096    0.36978054342620487    0.33611574323382815    
  0.27443897041168763    0.2143331899589934    0.18259071395043028    0.18936534264844618    0.24241567250042656    
  0.33689610966156236    0.3838519545281952    0.2592375138749406    0.10610782327008281    0.06071107578054681    
  0.1061078750864431    0.15768895911787853    0.2998732394263747    0.38335759070133585    0.3199819631317443    
  0.22894255413884151    0.17948100563483177    0.17319720940518576    0.202916635302922    0.25970936117632915    
  0.3205196595975749    0.3580303902802871    0.3683466600077851    0.3580305982735314    0.32051931425879504    
  0.259709709603124    0.20291622451148097    0.17319766765365024    0.17948048161920688    0.22894306498741243    
  0.3199814238524325    0.38335806446526366    0.2998729458666373    0.1576890728208358    0.1061078750864431    
  0.25923739524220557    0.29987316586995577    0.3693499748232898    0.3585117718606656    0.27277084019309594    
  0.1942512449735518    0.15413713273291813    0.14910718744777218    0.17341635768452532    0.22068314154487706    
  0.2753913189569218    0.3159541096377818    0.3299697932387683    0.31595395641182944    0.2753915443619813    
  0.22068274324017603    0.17341678596653542    0.1491067088970731    0.15413759313244257    0.19425077236264154    
  0.2727713595643068    0.3585113463678015    0.3693502163459772    0.2998729579967514    0.25923739524220557    
  0.38385204540853446    0.3833578967387878    0.3585116046712897    0.29060595622727503    0.21042086667664295    
  0.151987389008005    0.12313945971546064    0.11949235796947506    0.1369178320825075    0.17101495107435472    
  0.2124784055164159    0.24628414714101976    0.25905352808359605    0.2462843085071656    0.2124782063817238    
  0.17101529637553006    0.13691746880485448    0.11949274089311403    0.12313906290358186    0.1519878599535826    
  0.2104203452352334    0.2906064270043718    0.3585112905830815    0.38335800217945915    0.38385204540853446    
  0.33689612657561746    0.3199815771533885    0.2727711292874956    0.21042068815631668    0.15374597838778492    
  0.11495878173229926    0.0956214859826063    0.09297630664079942    0.1042351111742617    0.1261375771392594    
  0.15300105959121016    0.175516665748557    0.1842282740870569    0.17551657624860248    0.1530012448336506    
  0.12613726111621149    0.10423547925326916    0.0929759321739521    0.0956218558054063    0.11495841410542122    
  0.15374634165498027    0.21042035347611557    0.27277149446875276    0.3199813849131605    0.33689612657561746    
  0.2424155622584001    0.22894312482488924    0.19425084597081668    0.15198764467630907    0.11495867829738773    
  0.08946229504612789    0.07634271371969616    0.07416591455778423    0.08108552274657373    0.09469130194814168    
  0.11120119002581279    0.125029586648196    0.13045273990394235    0.12502967323360892    0.11120096993236267    
  0.09469154426591787    0.08108526066449107    0.07416621626323061    0.07634237794586979    0.08946265526412199    
  0.11495831108583741    0.15198798412865727    0.1942506156971453    0.22894319447668687    0.2424155622584001    
  0.18936551638635948    0.17948038010106668    0.15413760798715512    0.12313909940849954    0.09562170700161571    
  0.07634260265058142    0.0661220045200806    0.06391197879512678    0.06826380392705579    0.07737575310197582    
  0.08839682641905251    0.09759486864242364    0.1012428317858514    0.09759481111838537    0.08839699636732916    
  0.07737551377931116    0.06826408495492209    0.06391169255739954    0.06612231279860564    0.07634229754786463    
  0.09562199816925972    0.12313884052225833    0.15413783929241914    0.17948024286349215    0.18936551638635948    
  0.1825903990575953    0.17319793453031396    0.1491065513838587    0.11949279495005523    0.09297600712692904    
  0.07416607093227631    0.06391191289354706    0.0611585593978671    0.0643873422387973    0.07184990161432    
  0.08103008551873639    0.0887161377608396    0.09177520749487868    0.0887162569973132    0.08102990484195385    
  0.07185012958455245    0.0643871013977946    0.06115884018327306    0.06391160189277562    0.07416640829291288    
  0.09297568316898272    0.11949308977695072    0.14910633349198527    0.1731980335757206    0.1825903990575953    
  0.2143336494043688    0.2029158130583142    0.17341712676002533    0.13691725095039559    0.10423553679562719    
  0.08108527564085735    0.06826395168611882    0.06438729516732389    0.06751490293223532    0.07551063139677727    
  0.08562782146372164    0.09413948804478317    0.09746391337760373    0.09413937309322115    0.08562795690749449    
  0.07551040331714745    0.06751518779288987    0.064386979829998    0.06826428110978822    0.08108496800222045    
  0.1042358323084234    0.13691695626409175    0.17341737183944936    0.2029156245860611    0.2143336494043688    
  0.2744382607134413    0.2597104175557098    0.22068223657871688    0.17101566226472528    0.12613707950803266    
  0.09469161790089155    0.07737554987367089    0.07185003170047675    0.07551058024522335    0.08560255696850068    
  0.09869383425134266    0.10982692069514702    0.11415745295845596    0.10982704111336514    0.09869368672942792    
  0.08560281438987945    0.07551031466194148    0.07185032347385974    0.07737522659362414    0.09469198407128954    
  0.12613668450588564    0.1710160169586414    0.22068203089237712    0.25971055106502317    0.2744382607134413    
  0.33611679569144187    0.3205184224298564    0.27539232414342507    0.21247760910468477    0.15300163659711155    
  0.11120077240172074    0.08839708886852155    0.08102990968821547    0.08562787826513267    0.0986938479225625    
  0.11581513696748494    0.1305956169355735    0.13640753421462798    0.13059555908827458    0.11581530641600747    
  0.0986935426574259    0.08562820766979089    0.08102956908998638    0.08839744459075363    0.11120039667634087    
  0.15300203887927222    0.21247725607229712    0.2753926700173955    0.3205182150269372    0.33611679569144187    
  0.3697792753040109    0.3580317918643695    0.31595301824811334    0.24628506433555222    0.17551605349445634    
  0.12502999821594676    0.09759461093340234    0.08871633978378772    0.09413934812526072    0.10982696470356794    
  0.13059566150984467    0.14872584138460698    0.155942388559044    0.14872594166658468    0.13059541015507392    
  0.10982724238619253    0.09413908364776412    0.08871665524403093    0.09759425342853136    0.1250303976669779    
  0.17551560948487557    0.24628540817759828    0.3159527049781956    0.3580318526519135    0.3697792753040109    
  0.37721055599969683    0.3683452751315828    0.3299708606936574    0.2590526830118457    0.18422893823557598    
  0.13045230163634797    0.10124310636362946    0.09177502137201174    0.09746398380576848    0.11415741753183459    
  0.13640752973950857    0.1559424075609542    0.16374830194734227    0.15594230794091476    0.1364077406165533    
  0.11415712806401183    0.0974643223632655    0.09177468016977477    0.10124350042554232    0.13045189858317507    
  0.1842293150133876    0.2590522998963219    0.3299711911468344    0.3683450529604618    0.37721055599969683    
  0.3697791809358207    0.35803180993086403    0.3159529286462424    0.24628508369270252    0.17551597695469082    
  0.12503005098473985    0.09759458633873744    0.08871636321392733    0.09413932850446652    0.10982700122546192    
  0.13059560779649537    0.14872586257946352    0.1559423950456563    0.14872602237825483    0.13059538224593023    
  0.10982727173019118    0.09413902810240767    0.08871669292693979    0.09759422179633455    0.12503043679700837    
  0.17551556871776092    0.24628552766691125    0.31595265700590813    0.3580319384320344    0.3697791809358207    
  0.3361168550723403    0.3205183609050958    0.2753924690483293    0.21247755182780703    0.15300170792911882    
  0.11120071343882024    0.08839715781068609    0.08102986454915011    0.08562793454849899    0.09869376625519077    
  0.11581520184551712    0.13059558455308906    0.13640763825294147    0.13059546742954042    0.1158153505177462    
  0.0986934957130754    0.08562826136139962    0.08102953049005647    0.08839751133573968    0.11120033460166837    
  0.15300210275077    0.21247717840782307    0.2753927190947307    0.32051811426065985    0.3361168550723403    
  0.27443810812343833    0.2597106063945026    0.2206820823295714    0.1710157620958643    0.12613696533128665    
  0.09469170522054497    0.07737547177578945    0.07185010275989206    0.07551050072113596    0.08560265300511173    
  0.098693749116311    0.10982700093437064    0.11415735416628335    0.10982714269338872    0.09869358631466388    
  0.08560289716053522    0.0755102339953087    0.07185041147940288    0.07737514330287734    0.09469207145172076    
  0.12613658627882543    0.17101610976269935    0.22068187459178149    0.25971064663033844    0.27443810812343833    
  0.2143338243507749    0.20291562770963958    0.17341723573955697    0.13691712779863838    0.10423563526009819    
  0.08108518665529048    0.06826404923829829    0.06438719924017942    0.06751499295611989    0.07551056235921012    
  0.08562790813145714    0.09413935813812245    0.09746401543918855    0.09413928578895513    0.08562805191512886    
  0.07551030199099504    0.06751529724196471    0.06438688104148212    0.0682643724847886    0.08108485085057383    
  0.10423594179239411    0.1369168323801086    0.173417512838362    0.20291546545315572    0.2143338243507749    
  0.182590250780964    0.17319813223297273    0.14910641519238707    0.11949293800406528    0.09297588628068085    
  0.0741661834807281    0.06391180461263887    0.06115867243695879    0.06438724955470397    0.07185000711942037    
  0.0810299757061598    0.08871627990839472    0.09177508523374367    0.08871636075831098    0.08102978123105921    
  0.07185023518831928    0.0643869973295417    0.06115893376154587    0.06391151404477001    0.07416651679791662    
  0.09297555779504368    0.1194932358728744    0.14910620458505577    0.1731982097743137    0.182590250780964    
  0.18936569110745433    0.17948023943424596    0.15413775440660893    0.12313896670412294    0.09562183385508737    
  0.07634250225384952    0.0661221045491927    0.06391188153812374    0.06826391135960908    0.07737564410829363    
  0.08839696023640613    0.09759474647005835    0.10124297114529715    0.09759468760295861    0.0883971114216141    
  0.07737540649176675    0.06826420099983953    0.06391158752535202    0.0661224187020058    0.07634218537542353    
  0.09562212170987783    0.12313868785974197    0.15413799212769425    0.17948007078470213    0.18936569110745433    
  0.2424153835033003    0.22894325027575196    0.19425068681644328    0.15198781614791296    0.11495854511658204    
  0.08946241452940937    0.07634261249361797    0.07416601967763091    0.0810854285920157    0.0946914119746916    
  0.11120104247590695    0.125029680405493    0.13045258853863942    0.12502982950865668    0.11120084533531717    
  0.0946916508725458    0.08108515380496979    0.07416631908385621    0.07634226559417721    0.08946278511847734    
  0.1149581836286908    0.15198811983217503    0.19425043474251583    0.22894336223324233    0.2424153835033003    
  0.3368963192838973    0.31998144576451915    0.27277131157725965    0.2104205533893723    0.15374611927815376    
  0.11495866889963309    0.09562159007748888    0.09297621122366939    0.1042352260512671    0.12613742161045588    
  0.15300120042737508    0.17551653557718055    0.1842284644247505    0.17551639241660036    0.15300139463024534    
  0.12613711459511007    0.10423557335467817    0.09297582649989194    0.09562197273285922    0.11495829651765303    
  0.15374648143692154    0.21042020295470257    0.2727716472884679    0.31998119821484916    0.3368963192838973    
  0.3838518686496488    0.383358053201621    0.3585113802988215    0.29060614402798274    0.2104207343816238    
  0.15198750796643412    0.12313935275750637    0.11949245879673444    0.1369177020407843    0.17101507069066887    
  0.2124783066879557    0.24628431596778316    0.25905343471958325    0.2462844784421934    0.21247805077329476    
  0.17101540318462413    0.1369173559933856    0.1194928434674936    0.1231389514544419    0.1519879512517975    
  0.21042023143489752    0.29060653986957197    0.3585111646246538    0.3833581463179631    0.3838518686496488    
  0.2592375638692355    0.29987305544850124    0.3693499691611724    0.3585116132899949    0.2727709753653242    
  0.19425114198203727    0.15413720437520662    0.14910707701314047    0.1734164351810551    0.220683082512935    
  0.27539139567684834    0.3159539800765331    0.32996987185513976    0.3159538665693058    0.2753916571120226    
  0.22068265824174185    0.17341687615401638    0.14910661114639917    0.15413766410679872    0.1942506709261956    
  0.27277146692529103    0.35851118955716405    0.36935035309004594    0.2998728510640453    0.2592375638692355    
  0.1061078516743637    0.15768900893791643    0.29987320316971794    0.38335765840313646    0.3199819666460219    
  0.22894259113185603    0.17948092727144827    0.1731972744780906    0.20291661711550754    0.25970939885678895    
  0.3205196073305667    0.3580305001193575    0.36834651272768504    0.35803061866207764    0.3205192863367482    
  0.2597097960643939    0.2029161868289811    0.17319770957746264    0.1794804667515257    0.22894315251315175    
  0.31998139540600173    0.38335814578708605    0.2998729159588644    0.15768913508161844    0.1061078516743637    
  0.06071107578054681    0.10610792971584485    0.25923724607913456    0.3838524239651581    0.33689568186644026    
  0.24241618188942493    0.18936481828331814    0.18259118685248196    0.2143327251479016    0.27443941201585254    
  0.3361154444404173    0.36978067060162206    0.37720915437007096    0.36978054342620487    0.33611574323382815    
  0.27443897041168763    0.2143331899589934    0.18259071395043028    0.18936534264844618    0.24241567250042656    
  0.33689610966156236    0.3838519545281952    0.2592375138749406    0.10610782327008281    0.06071107578054681    
  0.11665391834626807    0.16861783049404466    0.3059476631971735    0.3781483777033026    0.3078381037449695    
  0.21260848521456643    0.15728718458142507    0.14069833591678244    0.1530245106442262    0.187122596134718    
  0.23159365968504536    0.2689251157309658    0.2833598427296976    0.26892535211721597    0.23159340507912873    
  0.18712291677469262    0.15302415246471962    0.14069875064399587    0.15728675626657665    0.21260904533301697    
  0.307837462674272    0.37814886027752115    0.3059474195895501    0.1686179211506705    0.11665391834626807    
  0.16895214119942184    0.22034331351918676    0.33589950808726193    0.3724529708259861    0.29229746631250025    
  0.2014859686009693    0.14983844884350558    0.13435105802997538    0.14591105186043887    0.17771831392743237    
  0.21921987197455142    0.2544070754942589    0.26814218050056093    0.25440701384093123    0.2192201383826418    
  0.17771792776476403    0.14591145646464557    0.13435065198087937    0.14983888729234535    0.20148545981526342    
  0.2922979794957246    0.3724525205099228    0.3358998730441538    0.22034320013289782    0.16895214119942184    
  0.30904139616564524    0.33860782766922537    0.3765739793013939    0.3399715267809554    0.24972294461346323    
  0.17275909579485046    0.130669173097341    0.11802016967947497    0.1275396990292437    0.1534200385000968    
  0.1872312242381429    0.2162961229891369    0.22778225917893935    0.21629624689410595    0.18723094278957808    
  0.15342036786640392    0.12753936903593965    0.11802054648436358    0.1306687689090368    0.17275955475572807    
  0.2497224907373194    0.3399720189082773    0.37657360600261447    0.3386078636963021    0.30904139616564524    
  0.38880987459225397    0.38214064101220213    0.34609793722790516    0.27353463199495404    0.19490817331334895    
  0.13780803806611663    0.10712013747880053    0.0978029514482425    0.10475143566226394    0.12345267674014021    
  0.1478081042602569    0.16875254971045586    0.17698663387623872    0.16875246804613106    0.14780837242260117    
  0.12345238129649012    0.1047517757808215    0.09780258551658616    0.10712053000835858    0.13780764937427942    
  0.19490852643039713    0.2735342407734645    0.3460982647301366    0.38214039400488226    0.38880987459225397    
  0.3289992620151861    0.3115183199045655    0.26380212440134926    0.20203209090620264    0.14629167316967737    
  0.10746313025847876    0.08631122059570435    0.0797090864096406    0.08434639244028304    0.09687742775686504    
  0.1130476619816626    0.1268209122294929    0.1322008349181874    0.1268210492732287    0.11304741495724242    
  0.09687767190072197    0.08434612111052169    0.07970940367789368    0.08631087305246417    0.10746351231912744    
  0.1462912744550205    0.20203248964069057    0.2638019277191248    0.3115184036289582    0.3289992620151861    
  0.2468408875431438    0.23282707234633604    0.19689909822552804    0.15310061364030422    0.11444030538876813    
  0.08731340797965378    0.07226652377763004    0.06735111887485593    0.07029618886064648    0.07873854369378361    
  0.08958059098593024    0.09873672338692249    0.10231833063428085    0.09873663519191643    0.08958073281788988    
  0.0787383011136049    0.07029649041951488    0.06735079758066151    0.07226684673317439    0.08731308475235502    
  0.11444062725449816    0.1531002957242239    0.1968993980961287    0.2328269019035174    0.2468408875431438    
  0.20984539203274924    0.1983702286919339    0.16908506629944495    0.13331480511457777    0.10141400048462892    
  0.07878755070591427    0.06612688775564203    0.06176792050671766    0.06377215413931601    0.07026380527393798    
  0.07868079134259184    0.08576688513025371    0.08855931087383612    0.0857670198162358    0.07868061288618294    
  0.07026402348031997    0.06377189916125917    0.06176820493797908    0.06612656602464359    0.07878789358811515    
  0.10141363249716667    0.13331512442496898    0.16908484013403186    0.19837032640796892    0.20984539203274924    
  0.22344479414951865    0.21104352005963944    0.17931150161042675    0.1405417996996805    0.10604725332450583    
  0.08155149878793433    0.06769292176794539    0.06273435821965652    0.06453860800904417    0.07099547757181668    
  0.07946468665027873    0.08665084393705985    0.08948035300629856    0.08665078743579313    0.07946485445467574    
  0.07099524544876303    0.06453889415513715    0.06273405356023572    0.06769324026380609    0.08155117364593496    
  0.10604757495156956    0.1405415055516882    0.1793117558885674    0.21104334301243327    0.22344479414951865    
  0.28252342522767504    0.2668090612615677    0.2254330481689775    0.1735823060863164    0.12730163337914108    
  0.09471702018804141    0.0763150084009071    0.06961126959202227    0.07173663915992215    0.07982528902013919    
  0.09061975149274563    0.09986927118619802    0.10349775996452458    0.09986935068588983    0.09061952258614495    
  0.07982552383433461    0.0717363786054513    0.06961154763837106    0.07631469232106375    0.09471739832007654    
  0.127301240846497    0.17358266343039777    0.2254328201249002    0.2668091266144241    0.28252342522767504    
  0.358380635486919    0.34313414471208625    0.2962100967720591    0.22791880478559062    0.16255763013583377    
  0.11624157109031857    0.09045938182269517    0.08105541675446089    0.08380569935036518    0.09487153533312637    
  0.10988457910531506    0.1229433554276072    0.12809500912119962    0.12294326975848277    0.1098847975163108    
  0.094871297673141    0.08380601882667088    0.08105506782562717    0.09045975568428032    0.11624119393094985    
  0.16255798431760662    0.22791844936919264    0.2962104429752596    0.3431339491368078    0.358380635486919    
  0.37874030920059804    0.37915359860378306    0.35585362125913267    0.287220662592285    0.20402158984561897    
  0.14145037366959326    0.1067393538004844    0.09417512509131414    0.09778841746065288    0.11260891833667154    
  0.13290790208259498    0.15080257193060742    0.15797165908013075    0.1508027134041343    0.1329076756339884    
  0.11260917598823804    0.09778813112041694    0.09417544272126065    0.10673895242645541    0.14145082251552826    
  0.2040211697409344    0.2872211379334726    0.35585333332402774    0.3791537036107636    0.37874030920059804    
  0.3273776281579542    0.3508286233663905    0.37449677430570943    0.3285122927742303    0.2377032306566953    
  0.16231643235120446    0.12006220577473144    0.10485815225443453    0.10916000452789391    0.12719556601616672    
  0.1521384075717092    0.17431682827437897    0.1832740853796827    0.17431665036757268    0.15213859958183468    
  0.12719530130828943    0.1091603863246391    0.10485774405441595    0.12006261069463986    0.16231598594986116    
  0.23770367736756626    0.3285118251891993    0.3744971200760391    0.3508284196396501    0.3273776281579542    
  0.2936060741818006    0.3263316783412251    0.3728284721218164    0.34181642412176716    0.250442449611766    
  0.1704332865493655    0.12528872515862047    0.10904392214311898    0.1135610271411983    0.13281088285605033    
  0.15961852845870853    0.18352350811055898    0.19319287615850686    0.18352362919658258    0.15961826773947627    
  0.13281114469726138    0.11356072868515615    0.10904429833558531    0.125288323063262    0.17043373844200121    
  0.25044188441096904    0.3418168591043021    0.3728281218504802    0.3263317899578159    0.2936060741818006    
  0.3273776743792597    0.3508285113027816    0.37449680975364924    0.32851220271729326    0.23770325365429087    
  0.162316387884354    0.1200622559387838    0.10485810704680905    0.10916003938456377    0.12719556106340515    
  0.15213843640114597    0.1743167319627969    0.1832741517951079    0.17431666666163143    0.1521386543018743    
  0.1271952441118944    0.10916038673326149    0.10485771944915748    0.12006263591632195    0.16231594716606207    
  0.23770373514440649    0.3285118136611355    0.37449716658893445    0.35082832445207296    0.3273776743792597    
  0.37874007275090726    0.37915376634677067    0.355853545525637    0.28722080205618217    0.20402150433170244    
  0.14145045818165466    0.10673925869730412    0.09417518876555377    0.09778836486420556    0.11260898957658476    
  0.13290785284233006    0.15080265554896408    0.15797160645718727    0.15080278007147752    0.1329075793555976    
  0.11260924732438049    0.09778806852834589    0.09417550929052282    0.10673889372809477    0.14145089428821703    
  0.20402106988834134    0.28722119539430835    0.3558531908475692    0.3791537913122701    0.37874007275090726    
  0.35838077317162087    0.3431340576695828    0.29621026160560254    0.2279186985128306    0.16255772331271187    
  0.11624148760163255    0.09045947683210812    0.0810553171244181    0.0838057916194121    0.09487146110162234    
  0.10988465115147668    0.12294321380131906    0.12809511535474405    0.12294316539443355    0.10988486298464674    
  0.09487118224187586    0.08380610784539767    0.08105498548516929    0.09045984632639843    0.11624109092521473    
  0.1625581070451007    0.2279183132293313    0.2962106340691634    0.3431337826608362    0.35838077317162087    
  0.2825232528798069    0.2668091584093606    0.22543284895003926    0.17358244993948513    0.1273014943885539    
  0.09471713794081454    0.07631491372564457    0.06961135082916042    0.07173654781849424    0.07982539389670891    
  0.0906196206048573    0.09986934829677205    0.10349763001754328    0.0998694768532654    0.09061943151403547    
  0.07982561341148679    0.07173629754305838    0.06961163526388171    0.07631459599340878    0.09471749538190993    
  0.12730110429552371    0.17358279542874233    0.2254326577285299    0.26680929649683177    0.2825232528798069    
  0.22344497843808067    0.21104339709114397    0.17931164975625943    0.14054166193707152    0.10604738078678462    
  0.08155139347790896    0.06769302311045225    0.0627342721084682    0.06453870602830328    0.070995382918555    
  0.07946481131166079    0.08665077182678918    0.08948044955070257    0.08665067307179371    0.07946494688676278    
  0.07099516372763821    0.06453899144875809    0.06273395049434678    0.0676933395352992    0.08155106778174807    
  0.106047685733461    0.14054136670166895    0.17931192124956993    0.21104320212756048    0.22344497843808067    
  0.20984521275327872    0.19837042204386152    0.1690849299904062    0.13331495558475204    0.10141386705407072    
  0.07878767643794445    0.06612677270856082    0.06176801820699583    0.0637720576124903    0.07026391207669191    
  0.07868067662902468    0.08576701979762245    0.08855918426248972    0.0857671327361098    0.07868050987656999    
  0.07026413275932177    0.06377180494094585    0.06176830296711022    0.0661264730586072    0.07878801311408276    
  0.101413500268455    0.1333152639212646    0.16908468561943146    0.19837051838996902    0.20984521275327872    
  0.246841070685797    0.2328268592762289    0.19689929395548694    0.1531004586341848    0.11444042605013455    
  0.08731328203689988    0.07226662735638072    0.06735100803287908    0.07029630133733777    0.07873842682714835    
  0.08958070626429734    0.0987365834522673    0.10231844018991534    0.09873650070448879    0.08958086277764439    
  0.07873817913163582    0.07029660567357025    0.0673506910020616    0.07226693637447243    0.08731297264104698    
  0.11444075532229082    0.1531001482418469    0.1968995403886292    0.232826699564521    0.246841070685797    
  0.32899907114845567    0.3115185269141042    0.2638020099651305    0.20203225556348509    0.14629155604511712    
  0.10746324841633036    0.08631111388649229    0.07970919692222693    0.08434629221161437    0.09687751704427673    
  0.11304754843468727    0.12682103057880334    0.13220077271851888    0.1268211387814924    0.11304731317678575    
  0.09687776210733055    0.08434600246365538    0.07970951030497801    0.08631077880301645    0.1074636323653941    
  0.14629114468846133    0.20203263711559255    0.2638017495864083    0.31151859212672917    0.32899907114845567    
  0.3888100230080587    0.38214049199531724    0.3460980768249885    0.2735345017589678    0.1949082820795183    
  0.13780794539832802    0.10712023446116666    0.09780287792566067    0.10475150658693527    0.12345257729519335    
  0.14780824696615086    0.1687524501184666    0.1769867943615261    0.1687523754264143    0.147808475371936    
  0.12345228388452345    0.10475187040145373    0.09780248733888099    0.1071206216406158    0.13780752498920582    
  0.19490869227064073    0.2735340872184499    0.34609843656583344    0.38214023847878154    0.3888100230080587    
  0.3090413475235671    0.33860788391452673    0.37657381587308575    0.3399716018229449    0.24972287179383465    
  0.1727591368461231    0.13066909257071455    0.11802024435649218    0.1275396439982991    0.15342015434357156    
  0.18723111641612575    0.21629617807995025    0.2277821723753614    0.21629632984690092    0.18723084563546863    
  0.15342043153232462    0.12753930699455593    0.11802060120268511    0.13066867984668495    0.17275963301248845    
  0.2497223930549001    0.33997202867121973    0.3765735161377003    0.3386079787050363    0.3090413475235671    
  0.16895218098988082    0.22034331373529628    0.33589961872189034    0.3724529161335398    0.2922975205265871    
  0.2014859090816977    0.14983846211380705    0.13435104259501796    0.14591112896129926    0.17771823443509882    
  0.21921993561768338    0.2544071017336226    0.2681422191252819    0.2544068875566253    0.21922019985472233    
  0.1777179119921033    0.14591149829762465    0.1343506121071664    0.1498389327711243    0.20148546265328746    
  0.29229801436781055    0.3724524430473243    0.33589993031430887    0.22034318070964104    0.16895218098988082    
  0.11665391834626807    0.16861783049404466    0.3059476631971735    0.3781483777033026    0.3078381037449695    
  0.21260848521456643    0.15728718458142507    0.14069833591678244    0.1530245106442262    0.187122596134718    
  0.23159365968504536    0.2689251157309658    0.2833598427296976    0.26892535211721597    0.23159340507912873    
  0.18712291677469262    0.15302415246471962    0.14069875064399587    0.15728675626657665    0.21260904533301697    
  0.307837462674272    0.37814886027752115    0.3059474195895501    0.1686179211506705    0.11665391834626807    
  0.2936063994984514    0.32633149858373056    0.37282833310780983    0.34181680507470447    0.250441847318421    
  0.1704339991117204    0.1252878908718139    0.10904482026575658    0.11356002159165264    0.13281203245673803    