#     DFTpy    
  CRYSTAL 
    
  PRIMVEC    
  1.0938059434966876    -1.8945274677570758    0.0    
  1.0938059434966876    1.8945274677570758    0.0    
  0.0    0.0    3.6982485733103454    
  PRIMCOORD    
  2    1    
  Si    1.0938059434966876    0.6315091559190251    0.9245621433275863    
  Si    1.0938059434966878    -0.6315091559190251    2.7736864299827584    
  BEGIN_BLOCK_DATAGRID_3D    
  3d_datagrid_density    
  BEGIN_DATAGRID_3D#0    
  11    11    17    
  0.0    0.0    0.0    
  1.0938059434966876    -1.8945274677570758    0.0    
  1.0938059434966876    1.8945274677570758    0.0    
  0.0    0.0    3.6982485733103454    
  0.37192871908933417    0.3911441678135424    0.4440626373306358    0.5145214080159622    0.5737125448732481    
  0.596040455272102    0.5737125598484842    0.5145214391817571    0.444062638325481    0.3911441287870861    
  0.37192871908933417    0.3911441475807432    0.3911493476189838    0.4271086489043302    0.48847952333788347    
  0.5524806507287812    0.5914885994819444    0.5914936228877627    0.5524871272109207    0.48848080292403917    
  0.42710299698919924    0.3911441475807432    0.44406263568900234    0.4271086293428121    0.4440551376303106    
  0.48847667386414084    0.54271302126201    0.5836279656277602    0.5977173117658887    0.5836245072497223    
  0.5427100579505405    0.48848078804865175    0.44406263568900234    0.5145214181248124    0.4884795505183321    
  0.4884766771983911    0.514526380957556    0.5524867181948631    0.5836276166980565    0.5976072183163268    
  0.5976013663185333    0.583624452290749    0.5524871048079676    0.5145214181248124    0.5737125351647868    
  0.5524806748593754    0.5427130889448699    0.5524867943354228    0.5737083860635506    0.5914907380186383    
  0.5977086351734524    0.5976072524011282    0.5977173084557863    0.5914936008312753    0.5737125351647868    
  0.5960404159875689    0.59148863143932    0.5836279696987741    0.5836276517509082    0.5914907193524835    
  0.5960442127919028    0.5914907393003335    0.5836276259538083    0.5836279790465225    0.5914886013147034    
  0.5960404159875689    0.5737125547966841    0.5914936091902728    0.597717355446129    0.5976072261494443    
  0.5977086241383583    0.5914907799043763    0.5737084422808658    0.5524867726667027    0.5427130637067713    
  0.552480698142801    0.5737125547966841    0.5145214110174049    0.5524871439934672    0.5836244707365459    
  0.5976013488956505    0.5976071810155822    0.5836276415765357    0.5524867272918638    0.5145264111341757    
  0.48847667729798616    0.48847955144410155    0.5145214110174049    0.4440626463869044    0.4884808091228303    
  0.5427100120141732    0.5836244715540982    0.5977172624626521    0.5836279706782079    0.542713062998468    
  0.4884767031215129    0.44405515251739963    0.42710865421391037    0.4440626463869044    0.39114414136938935    
  0.4271029645627488    0.488480819167519    0.552487115580605    0.5914935553932414    0.5914886106039733    
  0.552480677596874    0.4884795299609933    0.427108627783848    0.3911493527316892    0.39114414136938935    
  0.37192871908933417    0.3911441678135424    0.4440626373306358    0.5145214080159622    0.5737125448732481    
  0.596040455272102    0.5737125598484842    0.5145214391817571    0.444062638325481    0.3911441287870861    
  0.37192871908933417    0.399307274490022    0.4185173604370983    0.46902336930003546    0.5312856508201815    
  0.5791940554555768    0.5960601477373266    0.5791809250998876    0.5312818997138241    0.4690313132990917    
  0.4185158895400483    0.399307274490022    0.4185158764533254    0.41851821090519464    0.4504088781837306    
  0.5028869846887222    0.5566340575268031    0.5895099373071996    0.5895245041511086    0.5566457437237071    
  0.5028868183051749    0.4503970364483373    0.4185158764533254    0.46903130884291594    0.45570784710473167    
  0.4690201212387575    0.5028788351094697    0.5439300750050798    0.5761003092351058    0.5877085499886648    
  0.5760961288018444    0.5439217557657957    0.5028868075552333    0.46903130884291594    0.5312818616128343    
  0.5119892018790781    0.5119943291579788    0.5312886260842726    0.5566395440124423    0.5761049715597968    
  0.5847455147061345    0.5847403629586513    0.5760960650515918    0.5566457094668916    0.5312818616128343    
  0.5791809143775669    0.5584321157269332    0.5469436904817496    0.5584372424686399    0.5791853026812371    
  0.5895196730129981    0.5876913159530273    0.5847455789829387    0.5877085336578332    0.5895244645918042    
  0.5791809143775669    0.5960601060573621    0.5786523082100433    0.553315055896663    0.5533121644135095    
  0.5786403625298321    0.5960677584527496    0.5895196491242605    0.576104994694585    0.5761003135271908    
  0.5895099069859127    0.5960601060573621    0.5791940100307233    0.5786493852857458    0.5492429142534533    
  0.530471502602851    0.54925221437231    0.5786404149390074    0.5791853249203852    0.5566396072853661    
  0.5439300973000396    0.5566340820994787    0.5791940100307233    0.531285597142009    0.5584311608696748    
  0.5533104955390324    0.5304785430173277    0.530471417603264    0.5533121599694486    0.5584372127315737    
  0.5312886814767636    0.502878869559208    0.5028869690414254    0.531285597142009    0.469023392234913    
  0.5119980073271252    0.5469455872215251    0.5533105149449326    0.5492428520533169    0.5533150481111224    
  0.5469436310635732    0.5119943509523027    0.46902007400672824    0.45040889210867896    0.469023392234913    
  0.41851737083130247    0.4557003254190683    0.5119980082591796    0.5584311479261976    0.5786493270496905    
  0.5786523044177659    0.5584320872640841    0.5119891908434275    0.4557077980018105    0.4185182038391608    
  0.41851737083130247    0.399307274490022    0.4185173604370983    0.46902336930003546    0.5312856508201815    
  0.5791940554555768    0.5960601477373266    0.5791809250998876    0.5312818997138241    0.4690313132990917    
  0.4185158895400483    0.399307274490022    0.47358335877045227    0.49093538039593415    0.530286196609767    
  0.5634587480417428    0.573355077415774    0.5721162689218708    0.5733257455141227    0.5634517463461338    
  0.5303079339221612    0.490929280910613    0.47358335877045227    0.4909292957014194    0.4909343856016218    
  0.5169898409361376    0.5538628141982502    0.5845941339082931    0.599693931079662    0.5997073432353142    
  0.5846194706270046    0.5538639885206791    0.5169690029711609    0.4909292957014194    0.5303079659299107    
  0.5195310683987128    0.5302821116653506    0.5538539486146558    0.5762105193427035    0.5896489319376393    
  0.5935252795261592    0.5896524734729203    0.5761842483492217    0.5538639530715055    0.5303079659299107    
  0.5634517213522301    0.5403844716787469    0.5404093663936449    0.5634610894839054    0.584599359854711    
  0.5896622666079253    0.585955076544052    0.5859423706658636    0.58965242761849    0.5846194553541368    
  0.5634517213522301    0.5733257283473548    0.5197618589289876    0.4915115525704436    0.519766674227325    
  0.5733422968035883    0.5997068384870125    0.5934989748864525    0.5859551311843608    0.5935252888340522    
  0.5997073287707999    0.5733257283473548    0.5721162088642683    0.4836481066233976    0.40281580037430376    
  0.40280569456510207    0.48361963438061023    0.572127891123952    0.5997068175419582    0.589662279832098    
  0.5896489102394377    0.5996939065613288    0.5721162088642683    0.5733550900444913    0.4836332739168006    
  0.3603099099503019    0.30716215105392686    0.36033848730633317    0.48361966561245384    0.5733423295869994    
  0.5845994077994402    0.5762105808574544    0.5845941864906885    0.5733550900444913    0.5634587275026272    
  0.5197554180421591    0.40281473089774444    0.3071734970154371    0.30716212340017734    0.40280571720272584    
  0.5197665961594978    0.5634610823690661    0.5538539574450808    0.55386282519356    0.5634587275026272    
  0.5302861901378034    0.5404142186669848    0.4915060394188213    0.402814763569616    0.36030986229797385    
  0.40281579357547564    0.4915115206724525    0.5404093708559161    0.5302820979369026    0.5169897937478993    
  0.5302861901378034    0.490935360106587    0.5195147073814265    0.5404142123455028    0.5197554235330749    
  0.4836332227870066    0.48364812536416035    0.5197618441416977    0.5403844736410328    0.519531021281501    
  0.4909343881007135    0.490935360106587    0.47358335877045227    0.49093538039593415    0.530286196609767    
  0.5634587480417428    0.573355077415774    0.5721162689218708    0.5733257455141227    0.5634517463461338    
  0.5303079339221612    0.490929280910613    0.47358335877045227    0.5612698840916472    0.5735565045120539    
  0.5925985901980453    0.5818550637221788    0.5395695341649381    0.5151183876628448    0.5395501857882656    
  0.5818425118163623    0.5926226731676312    0.5735477833391626    0.5612698840916472    0.5735477767459954    
  0.573564258224927    0.5912901213391766    0.6099089008314633    0.6139232116489278    0.6072077642405856    
  0.6072252397315525    0.613938823793426    0.6099108562376591    0.5912789075813737    0.5735477767459954    
  0.5926226867359271    0.5830730547302295    0.5925929195775991    0.6099034242349652    0.6183150396251516    
  0.6154557112188662    0.6119259922170796    0.6154591344017247    0.6182986358196717    0.6099108512606244    
  0.5926226867359271    0.5818425126109583    0.5447078538306334    0.5447394338246357    0.5818521523807192    
  0.613934287926447    0.6154551585258626    0.6037173751398252    0.6036889996348671    0.6154590740498354    
  0.6139387879747948    0.5818425126109583    0.5395502214369272    0.4368324160079395    0.38932748732365585    
  0.43683950274521627    0.5395490883905816    0.6072424280819095    0.6118911324577359    0.6037174389329572    
  0.6119260072140155    0.6072252135544156    0.5395502214369272    0.5151183233833433    0.34505083219559746    
  0.22901294384727183    0.2289975274256004    0.3450491775334375    0.5151042929754953    0.6072423868965078    
  0.6154551703321846    0.6154556773881926    0.6072077251571416    0.5151183233833433    0.539569509417925    
  0.3450499129260569    0.17213653905500584    0.1178763943494598    0.17214294702997665    0.3450491886375713    
  0.5395491103872918    0.6139343754295782    0.6183150513128816    0.6139232179108299    0.539569509417925    
  0.5818549878959434    0.4368243821779274    0.22901457374080983    0.11786714412725374    0.11787636339471284    
  0.22899751342002392    0.4368394931124224    0.5818521448161393    0.6099034305286924    0.6099088748234709    
  0.5818549878959434    0.5925985747313325    0.5447405043651845    0.3893235492049128    0.22901458884291098    
  0.1721365052670887    0.22901294847323483    0.38932744564785654    0.5447393926637529    0.5925928600327327    
  0.5912900948126827    0.5925985747313325    0.5735564753417138    0.5830597461767022    0.5447405031708603    
  0.4368243876201675    0.34504986379397357    0.3450508188267117    0.4368323715225868    0.5447078167835432    
  0.5830729766030597    0.5735642140879057    0.5735564753417138    0.5612698840916472    0.5735565045120539    
  0.5925985901980453    0.5818550637221788    0.5395695341649381    0.5151183876628448    0.5395501857882656    
  0.5818425118163623    0.5926226731676312    0.5735477833391626    0.5612698840916472    0.602148940008071    
  0.6112055101430558    0.6186444337397218    0.5850032176172058    0.5177825175525592    0.4830995315009683    
  0.517793791034759    0.5849835351802287    0.618657504437057    0.6111964829584988    0.602148940008071    
  0.61119651920227    0.6112198946675508    0.6242407057659901    0.6338431941595961    0.62505374154033    
  0.6077533813700178    0.607767311108706    0.6250444075414587    0.6338468238992319    0.6242510148645181    
  0.61119651920227    0.618657524684567    0.6095395603054062    0.6186422657177767    0.633844763941585    
  0.6371058412653622    0.6275920884057568    0.6208509356414215    0.6275932585935283    0.6371170237971422    
  0.6338468187031236    0.618657524684567    0.5849835429532072    0.5400284298016792    0.540042737032598    
  0.5849934788845539    0.625064604586355    0.627583166596238    0.6133282541815649    0.6132983668438153    
  0.627593224876358    0.6250443829405105    0.5849835429532072    0.5177937998719314    0.3943086005713671    
  0.34044968077350746    0.394319789463685    0.5177648701920126    0.6077997657242006    0.620813245110541    
  0.6133283073318323    0.6208509244504817    0.607767327256851    0.5177937998719314    0.4830994920713653    
  0.2849872787878572    0.16630284745930998    0.16629054023579684    0.285014293210139    0.4830613663847537    
  0.6077997588854005    0.6275831797258006    0.6275920808215403    0.6077533936429674    0.4830994920713653    
  0.5177825363987776    0.28500427087607194    0.11249684904742122    0.06688740447542338    0.11248143977030148    
  0.28501430624811114    0.5177648937315322    0.6250646401602252    0.6371058962180328    0.6250537852737735    
  0.5177825363987776    0.5850031870505037    0.39430515639500147    0.1663069619911755    0.06686521855792127    
  0.06688739025435446    0.1662905339680431    0.3943197392406301    0.5849934782406974    0.6338447686042655    
  0.6338431976750708    0.5850031870505037    0.6186444343504963    0.540043372061443    0.3404512025241862    
  0.16630698130549382    0.11249682439237765    0.1663028401343282    0.3404496398444447    0.5400427225992724    
  0.6186422566553226    0.6242406761475563    0.6186444343504963    0.6112054800630012    0.6095360673726885    
  0.5400433609614586    0.39430517103578183    0.28500424341464564    0.2849872715736784    0.3943085962447658    
  0.5400284037215972    0.609539550819681    0.6112198667060686    0.6112054800630012    0.602148940008071    
  0.6112055101430558    0.6186444337397218    0.5850032176172058    0.5177825175525592    0.4830995315009683    
  0.517793791034759    0.5849835351802287    0.618657504437057    0.6111964829584988    0.602148940008071    
  0.5612698816107922    0.5735565167515813    0.5925986095174824    0.5818550557072215    0.539569544073249    
  0.5151183863676619    0.5395501851859077    0.5818425371908102    0.5926226817472067    0.5735477927232626    
  0.5612698816107922    0.5735477850189791    0.5735642634232831    0.5912901217088815    0.609908894834161    
  0.6139232224757661    0.6072077605237202    0.6072252472213983    0.6139388199802811    0.6099108334369694    
  0.5912789182467295    0.5735477850189791    0.5926226742008542    0.5830730597781826    0.592592933824114    
  0.6099034216532887    0.6183150393774441    0.6154557107444868    0.6119259867562225    0.6154591382494422    
  0.6182986213665475    0.6099108442921662    0.5926226742008542    0.5818425095326617    0.5447078440872789    
  0.5447394445848148    0.5818521347867773    0.6139342900820219    0.6154551392430294    0.6037173880273915    
  0.6036889755316976    0.6154590886975826    0.613938795162306    0.5818425095326617    0.5395501940808507    
  0.4368324038448184    0.38932747078049756    0.43683951409151955    0.539549086142556    0.6072424326029243    
  0.6118911150316559    0.6037174489532973    0.61192597233563    0.6072252044124425    0.5395501940808507    
  0.5151183474136637    0.34505084163238164    0.2290129514015978    0.2289975240440249    0.34504916608874797    
  0.5151042494729452    0.6072424100351727    0.6154551627337739    0.615455702259844    0.6072077510612172    
  0.5151183474136637    0.5395694889824808    0.34504991099111165    0.17213653320366004    0.11787639329371644    
  0.1721429401776851    0.3450491933511287    0.5395491164682472    0.6139343563417708    0.6183150575002534    
  0.6139232518664673    0.5395694889824808    0.581855015942049    0.4368244057961937    0.2290145761092384    
  0.11786713945335664    0.1178763654775616    0.22899751172987778    0.4368394853955042    0.5818521570769345    
  0.6099034607032274    0.6099089019358223    0.581855015942049    0.5925986058524737    0.5447404952753087    
  0.3893235607315716    0.2290145828099673    0.17213651171042882    0.22901293982161003    0.3893274402617433    
  0.5447394209267207    0.5925928809777887    0.5912901087958091    0.5925986058524737    0.5735565143953023    
  0.5830597472329433    0.5447405002288411    0.4368243920209174    0.3450498608307991    0.34505081739885735    
  0.4368323778255618    0.5447078027032108    0.5830730073724554    0.5735642340122371    0.5735565143953023    
  0.5612698816107922    0.5735565167515813    0.5925986095174824    0.5818550557072215    0.539569544073249    
  0.5151183863676619    0.5395501851859077    0.5818425371908102    0.5926226817472067    0.5735477927232626    
  0.5612698816107922    0.47358337990344407    0.4909353783690778    0.5302861939325739    0.563458735586192    
  0.5733550805554241    0.5721162699437362    0.5733257342033992    0.563451733698268    0.5303079470723642    
  0.49092928150096393    0.47358337990344407    0.49092932083220536    0.49093440838925817    0.5169898247774273    
  0.553862834178333    0.5845941304482727    0.5996939216062448    0.5997073276811467    0.5846194750901704    
  0.5538639850006724    0.5169690025577722    0.49092932083220536    0.530307966046749    0.5195310549731237    
  0.5302821261094165    0.5538539576999751    0.5762105469283825    0.5896489024112224    0.5935253141015557    
  0.5896524469002339    0.5761842500126058    0.5538639342451847    0.530307966046749    0.5634517267909371    
  0.5403844821178772    0.5404093746365807    0.5634610857478235    0.5845993646985153    0.5896622651777781    
  0.5859550761292892    0.5859423675861398    0.5896524192262104    0.5846194425761925    0.5634517267909371    
  0.5733257219781517    0.5197618346191551    0.4915115749478135    0.5197666442855676    0.573342295715891    
  0.599706817659829    0.5934989721460536    0.5859551059750808    0.5935252992626465    0.5997073277783516    
  0.5733257219781517    0.5721162212401594    0.4836481185682808    0.4028157893981683    0.40280569788875475    
  0.483619621333384    0.5721278729749617    0.5997067934328636    0.5896622818657506    0.5896488988160946    
  0.5996939179774747    0.5721162212401594    0.5733551199603041    0.48363326186092787    0.3603099158488181    
  0.30716213502391165    0.3603384864407136    0.4836196685143538    0.5733423396065885    0.5845994155591909    
  0.5762105829220476    0.5845941856940744    0.5733551199603041    0.5634587347724505    0.5197554364458505    
  0.40281471813257436    0.30717349733540256    0.30716211885850786    0.40280569314304226    0.5197665889564954    
  0.5634610913049044    0.5538539715047731    0.5538628445344487    0.5634587347724505    0.530286218061553    
  0.5404142132020516    0.49150603879457977    0.4028147427336887    0.36030985266831644    0.40281577673844937    
  0.491511529636478    0.5404093809806291    0.5302821246398921    0.5169898115003916    0.530286218061553    
  0.4909353567384484    0.5195147044840209    0.5404142009820297    0.5197554050480593    0.4836331981533017    
  0.48364811258284685    0.5197618471454213    0.5403844628572834    0.5195310298514568    0.49093439374381775    
  0.4909353567384484    0.47358337990344407    0.4909353783690778    0.5302861939325739    0.563458735586192    
  0.5733550805554241    0.5721162699437362    0.5733257342033992    0.563451733698268    0.5303079470723642    
  0.49092928150096393    0.47358337990344407    0.3993072721169463    0.4185173800737793    0.46902336057631644    
  0.531285644734791    0.5791940297034587    0.5960601619250082    0.5791809091548754    0.5312819067276904    
  0.4690313039560033    0.41851588164526116    0.3993072721169463    0.41851590176366604    0.4185181994601591    
  0.4504089063917604    0.5028869844224724    0.5566340690981955    0.5895099300679535    0.5895244855086805    
  0.5566457310930522    0.502886813583381    0.4503970269968783    0.41851590176366604    0.4690313210777099    
  0.45570785783467077    0.46902014271119324    0.5028788477142905    0.5439300707799866    0.5761003463951113    
  0.5877085414853633    0.5760961185095228    0.5439217525078465    0.5028868164397724    0.4690313210777099    
  0.5312818780003831    0.511989199875448    0.5119943473268413    0.5312886315525279    0.5566395322294605    
  0.5761049824050065    0.5847455021061727    0.5847403517168801    0.5760960741617911    0.5566457055630128    
  0.5312818780003831    0.5791809090337786    0.5584321258476893    0.5469436757189708    0.5584372373243133    
  0.5791852998992326    0.5895196846983313    0.5876913019681893    0.5847455664778853    0.5877085396439659    
  0.5895244579055955    0.5791809090337786    0.5960601052193738    0.5786523159086989    0.5533150575478568    
  0.553312150183122    0.5786403710595035    0.596067738585322    0.5895196349745162    0.576104985494607    
  0.5761003081966304    0.5895099059067613    0.5960601052193738    0.5791940351782795    0.5786493735753078    
  0.5492428941466243    0.530471495805074    0.5492522258262456    0.5786403947843121    0.5791853309302054    
  0.5566396080739672    0.5439300931135558    0.556634075535311    0.5791940351782795    0.5312856090758337    
  0.5584311518849927    0.5533105102688609    0.5304785271879253    0.5304714109172403    0.5533121336674381    
  0.5584372236015402    0.5312886588094352    0.5028788632469969    0.5028869849217079    0.5312856090758337    
  0.4690233602940151    0.5119980144946146    0.5469455378893737    0.5533105039478612    0.5492428125572901    
  0.5533150552731605    0.5469436403570539    0.5119943344434421    0.46902008333967016    0.4504089063371752    
  0.4690233602940151    0.4185173679065847    0.45570034149531424    0.5119979986768247    0.5584311383264382    
  0.5786492905356357    0.5786522700713276    0.5584320655446412    0.5119891821111466    0.45570781198280946    
  0.4185181967741919    0.4185173679065847    0.3993072721169463    0.4185173800737793    0.46902336057631644    
  0.531285644734791    0.5791940297034587    0.5960601619250082    0.5791809091548754    0.5312819067276904    
  0.4690313039560033    0.41851588164526116    0.3993072721169463    0.3719287245030063    0.3911441697039822    
  0.44406263964343445    0.514521403900367    0.5737125408889272    0.5960404568923042    0.5737125641132296    
  0.5145214272115499    0.4440626463072734    0.3911441300629092    0.3719287245030063    0.39114415180270545    
  0.3911493518157153    0.42710864731468656    0.4884795306571009    0.5524806435401985    0.5914885992348174    
  0.5914936059408747    0.5524871241653163    0.48848079851120085    0.4271030008445478    0.39114415180270545    
  0.4440626430654442    0.42710862530984567    0.44405514863564705    0.4884766722079845    0.5427130275406744    
  0.5836279652264498    0.5977173178586997    0.5836244983953679    0.5427100565606395    0.48848077834339176    
  0.4440626430654442    0.5145214148352223    0.48847955270029614    0.4884766754353767    0.5145263881168046    
  0.5524867158065584    0.5836276190913207    0.5976072106905068    0.5976013567850922    0.5836244475632185    
  0.5524871033173907    0.5145214148352223    0.5737125531076892    0.5524806667670525    0.5427131012331343    
  0.5524867909048791    0.5737084002962246    0.5914907309787965    0.5977086379590923    0.5976072410690522    
  0.5977173085031713    0.5914935918456216    0.5737125531076892    0.5960404080438226    0.5914886269079465    
  0.5836279650618542    0.5836276562242557    0.591490719053201    0.5960442054814874    0.5914907340205187    
  0.5836276207035404    0.5836279730180436    0.591488600839768    0.5960404080438226    0.5737125626243983    
  0.5914936022992483    0.5977173576425269    0.5976072184619189    0.597708618356418    0.5914907749858631    
  0.5737084478321277    0.55248677005178    0.542713064392561    0.5524806910042077    0.5737125626243983    
  0.5145214040772388    0.5524871499336178    0.5836244604914675    0.5976013530065736    0.5976071724911187    
  0.5836276393558516    0.5524867236988961    0.5145264083074796    0.48847667760675184    0.48847956149962596    
  0.5145214040772388    0.44406264814419005    0.48848080867467797    0.5427100128664311    0.5836244617966068    
  0.597717260719788    0.5836279616100002    0.542713065592721    0.4884767019202874    0.4440551642374422    
  0.4271086543677065    0.44406264814419005    0.3911441407854134    0.4271029721767839    0.4884808113308035    
  0.5524871139027565    0.5914935435844529    0.5914886053911093    0.5524806674461427    0.48847953371232905    
  0.42710862531579546    0.39114936051112204    0.3911441407854134    0.3719287245030063    0.3911441697039822    
  0.44406263964343445    0.514521403900367    0.5737125408889272    0.5960404568923042    0.5737125641132296    
  0.5145214272115499    0.4440626463072734    0.3911441300629092    0.3719287245030063    0.3993072694808651    
  0.4185159054474202    0.4690313254923921    0.5312819083772927    0.5791809208155007    0.5960601575189308    
  0.5791940327593487    0.5312856501739445    0.46902334120038547    0.41851736236412496    0.3993072694808651    
  0.41851734377549593    0.418518208277521    0.4557078321102143    0.511989196273633    0.558432064799595    
  0.578652281781699    0.5786493695718247    0.5584311594478223    0.5119980068312779    0.45570035164131545    
  0.41851734377549593    0.46902334514631355    0.4504089104947294    0.4690201226185419    0.5119943274344222    
  0.5469436248772885    0.5533150342285345    0.5492428759371947    0.553310554850148    0.546945615214059    
  0.5119979852055776    0.46902334514631355    0.5312856220773655    0.5028869716452424    0.5028788595724027    
  0.5312886118071032    0.5584372020229804    0.553312118125865    0.5304714401187859    0.5304785651091916    
  0.5533104990021778    0.5584311218815884    0.5312856220773655    0.5791940221964009    0.5566341188976489    
  0.5439301225880723    0.5566396048132564    0.5791853031708649    0.5786403923386473    0.5492522369279215    
  0.5304715107816931    0.549242859368852    0.5786493169057226    0.5791940221964009    0.596060116570335    
  0.5895099419102889    0.5761003491771394    0.5761049975267232    0.5895196592173358    0.5960677369367089    
  0.578640367727227    0.553312140243613    0.5533150343835843    0.5786522417825123    0.596060116570335    
  0.5791808783211406    0.5895245333689222    0.5877085718193041    0.58474558202124    0.5876912760442918    
  0.5895197066639739    0.5791853191608131    0.5584372612842897    0.5469436465993663    0.5584320803298795    
  0.5791808783211406    0.5312818648816341    0.5566457209459557    0.5760960744495066    0.5847403132904666    
  0.584745496194538    0.5761049876053895    0.5566395729841568    0.5312886806531324    0.5119943672485358    
  0.5119891872102567    0.5312818648816341    0.4690313426881339    0.5028868378369835    0.5439217023434046    
  0.5760960915405657    0.5877085214193986    0.5761003404634484    0.5439300664528188    0.5028788736362191    
  0.46902007715800453    0.4557078463805066    0.4690313426881339    0.41851591809272715    0.45039699699701413    
  0.5028868318037194    0.5566457167028024    0.5895244699167352    0.5895099407285102    0.5566341137922923    
  0.5028869632491897    0.45040886559370463    0.4185182009424643    0.41851591809272715    0.3993072694808651    
  0.4185159054474202    0.4690313254923921    0.5312819083772927    0.5791809208155007    0.5960601575189308    
  0.5791940327593487    0.5312856501739445    0.46902334120038547    0.41851736236412496    0.3993072694808651    
  0.47358337793659483    0.4909293033372619    0.5303079730727633    0.563451705408389    0.5733257384263034    
  0.5721162628552591    0.573355107686709    0.5634587589086937    0.5302861899875013    0.49093533892030006    
  0.47358337793659483    0.49093535405453115    0.4909343999624842    0.5195310456702015    0.5403844746555844    
  0.5197617932368643    0.483648111365915    0.48363325701804344    0.5197554430472499    0.5404142214370844    
  0.5195147459915608    0.49093535405453115    0.5302862178738665    0.5169898279634839    0.5302821275961264    
  0.5404093307461645    0.49151149879334405    0.4028157786399538    0.36030988696842586    0.402814762254286    
  0.4915060479807743    0.5404141923826524    0.5302862178738665    0.5634587387978743    0.5538628357069653    
  0.5538539641644716    0.5634611011109342    0.519766585595873    0.40280568414614343    0.3071621202004994    
  0.30717350900050233    0.4028147170880277    0.5197554182717539    0.5634587387978743    0.5733550841098244    
  0.5845941658181945    0.5762106005124777    0.5845994193581663    0.5733423097636868    0.48361964198679475    
  0.36033854966454854    0.30716215487801907    0.3603098931677187    0.48363323176697137    0.5733550841098244    
  0.5721162017621175    0.5996939475869263    0.5896489214117724    0.5896623029889939    0.5997067953545965    
  0.5721279070989369    0.4836196247310007    0.4028056994745653    0.4028157727091909    0.4836480961635107    
  0.5721162017621175    0.5733257540896508    0.5997073369872991    0.593525351042461    0.5859550769031505    
  0.5934989240724738    0.5997068262912112    0.5733423467451462    0.5197666417282709    0.4915115574825076    
  0.5197618589346436    0.5733257540896508    0.5634516872617851    0.5846194750385681    0.5896524019292502    
  0.5859423778862993    0.5859550504860503    0.5896623173387194    0.5845993472187804    0.5634610972829818    