#     DFTpy    
  CRYSTAL 
    
  PRIMVEC    
  4.1465517241379315    0.0    0.0    
  0.0    4.1465517241379315    0.0    
  0.0    0.0    2.2844827586206895    
  PRIMCOORD    
  4    1    
  Si    0.0    0.0    0.0    
  Si    2.0732758620689657    2.0732758620689657    1.1422413793103448    
  Si    0.0    2.0732758620689657    0.5711206896551724    
  Si    2.0732758620689657    0.0    1.7133620689655171    
  BEGIN_BLOCK_DATAGRID_3D    
  3d_datagrid_density    
  BEGIN_DATAGRID_3D#0    
  19    19    11    
  0.0    0.0    0.0    
  4.1465517241379315    0.0    0.0    
  0.0    4.1465517241379315    0.0    
  0.0    0.0    2.2844827586206895    
  0.050190887376491126    0.09521486487748362    0.27883490391817795    0.5243583518577137    0.6204197034889494    
  0.6142235178732028    0.585043477511529    0.5137092702344304    0.4156554072866828    0.3705452327185883    
  0.4156554009831302    0.5137092830326908    0.5850434432810514    0.6142234975862824    0.6204196863211049    
  0.5243583364388705    0.2788348939088287    0.09521485476428342    0.050190887376491126    0.09521486858525166    
  0.14967035800879888    0.3294318611743017    0.5231434030949396    0.5808756781039663    0.5686314887751783    
  0.5492537416109052    0.5027090819422858    0.4319687536586321    0.3974295871816174    0.43196874745561764    
  0.5027090861923934    0.5492537249060314    0.5686314876663433    0.5808756852738596    0.5231433688928869    
  0.3294318569503047    0.14967037818845977    0.09521486858525166    0.27883489184978777    0.32943187518465117    
  0.43942880028460296    0.4992486807443671    0.4836926880808715    0.46071052104212146    0.4588331639461665    
  0.4589388346805865    0.4455308191354943    0.4359511736684761    0.44553080026458947    0.45893880613069044    
  0.45883313673368537    0.46071051607323965    0.48369262984885275    0.4992487275782189    0.43942881591976063    
  0.3294318246699344    0.27883489184978777    0.5243583934228635    0.5231434082433256    0.4992487370626451    
  0.43920968638980185    0.37774578796628056    0.3494177340119126    0.3581427583864593    0.387765258981551    
  0.41541650934997487    0.4259121045732107    0.4154165521875216    0.3877652906515098    0.3581427917896985    
  0.34941778981749494    0.37774577724895564    0.43920970902719403    0.4992487116482798    0.5231434168647288    
  0.5243583934228635    0.6204197029409263    0.5808757219245845    0.4836926551772427    0.3777457794145518    
  0.3041118693941649    0.27598243496384944    0.28819672671993996    0.32716191376150355    0.36915342528187417    
  0.3871732373544215    0.36915343881644247    0.32716193210668276    0.28819671480935405    0.2759824493018558    
  0.30411188933928773    0.37774581160079757    0.48369267377339564    0.5808757097874625    0.6204197029409263    
  0.6142235472375893    0.5686315305882204    0.46071051805851476    0.34941776100969274    0.27598245763396656    
  0.24948386459487218    0.2634621365506516    0.30496099637618007    0.3502577422722386    0.3700173022186934    
  0.3502577364727735    0.3049610022097453    0.2634621253756715    0.24948389910533827    0.27598247840058154    
  0.3494177461877205    0.46071053309407245    0.568631511150321    0.6142235472375893    0.5850434674184775    
  0.549253719946161    0.45883314197826347    0.35814275983215915    0.2881967036787438    0.26346211604319963    
  0.28029225371864064    0.3250309561017899    0.37310703304886444    0.39425541435966605    0.3731070175233388    
  0.32503093798142557    0.28029225194122553    0.26346213950856323    0.288196676188941    0.3581427706894029    
  0.45883313563838185    0.5492536807133037    0.5850434674184775    0.5137092717080896    0.5027091106506292    
  0.4589387999508956    0.38776528096077023    0.3271619355613451    0.3049609745507307    0.3250309525574143    
  0.374099911513362    0.4264994814827965    0.44987655325432385    0.426499487121062    0.3740999249515633    
  0.32503095694733897    0.30496098243998515    0.3271619154923986    0.3877652602088404    0.4589388087973284    
  0.5027090772567319    0.5137092717080896    0.41565541332265654    0.4319687586585469    0.44553082528231386    
  0.4154165262826142    0.36915342509917076    0.35025772285238466    0.37310703185544547    0.42649949179853064    
  0.48300335951792367    0.5081851155335674    0.48300334165820197    0.42649951409966164    0.37310702394510004    
  0.3502577697767244    0.3691534046425501    0.4154165201579222    0.44553077925284074    0.43196876305342924    
  0.41565541332265654    0.3705452606821073    0.3974295981482627    0.4359512113506009    0.4259121008668979    
  0.38717320736965133    0.37001734891440424    0.3942554699274316    0.4498765457015046    0.5081851371400671    
  0.5338803043508215    0.5081851600694876    0.44987653864245175    0.394255457262825    0.37001733743231585    
  0.38717319741935663    0.42591207760914296    0.4359511907656786    0.3974295659208419    0.3705452606821073    
  0.415655397259204    0.43196869637397395    0.44553079626071884    0.4154164825954318    0.3691534263845068    
  0.350257725816543    0.3731070426720517    0.4264995002375792    0.48300338634255224    0.5081851253115766    
  0.4830033561186692    0.42649950389835944    0.37310701754285136    0.3502577130220071    0.36915341504517785    
  0.41541648557936933    0.4455308174208055    0.4319687490906958    0.415655397259204    0.513709280014132    
  0.5027090638530695    0.45893879059983794    0.3877652481392207    0.32716191857673166    0.3049609860672902    
  0.32503098976912115    0.37409993704611255    0.4264994949598879    0.44987655843450747    0.4264994933592487    
  0.3740999321064184    0.32503096232564954    0.30496099187477355    0.32716192909911024    0.3877652581216182    
  0.45893883269357616    0.502709054127759    0.513709280014132    0.5850434602025882    0.5492536832290059    
  0.4588331585763596    0.3581427450532647    0.28819670771465933    0.26346209604337867    0.2802922666384997    
  0.325030941384065    0.3731070461053421    0.3942554245293058    0.3731070403443688    0.32503094094520285    
  0.28029226442332295    0.26346213055277223    0.2881966770620566    0.3581427728247248    0.45883313989535224    
  0.5492537562923591    0.5850434602025882    0.6142235415781558    0.5686315184278903    0.4607104952464963    
  0.3494177498122357    0.27598248731161085    0.2494838708798989    0.26346214218932346    0.30496100277312177    
  0.3502577282209266    0.37001737009592334    0.35025772200028377    0.3049609856704904    0.26346213886673253    
  0.24948388500060767    0.27598247584342156    0.34941777889326103    0.4607105586439278    0.5686315182800799    
  0.6142235415781558    0.6204197512583548    0.5808756566360644    0.48369263721365163    0.37774579746613735    
  0.30411189172531644    0.2759824602352805    0.28819670222050925    0.32716194332155457    0.3691534395534147    
  0.3871731791757625    0.36915340814714337    0.32716192127750904    0.2881966784954382    0.27598247439639023    
  0.30411188435967934    0.37774577938458087    0.4836926849009808    0.5808757076369799    0.6204197512583548    
  0.5243583953907869    0.5231433834162178    0.4992486964411331    0.4392096724777056    0.37774578849288815    
  0.34941779676520895    0.35814276689886554    0.38776525717616717    0.4154165348363251    0.42591208061195907    
  0.41541646555078954    0.3877652445498038    0.3581427852310433    0.349417782201918    0.37774577467757603    
  0.43920969437007756    0.49924868833988467    0.5231434016114733    0.5243583953907869    0.2788348655209966    
  0.3294318715071578    0.439428798380885    0.4992486775784448    0.4836926791465369    0.4607104700225729    
  0.4588331925598464    0.4589387903331084    0.4455307847849991    0.4359512028841659    0.4455307834412502    
  0.4589387757066149    0.4588331545882477    0.46071050536958574    0.48369268287563305    0.4992487174942038    
  0.43942878326250984    0.32943187113999745    0.2788348655209966    0.09521488033199293    0.14967035086796074    
  0.32943186997873947    0.5231433967038236    0.580875706927564    0.5686314749535114    0.5492537030934898    
  0.5027090781404873    0.4319687671561036    0.39742955113579065    0.43196873593559404    0.5027090897357256    
  0.5492536879014326    0.5686315797608662    0.5808756574090314    0.5231433931092407    0.32943184678692145    
  0.14967035408078203    0.09521488033199293    0.050190887376491126    0.09521486487748362    0.27883490391817795    
  0.5243583518577137    0.6204197034889494    0.6142235178732028    0.585043477511529    0.5137092702344304    
  0.4156554072866828    0.3705452327185883    0.4156554009831302    0.5137092830326908    0.5850434432810514    
  0.6142234975862824    0.6204196863211049    0.5243583364388705    0.2788348939088287    0.09521485476428342    
  0.050190887376491126    0.09236663897041036    0.14390541400141063    0.310152018987192    0.4805740980020363    
  0.5207624037082004    0.5034500184191569    0.5032440761143898    0.515550408031389    0.5190963920463071    
  0.5176500259052319    0.5190963808713762    0.515550369409798    0.5032440419980775    0.5034500118869983    
  0.5207623946987298    0.4805740720488293    0.3101519989381069    0.14390540382479605    0.09236663897041036    
  0.14956841156497055    0.2049900701767606    0.356282341398846    0.480476597772998    0.49210391431971834    
  0.46911068372451775    0.4697243328733219    0.4868885460087044    0.4990640637771753    0.502336562388283    
  0.49906408832469673    0.48688854861629055    0.46972431192315767    0.4691107034714396    0.49210394332736734    
  0.4804766012029853    0.3562823211307919    0.20499008214000758    0.14956841156497055    0.34785430074651125    
  0.3863187395300076    0.4546536951211716    0.4648937377955881    0.42170862187693475    0.38871353443907236    
  0.39092790896776397    0.4164301096960245    0.443003407877735    0.4540219309782259    0.44300343086798405    
  0.41643013454798183    0.39092787888961317    0.3887135442842641    0.4217085772945478    0.46489373923310356    
  0.4546537047358045    0.3863187241436624    0.34785430074651125    0.5831541890219855    0.5680111172088158    
  0.5124626057334409    0.4242067622952101    0.34616977001006255    0.3081603266280291    0.31113861617996635    
  0.34070821055163014    0.374324536302532    0.388984246629024    0.37432455728938707    0.340708238375442    
  0.3111386175146361    0.30816034740963083    0.3461697714386399    0.4242067971001643    0.5124625923629718    
  0.5680111451069607    0.5831541890219855    0.6803062461417329    0.6310651134763229    0.5124902361743643    
  0.3862521887671058    0.2984449814193217    0.26005608688892295    0.2630136947967252    0.2929955895404274    
  0.32798539110883707    0.34335780959704976    0.32798540387717456    0.29299559015284254    0.26301369814512787    
  0.2600560934901568    0.29844497981658724    0.3862521780344445    0.5124902593983032    0.6310650891710555    
  0.6803062461417329    0.6798970618990744    0.6290718239364518    0.50760382436973    0.37991150909276733    
  0.2921455925027681    0.2542673265933572    0.25775577905851316    0.2882876438191064    0.32381415566031546    
  0.33944069037979646    0.3238141686003539    0.288287644885478    0.2577557609133691    0.2542673524390602    
  0.29214558584917194    0.37991150725014217    0.5076038386379145    0.6290717946218717    0.6798970618990744    
  0.6028302277412392    0.5785972529450941    0.5054326926675143    0.4063716525352644    0.32621791528247407    
  0.2893377510185322    0.2943108248058279    0.32662913075411976    0.3633848717223958    0.3796069905427033    
  0.36338482947033357    0.3266291289549401    0.29431084234841276    0.28933779064522824    0.32621788779226657    
  0.40637165629025207    0.5054326567268602    0.5785972532519228    0.6028302277412392    0.4101171629317348    
  0.43446619431424316    0.4650422518712062    0.4417552388356437    0.3871968375424363    0.35453357520543993    
  0.36105005069609414    0.394567591131227    0.43152252565028903    0.44786716030181595    0.43152252658323875    
  0.3945675876544254    0.36105003690071824    0.35453362725400833    0.3871968431114249    0.44175522762080915    
  0.4650422297670515    0.4344661691532351    0.4101171629317348    0.22158786118064053    0.27296979154066486    
  0.3906633414720491    0.4604590300883193    0.44605917265706674    0.4211288570728546    0.42894208362013586    
  0.46215444769561365    0.4961918220529805    0.5105795178846081    0.4961917914533478    0.46215448758899413    
  0.4289420731277593    0.421128884694237    0.44605916273076085    0.46045900923347083    0.3906633290869637    
  0.27296978454736714    0.22158786118064053    0.157590445771096    0.21158871325098674    0.3535714157719457    
  0.46370967650235206    0.47034766147076734    0.4497923429531811    0.4583141470952697    0.49116117564592165    
  0.5228047492513093    0.5355521233175181    0.5228047824103378    0.49116113440847886    0.4583141917505637    
  0.44979232904680566    0.47034765609558776    0.4637096866049867    0.353571382497804    0.21158871344672284    
  0.157590445771096    0.22158784605322146    0.2729697719794692    0.3906633284595329    0.4604589734257118    
  0.44605919265496785    0.42112886304503316    0.4289421110642949    0.462154462871159    0.49619181485266584    
  0.5105795203532039    0.496191821637784    0.4621544754346187    0.4289420900506784    0.4211288770361601    
  0.44605915706345123    0.46045898387893036    0.3906633235397396    0.2729697754135125    0.22158784605322146    
  0.4101171493040435    0.4344661542438702    0.46504221256798517    0.44175522304444337    0.387196865844772    
  0.3545335898233056    0.3610500549761653    0.39456760785995937    0.431522545871849    0.44786715282159967    
  0.43152255369045645    0.3945675941480014    0.3610500242002024    0.3545335973619075    0.38719685806147963    
  0.4417552272371632    0.4650422598611807    0.4344661275854487    0.4101171493040435    0.6028302338246224    
  0.5785972532824705    0.5054326825916514    0.4063716410532356    0.3262179166705888    0.2893377657419804    
  0.2943108452727564    0.32662913372759605    0.3633848571452376    0.37960702431522436    0.3633848574827768    
  0.32662913440221575    0.294310854353352    0.28933778158297635    0.32621790011379886    0.40637166476825476    
  0.5054326862106728    0.5785973082267462    0.6028302338246224    0.679897052377163    0.6290718350341503    
  0.5076037925023185    0.37991151671867823    0.2921455966305918    0.25426732072093766    0.25775579332111415    
  0.2882876230138488    0.32381416985458933    0.33944069415545414    0.32381417303510873    0.28828763667991647    
  0.25775579443215935    0.2542673357490877    0.2921455816866787    0.3799115240747502    0.5076038220116403    
  0.6290718197521886    0.679897052377163    0.6803062937011286    0.6310650716841026    0.5124902465677363    
  0.386252184312275    0.2984449815414011    0.26005610991736444    0.26301367731249103    0.29299560865959456    
  0.32798540035060453    0.3433577887648372    0.32798537267348016    0.29299557387121594    0.2630136617717139    
  0.26005612472954337    0.29844496975856766    0.3862521646599213    0.5124902998378931    0.6310651081449699    
  0.6803062937011286    0.5831541582893353    0.568011121066093    0.5124626077310999    0.42420679189540056    
  0.34616978248601227    0.3081603252850073    0.31113861232691026    0.34070819451003226    0.3743245604510513    
  0.38898420971421976    0.374324500478824    0.34070820917537425    0.3111386247149655    0.30816036676883896    
  0.3461697611531028    0.42420680044887776    0.5124625862689927    0.5680111339045193    0.5831541582893353    
  0.34785427247148365    0.3863187585720812    0.4546536984502595    0.4648937228859547    0.4217086484888282    
  0.3887134865997878    0.3909279227180318    0.4164300857475546    0.4430033997006306    0.4540219357420143    
  0.44300339875619116    0.41643007636958823    0.39092788666493844    0.38871352389168107    0.42170861709294055    
  0.4648937557030202    0.45465368739436957    0.3863187347527756    0.34785427247148365    0.14956842608329685    
  0.2049900666667961    0.3562823222470575    0.4804766058907389    0.4921039657747866    0.46911070827988655    
  0.46972432368509925    0.4868884913699619    0.49906408067163466    0.5023365258650508    0.4990640488461698    
  0.4868885550505511    0.4697242755649856    0.46911076809358215    0.49210395034376897    0.48047661746384795    
  0.35628232124491055    0.2049900746350966    0.14956842608329685    0.09236663897041036    0.14390541400141063    
  0.310152018987192    0.4805740980020363    0.5207624037082004    0.5034500184191569    0.5032440761143898    
  0.515550408031389    0.5190963920463071    0.5176500259052319    0.5190963808713762    0.515550369409798    
  0.5032440419980775    0.5034500118869983    0.5207623946987298    0.4805740720488293    0.3101519989381069    
  0.14390540382479605    0.09236663897041036    0.257011144483838    0.30338972835332956    0.4002060537455006    
  0.4458575592085316    0.4248363227046283    0.4043347114073648    0.42062432715585263    0.46649712877566657    
  0.5146663907744268    0.5357451970646877    0.5146663990033619    0.46649710107664977    0.4206243274400063    
  0.404334700916174    0.4248363348386631    0.4458575553908879    0.40020604575087443    0.3033896874949455    
  0.257011144483838    0.3181267490951579    0.35594805074103353    0.42414391733345075    0.4387521431374678    
  0.40410161142181694    0.38064397720261195    0.3956572727574893    0.43987801022310236    0.4872383035703304    
  0.5082851502632122    0.48723830749983443    0.4398779798943821    0.39565726149511493    0.38064398514001224    
  0.40410160776001103    0.43875217452359944    0.42414389793824836    0.3559480704283572    0.3181267490951579    
  0.47151223616152765    0.4778452886976765    0.4677754277711384    0.4153838022025083    0.35480265285431983    
  0.326009731373423    0.33852609714614723    0.3794595408314306    0.4242576787591634    0.4443198849183928    
  0.4242576741613581    0.37945956319684526    0.3385260537967023    0.3260097529170074    0.35480262182762595    
  0.4153838392224917    0.46777543422358914    0.47784528255662156    0.47151223616152765    0.6044820536844906    
  0.5727778558900124    0.4870377746073529    0.38353243653470226    0.3062930158984319    0.2741095031277975    
  0.283836813769202    0.32113134616396716    0.36247129492316327    0.3807248916650466    0.36247128790145455    
  0.32113134733841653    0.2838368093542097    0.2741095287018986    0.30629300854151575    0.38353246627136356    
  0.48703777425141154    0.572777864617487    0.6044820536844906    0.6565004778516591    0.607053317386059    
  0.4894903042133336    0.36713584322050646    0.28443108309861176    0.2506858563352248    0.25791926602948567    
  0.2922797246219506    0.3311990578393644    0.3482628781624638    0.33119907266090426    0.292279757120812    
  0.2579192543301948    0.250685866885214    0.28443110306496966    0.36713585569768764    0.4894903310076675    
  0.6070533023780631    0.6565004778516591    0.6587072533728142    0.613611538812906    0.5038937465021885    
  0.3854784336341892    0.302634090556308    0.2675622503670138    0.2733985092960638    0.3061621035471515    
  0.34333846731583184    0.3595402930531319    0.34333845823309944    0.30616206952569847    0.27339849936185784    
  0.2675622751190898    0.30263409080711245    0.3854784414287313    0.5038937464735035    0.6136115059945003    
  0.6587072533728142    0.5539456983018054    0.5471095615904843    0.5094643605300808    0.43540938684825353    
  0.3640581310257861    0.3289358518117777    0.33309964711767565    0.36186668093229063    0.39277667186891413    
  0.4057225196102705    0.39277664534858314    0.36186668607609745    0.3330996609362294    0.32893587059589546    
  0.3640580999874275    0.4354093940598085    0.5094643248405635    0.547109584790797    0.5539456983018054    
  0.3011795073741775    0.3481309789661225    0.4438920641879347    0.4840984524139611    0.4550786921966364    
  0.4255159363322516    0.425047196451509    0.4400026282289122    0.4504850703952645    0.45306477539927387    
  0.4504850719442073    0.44000262117092365    0.4250471902454875    0.4255159827134164    0.455078683680703    
  0.48409845594542505    0.44389204232945667    0.3481309592239219    0.3011795073741775    0.10867092210122625    
  0.1633379811060982    0.3331146662114366    0.5007194096855703    0.5385546707451074    0.5202875180528687    
  0.5123640696985153    0.5039567781699346    0.4810967426954437    0.467367377760911    0.4810967206261404    
  0.503956836142689    0.5123640826262157    0.5202875765514069    0.53855464952299    0.5007193772655618    
  0.33311466367314535    0.16333797405281264    0.10867092210122625    0.05965829025582248    0.10623574491815725    
  0.2827258064009789    0.499781674368978    0.572375273845676    0.5605143724999877    0.5484812375832016    
  0.5271027992375983    0.4863655676324113    0.4641856064605463    0.4863655864464369    0.527102790683343    
  0.5484812418721606    0.5605144055278036    0.5723752254873498    0.49978168962909614    0.2827257787276566    
  0.10623574394432972    0.05965829025582248    0.1086709159376163    0.16333797119505084    0.3331146471943342    
  0.500719360124553    0.5385546906697122    0.5202875064554788    0.5123641368496633    0.5039567768646652    
  0.48109672295662964    0.46736737176420917    0.4810967218572213    0.5039567725821258    0.512364084397721    
  0.5202875577354    0.5385546408372883    0.5007193439150819    0.3331146478428495    0.1633379990523528    
  0.1086709159376163    0.301179493434251    0.34813097157764966    0.44389201950395174    0.4840984298496207    
  0.45507870315679455    0.4255159741936985    0.42504720201994917    0.4400026289211491    0.45048509425891814    
  0.45306475353192266    0.45048509087039884    0.4400026688711707    0.42504717786192675    0.42551598946417907    
  0.45507866068811736    0.4840984307572557    0.4438920847114049    0.3481309463134814    0.301179493434251    
  0.5539456952279546    0.54710956942838    0.5094643512272535    0.43540938132505114    0.36405811449613434    
  0.32893585416100435    0.3330996593856906    0.36186667581215176    0.3927766525631698    0.4057225630771499    
  0.39277666736791517    0.3618666776671955    0.3330996810062135    0.3289358879407844    0.36405811005628863    
  0.43540942078985345    0.5094643451733285    0.5471096457158799    0.5539456952279546    0.6587072371133914    
  0.6136115491221804    0.5038936867601854    0.3854784579878797    0.3026340882943256    0.2675622325653589    
  0.27339853186242113    0.3061620744027979    0.3433384558136537    0.35954029295989764    0.3433384515796166    
  0.30616206476963326    0.2733985281767691    0.26756225022796104    0.30263409309509326    0.38547846000139163    
  0.5038937577082386    0.6136115511367232    0.6587072371133914    0.6565004926479546    0.6070532896169447    
  0.489490307786422    0.3671358637954794    0.2844310995670388    0.25068589605906466    0.2579192691622191    
  0.29227974142776897    0.33119907704557644    0.3482628689914834    0.3311990718474845    0.29227974115268196    
  0.2579192432092962    0.2506859122158296    0.2844310913521476    0.36713584291537854    0.48949036224391684    
  0.6070533021089013    0.6565004926479546    0.6044820539609743    0.5727778547365393    0.487037735739969    
  0.383532428569267    0.30629301767314404    0.27410952051430765    0.28383681395995514    0.3211313059176957    
  0.3624713140622828    0.38072484466685624    0.36247126549933584    0.3211313058964661    0.28383680277538154    
  0.2741095426688913    0.30629301338966525    0.3835324401283187    0.4870377404916878    0.5727778824969174    
  0.6044820539609743    0.4715122050420718    0.4778453139910097    0.4677754572736578    0.41538383990679156    
  0.3548026706417615    0.32600968428160054    0.3385261144764237    0.3794595268117262    0.4242576384482625    
  0.44431988839071096    0.42425764674690764    0.3794595124161308    0.33852607884463903    0.32600973343612555    
  0.35480265070305406    0.41538382687093656    0.4677754393438441    0.4778453000405944    0.4715122050420718    
  0.3181267778234857    0.3559480599976587    0.42414392039533255    0.43875212497469207    0.4041016219031072    
  0.3806439562821468    0.395657246290045    0.4398779830590154    0.48723831948217605    0.5082851315364936    
  0.48723825741366694    0.4398780278210211    0.39565722513586365    0.38064402831130245    0.404101604815532    
  0.43875214897702913    0.4241439070592188    0.3559480556642851    0.3181267778234857    0.257011144483838    
  0.30338972835332956    0.4002060537455006    0.4458575592085316    0.4248363227046283    0.4043347114073648    
  0.42062432715585263    0.46649712877566657    0.5146663907744268    0.5357451970646877    0.5146663990033619    
  0.46649710107664977    0.4206243274400063    0.404334700916174    0.4248363348386631    0.4458575553908879    
  0.40020604575087443    0.3033896874949455    0.257011144483838    0.46418668934478824    0.4673663462204679    
  0.4530658308286587    0.4057215225031992    0.3595412539635188    0.34826193574830483    0.3807258480108983    
  0.44431887545241283    0.5082862714949741    0.535744063871574    0.5082862802160708    0.4443188249826733    
  0.3807258383352938    0.34826192936441386    0.3595412487032053    0.4057215207442326    0.45306579407782854    
  0.467366294714094    0.46418668934478824    0.48636446868937055    0.4810977739967741    0.45048408725271905    
  0.39277760596894873    0.3433375118678785    0.33119995976050937    0.36247038477443716    0.42425871139127685    
  0.4872372109140785    0.5146674964559814    0.48723721479420856    0.4242586726194635    0.36247036254054615    
  0.331199967217093    0.3433375244009546    0.3927776214433635    0.4504840673389508    0.48109780316162937    
  0.48636446868937055    0.5271039404559466    0.5039556899478613    0.44000362510620383    0.3618657375925692    
  0.30616294447151515    0.2922788675100888    0.3211322471262047    0.3794585772788324    0.439879017644377    
  0.46649607150564565    0.43987899703003935    0.3794585955824057    0.32113219347515193    0.292278899190001    
  0.3061629216797516    0.36186578174429396    0.4400036492384833    0.5039556767898163    0.5271039404559466    
  0.5484800490951858    0.5123652096462109    0.42504617839404135    0.3331005188770408    0.27339768033094614    
  0.25792002923481855    0.28383596765401004    0.3385269818004557    0.39565628300119715    0.42062532737530134    
  0.3956562822606273    0.33852699588497015    0.2838359601842934    0.2579200523592568    0.2733976659227116    
  0.33310055428030927    0.4250461709900457    0.5123652040348824    0.5484800490951858    0.5605155318766514    
  0.5202864361449379    0.42551696631819014    0.32893495089852265    0.26756307025794046    0.2506850638004291    
  0.2741103777153741    0.32600883271598463    0.38064493005124134    0.4043337393208099    0.3806449443790205    
  0.3260088599747066    0.2741103695913175    0.2506850721779965    0.2675630872779455    0.32893495801188594    
  0.4255170081894525    0.5202864426935762    0.5605155318766514    0.5723740994805762    0.5385558006032605    
  0.45507765298598374    0.36405906066821786    0.3026332278573423    0.2844319371392193    0.3062921532257866    
  0.35480359195714906    0.4041006422708211    0.4248373131268758    0.4041006377703113    0.35480358382996247    
  0.3062921428907159    0.28443195763976886    0.3026332239073907    0.3640590625048384    0.45507764894434166    
  0.5385557581128596    0.5723740994805762    0.4997828114576397    0.5007182761241461    0.4840994963643028    
  0.43540835569002906    0.38547942126905255    0.367134876456449    0.38353340752517673    0.41538282134131777    
  0.4387531930822047    0.4458565491746831    0.43875316823360677    0.4153828007197578    0.383533423807289    
  0.3671349064401883    0.38547939499117156    0.4354083680380946    0.4840994934062698    0.5007183105968095    
  0.4997828114576397    0.28272493362402573    0.33311558863428326    0.44389105327581657    0.5094654398638045    
  0.5038926471750617    0.4894913695044479    0.4870367319151083    0.4677764718442215    0.4241428723926314    
  0.40020703908530303    0.4241428793095252    0.46777647452595816    0.4870367111678248    0.4894914222265535    
  0.5038926293611786    0.5094654485679955    0.4438910086699719    0.3331155763007296    0.28272493362402573    
  0.10623634526570157    0.1633372886873231    0.3481319219593007    0.5471084574182388    0.6136127303869132    
  0.607052066088354    0.5727790048267813    0.47784423655515856    0.355949035136775    0.30338881291828784    
  0.35594899924720313    0.47784426340232594    0.5727789998532702    0.607052113001322    0.6136127212754292    
  0.5471084291762027    0.3481319062203367    0.16333727828525738    0.10623634526570157    0.05965782140838109    
  0.10867151198753232    0.30117861985849853    0.5539467800052822    0.6587060214094399    0.6565017183274382    
  0.6044809033073002    0.4715132639598215    0.31812583796297317    0.2570119701682933    0.318125874071303    
  0.47151327409059834    0.6044808818424225    0.6565017435399919    0.6587059749124247    0.5539468020213826    
  0.3011785914217536    0.10867151197564498    0.05965782140838109    0.10623633703273613    0.16333727281418953    
  0.34813190732744614    0.5471084317629514    0.6136127213869503    0.6070520521877943    0.5727790773437985    