#     DFTpy    
  CRYSTAL 
    
  PRIMVEC    
  3.903734767831226    -2.1447879999999997e-10    4.0652908965517236e-10    
  -2.1447879999999997e-10    3.903734767604391    1.958853724137931e-10    
  7.428806551724137e-10    3.5801531034482757e-10    7.15171775151252    
  PRIMCOORD    
  4    1    
  Si    1.9518673838412388    1.95186738487637    2.197681739311073    
  Si    7.238027870565009e-10    -6.698698320513726e-10    1.3781771340411255    
  Si    1.1101433486693987e-10    5.05911691556499e-10    5.773540613414884    
  Si    1.9518673844264527    1.951867383393531    4.9540360168603685    
  BEGIN_BLOCK_DATAGRID_3D    
  3d_datagrid_density    
  BEGIN_DATAGRID_3D#0    
  17    17    31    
  0.0    0.0    0.0    
  3.903734767831226    -2.1447879999999997e-10    4.0652908965517236e-10    
  -2.1447879999999997e-10    3.903734767604391    1.958853724137931e-10    
  7.428806551724137e-10    3.5801531034482757e-10    7.15171775151252    
  0.2519876908779343    0.23456664053983167    0.19100483905319035    0.14066317755391103    0.09882271483990054    
  0.07033134151992468    0.05353105484788705    0.04504336154860946    0.04247181514390424    0.04504335498324044    
  0.053531052491849876    0.07033133361131362    0.0988227196958524    0.14066319391844573    0.191004826640049    
  0.2345666648298657    0.2519876908779343    0.23456661855114275    0.21860584354212553    0.17879205565123876    
  0.13276606263671598    0.09427434674500518    0.067887669407276    0.052278302927484616    0.044364819925414384    
  0.04195170222206651    0.04436481795007038    0.05227830313238447    0.06788767729274135    0.09427433360410149    
  0.1327660781689813    0.17879202216278664    0.21860588162899117    0.23456661855114275    0.1910048431933965    
  0.17879203277917333    0.14836653355540586    0.1128801415678908    0.0827232515880778    0.06171379885096284    
  0.04910446639794979    0.04260659614896441    0.040590393597093564    0.04260658812242769    0.0491044635434603    
  0.0617137856812438    0.08272324838170943    0.11288013371311069    0.14836653664294577    0.1787920251316806    
  0.1910048431933965    0.14066313067962952    0.13276605970222025    0.11288013434421172    0.08923621582972324    
  0.06874321419320462    0.0541775442176129    0.04524639460558983    0.04057326630163192    0.03910950510549611    
  0.04057327174308402    0.045246392502378247    0.05417754403244085    0.06874321619445709    0.08923622240946846    
  0.11288012199291685    0.13276606720445305    0.14066313067962952    0.09882271121383898    0.09427432440400922    
  0.08272322767791405    0.06874321611288602    0.05640181450530645    0.0474782030751536    0.041944761115478506    
  0.03909627455728263    0.03823370347319719    0.03909627273232365    0.04194477419267603    0.047478212365744975    
  0.05640181306158358    0.06874321265949088    0.08272324524102598    0.09427435016471582    0.09882271121383898    
  0.07033131545975381    0.06788767566213876    0.06171379252891399    0.05417754109477275    0.047478200475646014    
  0.04270709791436948    0.03987110226298175    0.03852576184997722    0.0381511919581982    0.038525758283084736    
  0.03987109910987778    0.042707090087987315    0.047478204200617255    0.054177556297366807    0.06171379437699664    
  0.06788768012376228    0.07033131545975381    0.0535310465335357    0.05227829950790041    0.04910446081443817    
  0.045246398111988405    0.04194476914900949    0.03987111009161722    0.03895177939139481    0.03872443496288579    
  0.038714777407010896    0.038724434334968624    0.03895178397404928    0.03987110180271596    0.04194476270464911    
  0.04524639873536381    0.04910446266702572    0.0522783038555931    0.0535310465335357    0.0450433481744381    
  0.04436481696127898    0.04260659195137873    0.040573266718172185    0.03909626581320725    0.03852575706498037    
  0.03872443006622144    0.03920835221303769    0.039442183739236025    0.03920834614421858    0.0387244190166521    
  0.03852575801108486    0.0390962669558894    0.04057326821718395    0.04260659978551854    0.044364812846044065    
  0.0450433481744381    0.04247179500314405    0.04195170673760395    0.04059038549935711    0.039109510270743414    
  0.038233695248170045    0.038151189179913524    0.038714779888291605    0.03944219200450326    0.039759563045982    
  0.03944217764855844    0.03871477155084653    0.038151185733201844    0.038233694526987196    0.03910951411495195    
  0.04059038921350806    0.04195171156306368    0.04247179500314405    0.04504334075232319    0.04436480893876958    
  0.04260659482839834    0.040573271433036795    0.03909626822608943    0.03852575907111537    0.03872442401897348    
  0.03920836205830102    0.039442183407081534    0.03920835191637686    0.03872442516840425    0.038525753098354265    
  0.03909625876770634    0.04057327075877377    0.04260658813410523    0.04436481948252872    0.04504334075232319    
  0.05353105556057997    0.05227829897805735    0.04910446608691705    0.04524639410090039    0.0419447711525234    
  0.03987110584314702    0.03895177399846455    0.03872443552310697    0.0387147858876924    0.038724418550367706    
  0.03895178145018884    0.03987109379039003    0.0419447708348651    0.04524640253466398    0.04910446301589853    
  0.05227830393640755    0.05353105556057997    0.07033132051691424    0.06788767761083915    0.06171378987427734    
  0.05417755112097077    0.047478197060715516    0.04270710294813802    0.03987109915110993    0.03852575889384008    
  0.03815118513453584    0.03852576508549032    0.039871094797718505    0.04270709277299292    0.04747819323552445    
  0.05417754660318482    0.06171379995442259    0.06788767269723331    0.07033132051691424    0.09882271864888456    
  0.09427433732731648    0.08272323307004746    0.06874321608492978    0.05640181158559687    0.04747820173901022    
  0.04194475964569826    0.03909627149834214    0.038233702564230664    0.0390962711878911    0.04194476865984316    
  0.04747820245300957    0.056401815159278314    0.06874321756746313    0.08272325446711982    0.09427433642803275    
  0.09882271864888456    0.14066312722370275    0.13276606820541736    0.11288013619523596    0.08923622232616507    
  0.06874320466065953    0.054177549756703615    0.0452463888527449    0.04057326501762728    0.03910950744564681    
  0.04057326994917913    0.045246389988139755    0.05417754366607286    0.06874320760584152    0.08923621048159316    
  0.11288012161134708    0.13276606514888117    0.14066312722370275    0.19100482818949002    0.17879201560867952    
  0.1483665284515665    0.11288012614154598    0.08272323905320665    0.06171378762714503    0.0491044604114272    
  0.04260660805487854    0.04059039233458499    0.04260659622055832    0.04910447046964811    0.0617137825779762    
  0.08272324633962748    0.11288014334235526    0.1483665246779516    0.1787920399469475    0.19100482818949002    
  0.23456660966063517    0.21860585591728643    0.1787920447359535    0.13276606725906112    0.09427433835649775    
  0.0678876928107737    0.05227829619437904    0.044364823992223815    0.04195170464802348    0.04436482275681677    
  0.05227830284311597    0.06788769096501326    0.09427434372818744    0.13276605514665943    0.17879205209973867    
  0.21860582659959144    0.23456660966063517    0.2519876908779343    0.23456664053983167    0.19100483905319035    
  0.14066317755391103    0.09882271483990054    0.07033134151992468    0.05353105484788705    0.04504336154860946    
  0.04247181514390424    0.04504335498324044    0.053531052491849876    0.07033133361131362    0.0988227196958524    
  0.14066319391844573    0.191004826640049    0.2345666648298657    0.2519876908779343    0.2841744825687674    
  0.26426176828390824    0.21434478483577754    0.15645809236675812    0.10826086263492891    0.07553013762973439    
  0.056304152893022444    0.046681457899073096    0.04380673506532394    0.046681458174706654    0.056304146230061414    
  0.07553013661120138    0.1082608632905059    0.1564580958356874    0.214344783852993    0.26426175702165644    
  0.2841744825687674    0.2642617490226578    0.2460509810861443    0.20044540503698022    0.14746788342127573    
  0.10313300647905618    0.07283709330344162    0.05496379243817046    0.04599177430804864    0.04330330980473798    
  0.04599177046547087    0.054963797615767654    0.0728371045253564    0.1031329960432625    0.1474678817138922    
  0.20044540049586151    0.24605102893956024    0.2642617490226578    0.21434476413939565    0.20044541397525223    
  0.1655778312402061    0.1247436948193902    0.0900979363826855    0.06603530807009664    0.05162656071895834    
  0.04429665619906265    0.04207080785033794    0.044296650876872415    0.05162655544707397    0.06603530364653477    
  0.09009793867310702    0.12474369394755472    0.16557784317336618    0.20044540004903066    0.21434476413939565    
  0.1564580719159981    0.14746787184723098    0.12474369175088845    0.09770841351569037    0.07433238881967989    
  0.057771052051008395    0.04766793334133488    0.04245095468626886    0.040852282583313054    0.04245095488229731    
  0.047667924012272135    0.05777105087169973    0.0743323838178607    0.09770843151446751    0.12474368908755201    
  0.1474678718672406    0.1564580719159981    0.10826083186653641    0.10313299195565881    0.09009792179895831    
  0.0743323933260418    0.060443475756515354    0.05047957388939828    0.04437681963930922    0.041256785471589605    
  0.04031121293362833    0.0412567784316483    0.04437683134477953    0.05047957820642548    0.06044347974859994    
  0.07433238996440916    0.0900979277189906    0.10313299060160108    0.10826083186653641    0.07553012128650774    
  0.07283709852345127    0.06603530808182026    0.05777104874322545    0.05047957339537882    0.045381457473200826    
  0.04243824559747264    0.041065114736978235    0.040687425948794514    0.04106511281444905    0.04243823160273282    
  0.04538146153764763    0.05047957540476857    0.057771064603567075    0.06603530288643525    0.07283709774058703    
  0.07553012128650774    0.05630414204853587    0.05496379336639936    0.05162654978060581    0.04766794055888261    
  0.04437682277430029    0.042438248650929225    0.04172188343550169    0.041683872927885654    0.04175558249953967    
  0.04168385611214109    0.0417218848738236    0.042438243499480735    0.0443768245261522    0.047667945540399104    
  0.05162655417831268    0.054963800412615255    0.05630414204853587    0.04668145618847066    0.04599176975604333    
  0.04429665012412881    0.04245095701857716    0.041256779242561124    0.0410651150275668    0.04168386086654007    
  0.04250305875833898    0.04287349998833156    0.042503065061827904    0.04168385454965244    0.04106512533466642    
  0.041256774802850185    0.0424509622478527    0.04429665431617511    0.04599176598211222    0.04668145618847066    
  0.04380671892712277    0.04330331790234526    0.04207079559013813    0.04085230073899332    0.04031120643056165    
  0.04068743301220796    0.04175557816793977    0.04287350000930285    0.04334736757235143    0.04287349594911543    
  0.04175558092854983    0.04068743195042544    0.04031120538293555    0.04085229691422786    0.042070800666950396    
  0.04330331923025497    0.04380671892712277    0.046681449001330505    0.04599175958391691    0.04429665089005238    
  0.042450956951548005    0.041256781752249734    0.04106511711291308    0.04168386447989942    0.04250305653418143    
  0.04287349731523678    0.0425030645464477    0.04168385788807361    0.04106511329009964    0.041256774717823644    
  0.04245096315103916    0.044296644750436834    0.04599177428397858    0.046681449001330505    0.056304142750267815    
  0.054963796706042636    0.05162655662480027    0.047667938197656017    0.04437682372550525    0.042438249751078364    
  0.041721878682150396    0.04168386872324987    0.04175559624914318    0.04168385840351171    0.041721873308042154    
  0.042438248122096414    0.04437682656240032    0.047667936500564355    0.0516265559864075    0.054963795165494586    
  0.056304142750267815    0.07553012508106567    0.0728370912486007    0.06603530194127664    0.05777104990439968    
  0.05047957132064571    0.045381460763394124    0.0424382425433443    0.041065117562785636    0.040687427344165875    
  0.04106511750758078    0.0424382422589085    0.045381456189177244    0.05047956568846032    0.05777105289170755    
  0.06603530394808921    0.07283708910395184    0.07553012508106567    0.10826084847472658    0.10313299335268594    
  0.09009792044758629    0.07433238368112903    0.06044347651756257    0.050479578729557606    0.044376819346973524    
  0.04125678150493382    0.04031121477746136    0.04125677811224218    0.04437682330173121    0.050479581219869285    
  0.06044347998715817    0.07433239365210556    0.09009793577814698    0.10313299185396341    0.10826084847472658    
  0.15645808504538433    0.1474678760451344    0.1247436999553001    0.09770842394783825    0.07433239707605152    
  0.057771047476131494    0.047667927724941835    0.0424509628491214    0.04085228347474609    0.04245095661952652    
  0.047667925880748405    0.05777104830887929    0.07433238575668069    0.09770842617826017    0.12474368232740755    
  0.14746788938130004    0.15645808504538433    0.21434479222822217    0.20044541000733773    0.16557782859743517    
  0.12474370007711248    0.09009792134558942    0.06603530999963861    0.05162656031887462    0.044296659457846166    
  0.04207080670060234    0.044296648341916864    0.05162655536056855    0.06603529893345277    0.09009794320083245    
  0.12474369797726528    0.1655778366605047    0.20044540979280925    0.21434479222822217    0.26426173903259664    
  0.2460510234677789    0.2004453905177445    0.14746786303621706    0.10313300278666915    0.07283711159777898    
  0.05496379138940329    0.04599177423195455    0.04330330862621434    0.045991763841071495    0.05496379607771232    
  0.07283709813801825    0.1031330008201559    0.14746788342508504    0.2004453953085704    0.24605099963989824    
  0.26426173903259664    0.2841744825687674    0.26426176828390824    0.21434478483577754    0.15645809236675812    
  0.10826086263492891    0.07553013762973439    0.056304152893022444    0.046681457899073096    0.04380673506532394    
  0.046681458174706654    0.056304146230061414    0.07553013661120138    0.1082608632905059    0.1564580958356874    
  0.214344783852993    0.26426175702165644    0.2841744825687674    0.3630781509263073    0.34141258716899303    
  0.28146034700592754    0.20436079690459139    0.13684085334891788    0.09092788008797807    0.06443943048546924    
  0.05146210793699929    0.047658793438206615    0.05146210211683807    0.0644394304174861    0.09092787238494995    
  0.13684086325357805    0.20436081268831327    0.28146034073975895    0.3414126210671608    0.3630781509263073    
  0.341412553654646    0.32048227745726865    0.2637113502366973    0.19211145776341917    0.12993092555516816    
  0.08756425676295113    0.06296794328898998    0.05085859540231387    0.04730485187347952    0.050858595869173635    
  0.06296793663194969    0.08756426709439782    0.12993092785064558    0.1921114614425888    0.26371135546297697    
  0.3204822951955533    0.341412553654646    0.2814603677314868    0.2637113691378356    0.21731570374371642    
  0.16085650235181995    0.11239376138226886    0.07903375516781079    0.059327172684005204    0.04949793136244235    
  0.04660192862323875    0.049497920021324776    0.05932717302740257    0.07903374087482035    0.11239376138363141    
  0.16085649327302748    0.21731572654501147    0.26371133147586534    0.2814603677314868    0.20436076163281666    
  0.19211144471077274    0.16085650013020628    0.12351946248850483    0.09134455265875431    0.06877852974894466    
  0.055203332560380396    0.048343689731769036    0.046300377702840415    0.04834369392370047    0.05520333658798543    
  0.06877853079330168    0.0913445561291934    0.12351946754394676    0.16085649323250217    0.19211145706882066    
  0.20436076163281666    0.13684082821307877    0.12993091229845527    0.11239373758246458    0.09134455288442506    
  0.07294182678993925    0.05992881347654026    0.052160738054275346    0.04826794962559975    0.04710708148725708    
  0.04826793318359894    0.05216074439677769    0.059928815955480205    0.07294182740655764    0.09134456633071215    
  0.11239375041543434    0.12993092414028642    0.13684082821307877    0.09092786316625609    0.08756425241360492    
  0.07903375002851533    0.06877853398360058    0.05992881157406811    0.05402904970366016    0.050927722020359674    
  0.049656312661224396    0.04934458609174702    0.04965632024591689    0.050927712283158164    0.05402905099429343    
  0.05992880534679058    0.06877853141119496    0.0790337551466771    0.0875642581300979    0.09092786316625609    
  0.06443942388316376    0.06296793615056658    0.05932717144244034    0.05520333684665784    0.05216074804873773    
  0.05092771745498664    0.05118697580953158    0.05203157735894559    0.05247450740752885    0.05203157570720434    
  0.05118699283239228    0.05092772083311121    0.05216075139080144    0.05520334804549686    0.05932717372291955    
  0.06296794717797363    0.06443942388316376    0.05146208841636314    0.05085858844674613    0.04949793171227823    
  0.04834369762334477    0.0482679300057809    0.04965632860936389    0.052031566123273656    0.0542809946767514    
  0.05521841849120145    0.05428097376009539    0.05203155763367286    0.049656324259601585    0.048267927094805534    
  0.04834370301960925    0.049497931880426484    0.05085859015071693    0.05146208841636314    0.04765877316104861    
  0.04730486376927796    0.04660191515159856    0.046300388730272674    0.047107075028731404    0.04934458287666414    
  0.05247449993027117    0.05521842163361093    0.056313409518761424    0.05521840606921444    0.052474485526802096    
  0.04934457794278305    0.047107069877169054    0.04630038572971923    0.04660192242365681    0.047304865667626525    
  0.04765877316104861    0.05146209157107055    0.050858584150801855    0.04949792796476664    0.04834369821531908    
  0.04826793560590656    0.04965632291009755    0.05203157199289248    0.054280985894004014    0.055218412460352403    
  0.0542810003720932    0.05203156376807876    0.049656317820717666    0.048267925790246635    0.0483436978577368    
  0.04949792213325359    0.0508585952561938    0.05146209157107055    0.06443942873216209    0.0629679332478651    
  0.05932717367593414    0.05520334330928131    0.05216073976756088    0.050927722911339866    0.05118698299759607    
  0.0520315822556278    0.052474504782997575    0.052031559251047625    0.05118697291565509    0.05092771950839587    
  0.05216073727077391    0.05520334794345689    0.05932717718772984    0.06296794002243283    0.06443942873216209    
  0.09092786473806291    0.08756425152990845    0.07903375332384563    0.06877852855362229    0.05992880741442459    
  0.054029052183194384    0.05092772282824414    0.04965631957853301    0.049344578064107796    0.04965631754610531    
  0.0509277163595645    0.054029060698318615    0.05992879782467484    0.06877852577981923    0.07903375647251851    
  0.08756426135828502    0.09092786473806291    0.136840847708473    0.12993092413844987    0.11239375014411414    
  0.09134455135956591    0.07294182443210549    0.05992881154298814    0.052160737362292264    0.04826793750583297    
  0.04710707508302367    0.048267933920380916    0.052160737305441296    0.05992881445200242    0.07294182427572879    
  0.09134456709208313    0.11239375553694463    0.12993092875148063    0.136840847708473    0.20436078444896205    
  0.19211143348643328    0.16085648400212968    0.12351947358775098    0.09134455749170058    0.06877852277351046    
  0.05520333334287023    0.04834368945804304    0.04630038225216237    0.04834369393559178    0.05520332960468043    
  0.06877851996898217    0.0913445593856462    0.12351946720749658    0.16085650124067985    0.19211145495538548    
  0.20436078444896205    0.2814603310538271    0.2637113332372014    0.2173156985186785    0.16085650104405763    
  0.112393744577989    0.07903375655167615    0.05932717140097522    0.049497943819742395    0.04660193228336581    
  0.049497926988342995    0.05932717802326749    0.07903374861653216    0.11239375820213203    0.16085649793592718    
  0.21731571633188884    0.2637113444759479    0.2814603310538271    0.3414125736222491    0.3204823145893376    
  0.26371134558677095    0.1921114582496042    0.12993092487110433    0.08756426835199724    0.06296794036192926    
  0.05085859696217892    0.04730485828575259    0.050858595112381014    0.06296794515232458    0.08756426090734937    
  0.12993092672358494    0.19211145471528482    0.263711373706907    0.3204822800944432    0.3414125736222491    
  0.3630781509263073    0.34141258716899303    0.28146034700592754    0.20436079690459139    0.13684085334891788    
  0.09092788008797807    0.06443943048546924    0.05146210793699929    0.047658793438206615    0.05146210211683807    
  0.0644394304174861    0.09092787238494995    0.13684086325357805    0.20436081268831327    0.28146034073975895    
  0.3414126210671608    0.3630781509263073    0.379124582346386    0.3818427920569862    0.35600723374332377    
  0.2753410352143507    0.182272508963698    0.11529189246427168    0.07722452494065052    0.05899699477808367    
  0.05370577011448171    0.058996991287802    0.0772245143490719    0.11529188743372416    0.1822725169558657    
  0.27534103424577405    0.3560072285685427    0.381842833230635    0.379124582346386    0.38184275469882806    
  0.37781006536922584    0.34127945924183006    0.259822975960003    0.17279505010841922    0.11105764916166092    
  0.07576144934679571    0.05872311124304945    0.0537663630130213    0.05872310559577671    0.07576144745123035    
  0.11105765357828931    0.17279504700441675    0.2598229936402408    0.3412794329384812    0.37781008693639956    
  0.38184275469882806    0.3560072170713311    0.34127944183016484    0.2920389548264324    0.21811085226005708    
  0.1486081378203336    0.10025339376491638    0.07215223897156296    0.05835887878604108    0.054332690883455596    
  0.058358858648409714    0.07215224119188034    0.1002533786720977    0.14860812817926577    0.21811083866423614    
  0.2920389892815986    0.3412794069325897    0.3560072170713311    0.2753409763596495    0.2598229487915735    
  0.21811084333205225    0.16573349313591856    0.11964644914480795    0.08751784481528319    0.0685073305917802    
  0.05906401507227985    0.05630819857503903    0.05906402085021222    0.06850733722300256    0.08751785081893848    
  0.11964644340520117    0.1657334959393604    0.21811082676112678    0.25982297162528495    0.2753409763596495    
  0.1822724802092286    0.17279503453051925    0.14860810946907635    0.11964645021618202    0.0945360109595102    
  0.0770549058167991    0.06690873476016077    0.06203417109390975    0.060638163966027676    0.062034156303490955    
  0.0669087401599056    0.07705490626558072    0.09453602014997123    0.11964645710057778    0.14860812023562783    
  0.17279504616080218    0.1822724802092286    0.11529187290497257    0.11105763916351487    0.10025339215542024    
  0.08751784604370662    0.07705490388371873    0.07069080319927913    0.06807323250434491    0.06756828257665262    
  0.06760326651001707    0.06756828626816895    0.06807322330412992    0.07069080046533098    0.07705490193719786    
  0.0875178588929325    0.10025338226740058    0.11105763968372326    0.11529187290497257    0.07722451884196539    
  0.07576144705189686    0.07215223611152563    0.06850734441044046    0.06690873574843864    0.06807322306019954    
  0.07122005786846108    0.07452327492736686    0.07593558716975138    0.07452326468330535    0.07122006384433122    
  0.06807323649113839    0.0669087383157831    0.06850735271609133    0.07215224105400703    0.0757614554899915    
  0.07722451884196539    0.05899697864215977    0.05872310326152954    0.05835888224610935    0.059064017415519046    
  0.06203416631461883    0.06756829009876657    0.07452327406992344    0.08049744432939815    0.08288301672987135    
  0.08049741124239201    0.07452325723755653    0.06756828424082931    0.06203415916657225    0.05906402911558836    
  0.05835888270838086    0.05872310171421667    0.05899697864215977    0.05370575622587098    0.053766370965332926    
  0.054332674572738895    0.05630821219153687    0.06063816094322194    0.06760327078894164    0.07593556511905601    
  0.0828830345673162    0.08560807906191266    0.08288299810624199    0.07593558321665438    0.06760326804330707    
  0.06063816180193426    0.05630821258687345    0.05433268222827827    0.053766375561375965    0.05370575622587098    
  0.05899697600384802    0.058723093770544264    0.058358873863191746    0.05906402582538001    0.0620341709494862    
  0.06756828537331647    0.07452327618512798    0.08049742048398233    0.08288300145827902    0.0804974485950459    
  0.07452325440653557    0.0675682769193857    0.062034155225670615    0.059064032384165216    0.05835886742074704    
  0.05872310502895664    0.05899697600384802    0.07722452032078585    0.07576143980567501    0.07215224739884174    
  0.06850734944521378    0.06690874118794289    0.06807322875444217    0.07122005574982974    0.07452328317373785    
  0.07593560059773607    0.07452326181069929    0.0712200492871341    0.0680732327075438    0.06690873567111283    
  0.06850735183142931    0.07215224595062009    0.07576145004080893    0.07722452032078585    0.11529188611383905    
  0.11105763792762303    0.10025339232437    0.08751784459568136    0.07705490668234485    0.07069080723916721    
  0.06807323151817567    0.06756828468516354    0.06760326232795993    0.0675682856661712    0.06807322169852262    
  0.0706908138760077    0.07705489126280213    0.08751785096469825    0.10025339437203871    0.11105764277128226    
  0.11529188611383905    0.18227249614834867    0.17279503659421264    0.1486081179688312    0.11964644639923694    
  0.09453601653293439    0.07705490598495111    0.06690873308627729    0.06203416786129134    0.06063816736521709    
  0.062034165148568354    0.06690873617462097    0.07705491184213802    0.09453601637938067    0.11964646268509933    
  0.14860812983983018    0.172795040202169    0.18227249614834867    0.2753410201658548    0.25982298266873566    
  0.2181108365467203    0.16573348799587487    0.11964644225597251    0.0875178436444632    0.06850732760656779    
  0.05906401945447568    0.0563082033798287    0.05906402669089469    0.06850732322515264    0.08751784250888603    
  0.11964646041901998    0.16573350112537188    0.21811085582565676    0.259822982584599    0.2753410201658548    
  0.3560072007378468    0.3412794040191703    0.29203896779272376    0.2181108505337982    0.14860810573472225    
  0.1002533918349557    0.07215224565275669    0.05835888709105568    0.05433268350020642    0.05835887183079004    
  0.07215224885349167    0.10025338864766253    0.1486081372167096    0.21811083039409893    0.29203896821348874    
  0.34127942708766495    0.3560072007378468    0.38184277479865136    0.3778100963234903    0.3412794343724319    
  0.2598229834060569    0.17279505053242492    0.11105765775892482    0.07576144729344184    0.058723109647649964    
  0.05376636994175123    0.05872310070893244    0.0757614530877405    0.11105764783672269    0.1727950511086665    
  0.25982298070728355    0.341279411713143    0.3778100552162741    0.38184277479865136    0.379124582346386    
  0.3818427920569862    0.35600723374332377    0.2753410352143507    0.182272508963698    0.11529189246427168    
  0.07722452494065052    0.05899699477808367    0.05370577011448171    0.058996991287802    0.0772245143490719    
  0.11529188743372416    0.1822725169558657    0.27534103424577405    0.3560072285685427    0.381842833230635    
  0.379124582346386    0.2253711811381275    0.2740657949468933    0.3571819484593883    0.3375401520259608    
  0.23411842882123873    0.14441542595370377    0.09269386399654585    0.0683995419825174    0.06140954930156858    
  0.06839953626105211    0.09269385898083354    0.14441541921824233    0.23411842482635903    0.3375401810158384    
  0.3571819403410231    0.2740658257027348    0.2253711811381275    0.2740657920066151    0.3128138621868561    
  0.36549743612653723    0.32458289964268855    0.22280148977785444    0.13954055336948112    0.0915595876260345    
  0.06880438966847027    0.06223527937271173    0.06880439168584772    0.0915595945236547    0.13954056210336224    
  0.2228014640247736    0.3245828862227257    0.36549744200663836    0.3128139010069086    0.2740657920066151    
  0.3571819094556957    0.36549742092982646    0.3522878443545033    0.2816810742100383    0.19295801848172991    
  0.12720608171071404    0.08913316916616029    0.07070129602415799    0.06536159760933458    0.0707012788568454    
  0.0891331666952553    0.1272060888652034    0.19295801618260663    0.2816810864123412    0.35228786039621524    
  0.3654974147985081    0.3571819094556957    0.3375401249204223    0.32458285350693405    0.28168106613436855    
  0.2174116481826301    0.1563452416009117    0.11330014462303538    0.08809914919373049    0.07576856853112783    
  0.07222617928371006    0.07576857493592684    0.08809914598222209    0.11330014361781696    0.1563452370834214    
  0.21741165915487423    0.281681061606506    0.32458288086724973    0.3375401249204223    0.23411837519984274    
  0.22280144954652326    0.19295800043364744    0.15634524134852038    0.12464808187373139    0.10304878924583054    
  0.09103128515456653    0.08567242091649455    0.08426812349144747    0.08567241304838803    0.09103129441161868    