#     DFTpy    
  CRYSTAL 
    
  PRIMVEC    
  3.076241379310345    0.0    0.0    
  0.0    3.076241379310345    0.0    
  0.0    0.0    3.076241379310345    
  PRIMCOORD    
  4    1    
  Si    0.0    0.0    0.0    
  Si    0.0    1.5381206896551725    1.5381206896551725    
  Si    1.5381206896551725    0.0    1.5381206896551725    
  Si    1.5381206896551725    1.5381206896551725    0.0    
  BEGIN_BLOCK_DATAGRID_3D    
  3d_datagrid_density    
  BEGIN_DATAGRID_3D#0    
  15    15    15    
  0.0    0.0    0.0    
  3.076241379310345    0.0    0.0    
  0.0    3.076241379310345    0.0    
  0.0    0.0    3.076241379310345    
  0.054904634204948    0.09793010129106645    0.2672175519294017    0.4898568361738996    0.5519382597845782    
  0.4923867495692635    0.43146304894135645    0.40917634298888866    0.4314630219492118    0.4923867319502766    
  0.5519381771246868    0.48985684803327956    0.26721750539068045    0.0979300875886913    0.054904634204948    
  0.09793008111700852    0.15115019046978187    0.32872943214192674    0.5263710497819879    0.5684355595501352    
  0.5090135123743625    0.45207775386361576    0.4314629921352165    0.45207771678765196    0.5090135278715506    
  0.5684356810025005    0.5263710698461072    0.32872943236074065    0.15115022332597372    0.09793008111700852    
  0.26721752494210255    0.3287294122814486    0.4813375223286125    0.6007442704365034    0.6060177090614437    
  0.5544993239267888    0.5090135275206157    0.4923866721287499    0.5090135255838781    0.5544993422181949    
  0.6060176695643338    0.6007442731140765    0.4813374644925717    0.32872938221661063    0.26721752494210255    
  0.48985678675044664    0.5263709984965873    0.6007442086169867    0.645563011024939    0.6400248297535084    
  0.6060177089973062    0.5684355427800142    0.5519382639621918    0.5684355479757338    0.6060176783285502    
  0.6400248280394214    0.6455629580238696    0.6007442680918038    0.5263709986077437    0.48985678675044664    
  0.5519381836521903    0.5684356218184597    0.6060177287913374    0.6400247459776713    0.6455628999752134    
  0.6007442671544719    0.5263710260672915    0.48985674953536384    0.5263710527500636    0.6007441638181384    
  0.6455629806219505    0.6400248298549248    0.6060175941004716    0.5684356029652181    0.5519381836521903    
  0.4923867364849229    0.5090134863896812    0.5544994148487336    0.6060176606527421    0.6007441854072313    
  0.4813375022642989    0.32872943026495255    0.26721748243235127    0.32872944664015347    0.4813374356385515    
  0.6007441276148533    0.60601774582105    0.5544992822551839    0.5090134882938325    0.4923867364849229    
  0.43146294997985335    0.45207772958093195    0.5090135214372136    0.5684355656964948    0.5263710320030218    
  0.32872944807436527    0.15115020253354897    0.09793008385040108    0.15115022279605247    0.3287294519448632    
  0.5263710469099772    0.5684356378887557    0.5090135161200601    0.45207774451256094    0.43146294997985335    
  0.4091763499031669    0.4314630308246641    0.49238677397327996    0.5519382264717855    0.48985686898991776    
  0.26721751018645135    0.0979300806739837    0.05490463349532348    0.09793008092890888    0.2672175161660104    
  0.48985680040775154    0.5519382226579551    0.4923867479181211    0.4314630029927499    0.4091763499031669    
  0.43146297153516644    0.45207769231036776    0.5090135217034455    0.5684355515493918    0.5263710241621152    
  0.328729434970277    0.15115020640205679    0.09793008592314832    0.15115021018127348    0.32872940779395593    
  0.5263709827584739    0.568435680203075    0.5090134963868989    0.4520777529868937    0.43146297153516644    
  0.4923867662775124    0.509013503138151    0.5544994672902493    0.6060176319961085    0.6007442267274498    
  0.48133747097098806    0.32872939879749347    0.2672174778284247    0.3287294397635939    0.48133747234053625    
  0.6007441402597786    0.6060177175512623    0.5544992518636183    0.5090135340438725    0.4923867662775124    
  0.5519382056191475    0.5684355527461592    0.6060176812036845    0.6400248086314594    0.6455630019051447    
  0.6007442911135285    0.526370979740276    0.48985681764329925    0.5263709983616606    0.6007442478459237    
  0.6455629275048202    0.6400248115186798    0.6060177565048798    0.5684356815247142    0.5519382056191475    
  0.48985681768445616    0.5263710528597934    0.6007441427085712    0.6455629800684384    0.6400248063018956    
  0.606017698288135    0.5684355731819253    0.5519381865703112    0.5684356654877235    0.6060177381907673    
  0.6400248963418377    0.6455629925549045    0.6007442267150143    0.5263710531033573    0.48985681768445616    
  0.26721751098669533    0.32872940918849985    0.4813375700805386    0.6007441855829622    0.606017650579618    
  0.5544994106782494    0.5090134936666632    0.49238671275290985    0.5090135234498292    0.5544993326992177    
  0.6060176176637585    0.6007442759197791    0.48133744474308243    0.32872944069501764    0.26721751098669533    
  0.09793008794497655    0.1511501978755805    0.328729429904904    0.5263709820076985    0.5684355945611665    
  0.5090135865032326    0.45207768338993004    0.4314629646309496    0.4520777422633375    0.5090135168249316    
  0.5684356101236785    0.5263710408911086    0.3287294253966925    0.15115020832898374    0.09793008794497655    
  0.054904634204948    0.09793010129106645    0.2672175519294017    0.4898568361738996    0.5519382597845782    
  0.4923867495692635    0.43146304894135645    0.40917634298888866    0.4314630219492118    0.4923867319502766    
  0.5519381771246868    0.48985684803327956    0.26721750539068045    0.0979300875886913    0.054904634204948    
  0.09793011306111687    0.15115021014381133    0.3287294804172751    0.5263710405056143    0.5684355980820599    
  0.5090135441449308    0.45207775208521994    0.4314629929377495    0.45207771660682644    0.5090134884703765    
  0.5684355794898971    0.5263710090228513    0.3287294025141697    0.15115019463373802    0.09793011306111687    
  0.15115017910616999    0.21089202729838757    0.3867247756730281    0.5565884074563101    0.5816833877326507    
  0.5234583966343964    0.47084641921190423    0.4520777093750241    0.47084637108898647    0.5234584085639887    
  0.5816834185454383    0.5565884320148573    0.38672475377547755    0.21089207767567134    0.15115017910616999    
  0.32872940868630557    0.3867247418863911    0.5212459470223321    0.6160918897429816    0.6124141103957287    
  0.5639900226708241    0.523458361165653    0.509013484900181    0.5234583989548339    0.5639901228207161    
  0.612414073650428    0.616091894063589    0.5212458665248404    0.3867247217215418    0.32872940868630557    
  0.5263710301260188    0.5565884275794769    0.6160918648063176    0.6491367112799162    0.6415663727603971    
  0.6124142009508144    0.581683392214814    0.5684355570627604    0.5816834299000295    0.6124140872812923    
  0.6415664198315689    0.6491367719969372    0.6160918978828059    0.5565884478242876    0.5263710301260188    
  0.5684355361943256    0.5816834350228292    0.6124141222462527    0.6415663992489566    0.6491366863003546    
  0.6160920148640064    0.5565883564229829    0.5263709503929895    0.5565884569245776    0.6160919217183062    
  0.6491367633677164    0.6415663826228539    0.612414107901282    0.5816834389675485    0.5684355361943256    
  0.509013490623164    0.523458386590894    0.5639900459474091    0.6124140870974574    0.6160918656151664    
  0.5212459185987582    0.38672482340449876    0.3287293564789594    0.38672478350188    0.5212458851328581    
  0.6160918367181548    0.612414220345174    0.5639899962949702    0.5234584741165931    0.509013490623164    
  0.4520777119353905    0.4708463489528507    0.5234584417043916    0.581683452788868    0.5565884588837436    
  0.3867247424496238    0.21089204626893085    0.15115019185751113    0.21089205071212894    0.3867247750893251    
  0.556588492033747    0.5816834290749862    0.5234583839975405    0.47084636272659286    0.4520777119353905    
  0.43146303072197706    0.45207776821185613    0.509013521382784    0.5684356132360713    0.5263710029524666    
  0.32872946391649777    0.1511502065066877    0.09793009144186866    0.15115019777812938    0.32872942674201827    
  0.5263709493889486    0.5684354994095641    0.5090134830944946    0.45207773213094454    0.43146303072197706    
  0.4520777287185549    0.4708463223484677    0.5234584438105194    0.58168337318374    0.5565883937068908    
  0.3867247499641374    0.21089204891982744    0.15115020718987285    0.21089205182159568    0.38672474222397935    
  0.5565884749525787    0.5816834950174592    0.5234584506612185    0.47084639045653914    0.4520777287185549    
  0.5090134692021686    0.5234584174648809    0.5639901620100891    0.6124140521571878    0.6160918745372115    
  0.5212459089067231    0.3867247953660015    0.3287293727058403    0.38672473757776704    0.521245975391346    
  0.6160918267811214    0.6124142229660943    0.5639900005103518    0.5234584181095134    0.5090134692021686    
  0.568435512043803    0.5816833584144991    0.612414134048387    0.641566364764488    0.6491367284460189    
  0.6160919458231867    0.5565883779175779    0.5263710128436241    0.55658836362461    0.6160919503439702    
  0.6491367308602197    0.6415662770357442    0.6124142015899708    0.5816834650832371    0.568435512043803    
  0.526370979518287    0.5565884250351967    0.616091868083757    0.6491368821730056    0.6415663857363321    
  0.6124141488589699    0.5816833560080987    0.5684355522473059    0.5816834455187081    0.6124141624177822    
  0.6415664379085885    0.6491367675149807    0.6160918090091299    0.5565884478187811    0.526370979518287    
  0.3287294265959762    0.3867247506993309    0.5212459704938035    0.6160917989147997    0.612414069367231    
  0.5639900822015438    0.5234584254455714    0.5090134924968447    0.5234584150392582    0.5639899839967613    
  0.6124140034640807    0.616091952760937    0.5212459007776009    0.3867247513816733    0.3287294265959762    
  0.15115017043610526    0.21089205858653748    0.38672475847221904    0.556588338765215    0.5816834384176192    
  0.5234584169379888    0.47084634823778737    0.45207768899244805    0.47084636013821524    0.5234584140776612    
  0.5816834635472291    0.5565884548153534    0.3867247151311821    0.21089205994729068    0.15115017043610526    
  0.09793011306111687    0.15115021014381133    0.3287294804172751    0.5263710405056143    0.5684355980820599    
  0.5090135441449308    0.45207775208521994    0.4314629929377495    0.45207771660682644    0.5090134884703765    
  0.5684355794898971    0.5263710090228513    0.3287294025141697    0.15115019463373802    0.09793011306111687    
  0.267217491401307    0.32872944018964173    0.48133751759674853    0.6007442418992245    0.6060177415788401    
  0.5544993792056196    0.5090135117931655    0.49238675372233526    0.5090135083151688    0.5544993549499893    
  0.6060176339432658    0.6007442283583955    0.4813373861667258    0.32872941853035276    0.267217491401307    
  0.32872939864636497    0.3867246603123838    0.5212459270479153    0.6160918975729778    0.6124140043667773    
  0.5639900608989973    0.5234583926162296    0.5090134565150657    0.5234583774761394    0.5639900074644042    
  0.6124141653917834    0.6160919319228388    0.521245937643718    0.3867247607894986    0.32872939864636497    
  0.4813374708489427    0.5212458260231503    0.601067477862216    0.6430269517848096    0.6277525600823461    
  0.5916523635410077    0.5639900426696989    0.5544992503342268    0.5639899918553845    0.5916524180338881    
  0.6277525017912244    0.643026922787871    0.6010673375584902    0.5212458799212984    0.4813374708489427    
  0.6007442066084139    0.6160919446643949    0.6430269248358124    0.6529589667646255    0.6440691488020396    
  0.6277526020979446    0.6124140603475734    0.6060177361714112    0.6124141199490301    0.6277525170685112    
  0.6440691806383005    0.6529589958850966    0.643026908609417    0.6160918806548301    0.6007442066084139    
  0.6060177055136599    0.6124140666947602    0.6277525671047591    0.6440692800009757    0.6529589345708456    
  0.6430269969388208    0.6160918732944579    0.6007441260522184    0.6160919456657051    0.6430269523253384    
  0.6529589581770527    0.644069222468054    0.6277525101147741    0.6124141610801945    0.6060177055136599    
  0.5544993428272322    0.5639899447918392    0.5916523083568682    0.6277524499057568    0.6430268509526258    
  0.6010674473012773    0.5212459100984248    0.4813374209063836    0.5212458169406126    0.601067379197456    
  0.6430269373653802    0.6277525875393308    0.5916523539145944    0.5639900363934869    0.5544993428272322    
  0.5090134359998025    0.5234584100825604    0.5639900989388977    0.612414103982781    0.6160919387528698    
  0.5212458603187669    0.3867247238726256    0.32872943903342006    0.38672472891200593    0.5212458847402518    
  0.6160918671368651    0.612414138271319    0.5639900032816836    0.5234583965019715    0.5090134359998025    
  0.49238679440803235    0.509013512151398    0.5544993232036625    0.6060176955084385    0.6007442433984431    
  0.48133752714537653    0.3287294102905723    0.2672175097667776    0.3287294306026957    0.48133742786533684    
  0.6007441531016104    0.606017615423921    0.554499378952238    0.5090134814920113    0.49238679440803235    
  0.5090134304493165    0.5234583832012483    0.5639900602956303    0.6124140724813775    0.6160917996127375    
  0.5212459390779001    0.3867247495867704    0.3287294073785859    0.38672476167815445    0.5212458963119391    
  0.6160919031151421    0.6124141975520376    0.5639899931286881    0.5234584737295669    0.5090134304493165    
  0.554499347036779    0.5639900093647918    0.5916524490204361    0.6277525415670867    0.6430269452494597    
  0.6010673836701141    0.521245875965496    0.4813373743530934    0.5212458650640653    0.6010673994996049    
  0.6430269076878953    0.6277525577157579    0.5916523347668831    0.5639900630329907    0.554499347036779    
  0.6060176063286268    0.6124140789558588    0.6277525247465439    0.6440692352752388    0.6529589865454085    
  0.64302692549274    0.6160918437643867    0.600744250580017    0.6160918240284088    0.6430269452213395    
  0.6529589241495997    0.6440691645473323    0.6277525563000849    0.6124141614198522    0.6060176063286268    
  0.6007441969936496    0.6160918169877362    0.6430269402989865    0.65295902660324    0.6440691922485308    
  0.6277526218811292    0.6124140406681386    0.6060177088252939    0.6124141231406356    0.6277526218462307    
  0.644069217405729    0.6529589941552423    0.6430269783349036    0.6160919374757443    0.6007441969936496    
  0.4813374370656728    0.5212458565842157    0.6010674379604611    0.6430268751235176    0.6277524775904286    
  0.5916524130848033    0.5639900699741057    0.5544993430072118    0.5639899832483418    0.5916523151924236    
  0.6277524029987208    0.6430270017990958    0.6010673759768028    0.5212458272766931    0.4813374370656728    
  0.3287294305896814    0.38672473167293536    0.5212458670191352    0.6160918042455567    0.6124141168633236    
  0.5639901190596426    0.5234584071160165    0.5090134486454971    0.5234583949056204    0.5639901096985136    
  0.6124141380723335    0.6160918258429157    0.521245883174491    0.38672474471507273    0.3287294305896814    
  0.267217491401307    0.32872944018964173    0.48133751759674853    0.6007442418992245    0.6060177415788401    
  0.5544993792056196    0.5090135117931655    0.49238675372233526    0.5090135083151688    0.5544993549499893    
  0.6060176339432658    0.6007442283583955    0.4813373861667258    0.32872941853035276    0.267217491401307    
  0.48985683671186037    0.5263709494124312    0.6007442976694424    0.6455631040997984    0.6400248172338175    
  0.6060176916478615    0.5684356194277821    0.5519381902212133    0.5684355932852437    0.6060177115399552    
  0.6400248478707968    0.6455629386910571    0.6007441611606449    0.5263710046083554    0.48985683671186037    
  0.5263709520791393    0.5565883898676943    0.6160918603062134    0.6491367338483365    0.6415662719620304    
  0.612414106575998    0.5816834621401802    0.5684355358818695    0.581683421595274    0.6124141164750606    
  0.6415664138421079    0.649136832245396    0.616091836224546    0.5565885358289625    0.5263709520791393    
  0.6007441948193661    0.616091859447242    0.6430269719436003    0.6529590580337037    0.644069212994385    
  0.6277525261079676    0.6124140947972253    0.6060176650224078    0.6124140890636054    0.6277526177238932    
  0.6440691439203693    0.6529590077322536    0.6430269034117522    0.6160918694372669    0.6007441948193661    
  0.6455629598725092    0.6491367907931523    0.6529590009962213    0.6502241954480769    0.6461643126230355    
  0.6440692778535149    0.6415663604782006    0.6400248657280497    0.6415663289022708    0.6440691765947821    
  0.6461644090541228    0.6502241978510248    0.6529590576663425    0.6491368352550597    0.6455629598725092    
  0.6400248085248319    0.6415663242845784    0.6440692744064647    0.646164365406734    0.6502241839873903    
  0.6529591217047064    0.6491366957881162    0.6455629119346072    0.6491368259506622    0.6529590395387674    
  0.6502241022787812    0.6461643320779589    0.6440692534810885    0.6415663048908004    0.6400248085248319    
  0.6060176722708993    0.6124140492693497    0.6277525811662682    0.6440692176440858    0.6529588983584745    
  0.6430269584043321    0.6160919525407311    0.6007441536892995    0.616091859958961    0.6430269202532918    
  0.6529589889981986    0.6440693251695543    0.6277524789791882    0.6124141063209229    0.6060176722708993    
  0.5684355763742479    0.5816834000734497    0.6124141559442625    0.6415663420628566    0.6491367487760219    
  0.616091904470698    0.5565884941587887    0.526371024403265    0.5565884175182494    0.6160919306424822    
  0.6491367946599914    0.6415664443266332    0.612414129362731    0.5816834019026744    0.5684355763742479    
  0.5519382614932005    0.5684355906515774    0.6060176654744939    0.6400249468253173    0.6455629411644416    
  0.6007442593219613    0.5263709608110145    0.48985686157720554    0.5263709553162033    0.6007442282394225    
  0.6455629315328016    0.6400248336329134    0.6060176382401524    0.5684355559877166    0.5519382614932005    
  0.5684355642901058    0.5816833679882553    0.6124141475387332    0.6415663507312565    0.6491367476878552    
  0.6160919475813923    0.5565884272135472    0.526370977931407    0.5565884469421459    0.6160918308030833    
  0.6491368631222777    0.6415664356774636    0.6124141193116954    0.5816834237243447    0.5684355642901058    
  0.6060176149300088    0.6124141233759693    0.6277525275868119    0.644069167066555    0.6529590090080617    
  0.643026952545532    0.6160918754155682    0.6007441906908609    0.6160918522211916    0.6430269923836147    
  0.6529589661849368    0.6440693323564294    0.6277524597904688    0.6124140615320526    0.6060176149300088    
  0.6400247862814892    0.6415663449119082    0.6440692918386146    0.6461643326992654    0.650224109830226    
  0.6529590356423024    0.6491367408150733    0.6455629833341496    0.6491367450103329    0.6529590609467046    
  0.6502240361511591    0.6461642791205557    0.6440692766284434    0.6415663856527448    0.6400247862814892    
  0.6455630096219718    0.6491367990480263    0.6529590240331312    0.6502242405985567    0.6461642938647179    
  0.6440692797068865    0.6415663418677878    0.6400247907766364    0.6415663514429462    0.6440692877600168    
  0.6461643561323829    0.6502242262258201    0.6529589895011636    0.6491368171654109    0.6455630096219718    
  0.6007442068819044    0.6160918540155998    0.6430270079301962    0.6529589963983933    0.6440692171493575    
  0.6277526040651642    0.6124140600303303    0.6060175688051015    0.6124141859025198    0.6277525141251892    
  0.6440692107811555    0.652959069509896    0.6430269597212417    0.6160918163841604    0.6007442068819044    
  0.5263709530320276    0.5565883936553174    0.6160918630812532    0.6491367561931326    0.6415663543659885    
  0.6124141305723628    0.5816833750412721    0.5684355345092916    0.5816833974803114    0.612414105649568    
  0.6415663481830121    0.6491368960562844    0.6160918960700248    0.5565884394436962    0.5263709530320276    
  0.48985683671186037    0.5263709494124312    0.6007442976694424    0.6455631040997984    0.6400248172338175    
  0.6060176916478615    0.5684356194277821    0.5519381902212133    0.5684355932852437    0.6060177115399552    
  0.6400248478707968    0.6455629386910571    0.6007441611606449    0.5263710046083554    0.48985683671186037    
  0.5519382067435624    0.5684355756056938    0.6060177538164797    0.6400249288520407    0.6455629658932588    
  0.6007441708509782    0.5263710672696917    0.48985683650567097    0.526371000334027    0.6007442452000153    
  0.6455629742716809    0.6400248204704688    0.6060176264956432    0.5684355485753182    0.5519382067435624    
  0.5684355240093628    0.5816833869289991    0.6124140784440002    0.6415663526007449    0.6491366742629251    
  0.6160919368469523    0.5565884527738603    0.5263709657547923    0.5565884521997084    0.6160919126277639    
  0.6491368649353193    0.6415663938202922    0.6124141116947642    0.5816834881011079    0.5684355240093628    
  0.6060176371924356    0.6124140688538952    0.6277525768902102    0.6440692689496991    0.6529589979642187    
  0.6430269523302667    0.6160918250401436    0.6007441755564388    0.6160918631086445    0.6430269841761705    
  0.6529588858378056    0.6440692762548241    0.6277525025880684    0.6124141357879457    0.6060176371924356    
  0.640024802640894    0.641566322735079    0.6440692076383066    0.6461644067538909    0.6502240554894887    
  0.652959065547679    0.6491367494402167    0.6455630018853605    0.649136743362311    0.6529589673239945    
  0.6502242242943859    0.6461643809080085    0.6440692549705239    0.6415664428300257    0.640024802640894    
  0.6455629321377111    0.6491367668919187    0.6529590815195678    0.6502241687465573    0.6461643701170577    
  0.6440693127432074    0.6415663497685385    0.6400247298893844    0.6415664008917883    0.6440692660125801    
  0.6461643316464568    0.6502241207965775    0.6529589520841588    0.649136768290765    0.6455629321377111    
  0.6007442293567691    0.6160917961977602    0.643026986644975    0.6529589362341784    0.6440691719044386    
  0.6277525319117118    0.6124141301881026    0.606017607768802    0.6124140911324876    0.6277525547031846    
  0.6440691958082543    0.6529590967215023    0.6430269260740816    0.6160918344889361    0.6007442293567691    
  0.5263710135061933    0.556588455247187    0.6160919207945477    0.6491367583565746    0.6415663876334913    
  0.6124141394983077    0.5816834844174692    0.5684355554095322    0.5816834187295975    0.6124141773362755    
  0.6415663167141531    0.6491368473838048    0.6160918835483019    0.5565884333088301    0.5263710135061933    
  0.48985685846646304    0.5263710046608218    0.6007442548730615    0.6455630649705081    0.6400248475774708    
  0.6060177623043521    0.5684355414754841    0.551938199924548    0.5684355444228768    0.6060177022319362    
  0.6400247970020597    0.6455629244846554    0.6007441817008143    0.5263709399562141    0.48985685846646304    
  0.526370952954022    0.5565884136448993    0.6160918784428246    0.6491368001683316    0.6415662935659183    
  0.6124141420308248    0.5816834710470059    0.5684355161594528    0.5816834171777979    0.6124141103717893    
  0.6415664233312847    0.649136871473567    0.6160918971504569    0.5565884957778745    0.526370952954022    
  0.6007441659203739    0.6160918712678651    0.6430269892732614    0.6529589678920096    0.6440691898121434    
  0.6277525156664172    0.6124141303774493    0.6060176636843311    0.6124141185649886    0.627752530414818    
  0.6440691942211481    0.6529590648532493    0.6430269367712991    0.6160917549244475    0.6007441659203739    
  0.6455629049180265    0.649136814322018    0.6529590178970957    0.6502241564622948    0.6461643229250087    
  0.644069227522378    0.6415663328922112    0.6400248400547268    0.6415663442019979    0.6440693429161787    
  0.6461642830212077    0.6502241323998877    0.6529590385878168    0.6491368023111584    0.6455629049180265    
  0.6400248558823044    0.6415663921410194    0.6440692748276994    0.6461644546064894    0.6502240778470031    
  0.6529590969618518    0.6491367175468118    0.6455629924611739    0.6491367637070782    0.6529590681977742    
  0.6502241578896717    0.6461643578753566    0.6440691896024644    0.6415663910119522    0.6400248558823044    
  0.6060176684327157    0.6124140480853772    0.6277526378426868    0.6440692181389505    0.652958982055634    
  0.6430270375171908    0.6160917811940765    0.6007441033881412    0.6160919322825317    0.6430269893778069    
  0.6529589272353791    0.6440692983903221    0.6277525008740183    0.6124140837577519    0.6060176684327157    
  0.5684355665457048    0.5816833623798291    0.6124141206599834    0.6415663346245436    0.6491368257495821    
  0.6160919084667563    0.5565883816339656    0.5263710342281527    0.5565883953163647    0.6160918618310316    
  0.6491367726749285    0.6415664569213455    0.6124141249656865    0.5816834635594024    0.5684355665457048    
  0.5519382067435624    0.5684355756056938    0.6060177538164797    0.6400249288520407    0.6455629658932588    
  0.6007441708509782    0.5263710672696917    0.48985683650567097    0.526371000334027    0.6007442452000153    
  0.6455629742716809    0.6400248204704688    0.6060176264956432    0.5684355485753182    0.5519382067435624    
  0.49238674474251104    0.5090134972040434    0.5544994173217612    0.6060177267193639    0.6007442315102789    
  0.48133751328939955    0.328729425752513    0.2672175356849474    0.3287294170608973    0.4813374564196587    
  0.6007441505532113    0.6060176562594919    0.5544992997215852    0.509013469901564    0.49238674474251104    
  0.5090134667108773    0.5234583308059597    0.5639900808161553    0.6124140856071864    0.6160917799360172    
  0.5212459055853734    0.38672475789520827    0.3287293811235597    0.3867247405631008    0.5212458268439762    
  0.6160919097278632    0.6124141146275313    0.5639900794176367    0.5234584572762709    0.5090134667108773    
  0.5544993352655166    0.5639900271813829    0.591652389934165    0.6277524810794984    0.6430269534549405    
  0.601067450044679    0.5212458886796937    0.4813373678237266    0.5212458509669169    0.6010675049554159    
  0.6430269087485296    0.6277525493098048    0.5916522752835833    0.563989995836339    0.5544993352655166    
  0.6060176214067692    0.6124141639327216    0.6277525013204251    0.6440692494359854    0.6529589634799283    
  0.6430270385961855    0.6160918566035067    0.6007442236101512    0.616091877710686    0.6430269192785059    
  0.6529590275198741    0.6440692513259881    0.6277524989701257    0.6124141573363754    0.6060176214067692    
  0.6007441949584443    0.6160918083056437    0.6430270361279828    0.652959020101472    0.6440690947678028    
  0.6277525797718057    0.6124140813514224    0.6060175983341086    0.612414142517321    0.6277525295463947    
  0.6440691949175954    0.6529589811907159    0.6430269165615549    0.6160918948512317    0.6007441949584443    
  0.4813374572332459    0.5212457855868584    0.6010673589867981    0.6430269120264756    0.6277524861146354    
  0.5916523268745062    0.5639900720115664    0.5544993144874889    0.5639900320648499    0.5916522842105153    
  0.6277524886414273    0.6430270239964718    0.601067414252126    0.52124588398687    0.4813374572332459    
  0.3287294217347092    0.3867247263320809    0.5212459370373466    0.6160918129168644    0.6124141434124325    
  0.5639899906779855    0.5234584009379424    0.5090135197028527    0.5234583970295403    0.5639900832167515    
  0.6124141015655121    0.6160919178489094    0.5212458731207212    0.3867247181197024    0.3287294217347092    
  0.2672175229854324    0.3287294431707792    0.48133742765012194    0.6007442301433662    0.6060177076074464    
  0.5544994204180244    0.5090135051832216    0.4923867188284781    0.5090134838715744    0.5544993438852012    
  0.6060176756140431    0.6007441603350305    0.48133746368958197    0.3287294173402222    0.2672175229854324    
  0.3287293986194627    0.3867247108900238    0.5212459075163947    0.6160918257713153    0.6124140863915458    
  0.5639900495622252    0.5234584129891956    0.509013461569993    0.5234584299320063    0.5639900621239347    
  0.6124141054620333    0.6160919435393573    0.5212459019806883    0.38672475849302457    0.3287293986194627    
  0.4813374032975482    0.5212458925988472    0.6010675088772586    0.6430269568357092    0.6277525259026251    
  0.5916522920357485    0.5639900178194687    0.5544992975784454    0.5639900040722325    0.5916523644592984    
  0.627752441465403    0.6430270298353724    0.6010673685194047    0.5212459085404153    0.4813374032975482    
  0.6007441863757832    0.6160918339749477    0.643026926333252    0.6529590025051545    0.64406925357772    
  0.6277525715603853    0.6124140483010623    0.6060177453038379    0.612414058620486    0.6277525106583911    
  0.6440691678555086    0.6529589540125055    0.6430269984532294    0.616091859060155    0.6007441863757832    
  0.6060176230436426    0.6124141005090844    0.6277525699381626    0.6440692421134552    0.6529589257900806    