#     DFTpy    
  CRYSTAL 
    
  PRIMVEC    
  3.9905745959860033    1.6695085326835863e-05    -4.1857655172413793e-13    
  -1.99527283962415    3.4559474233002003    -8.189655172413792e-12    
  -6.882979310344827e-13    -1.594647724137931e-11    6.561124683966625    
  PRIMCOORD    
  4    1    
  Si    9.934074362510875e-06    2.3039703506667086    3.689804818702879    
  Si    1.995291822282815    1.1519937676905496    0.40924242827069124    
  Si    9.934075861744419e-06    2.303970350665758    6.151882207243845    
  Si    1.9952918222892908    1.1519937677161447    2.8713199136986187    
  BEGIN_BLOCK_DATAGRID_3D    
  3d_datagrid_density    
  BEGIN_DATAGRID_3D#0    
  17    17    29    
  0.0    0.0    0.0    
  3.9905745959860033    1.6695085326835863e-05    -4.1857655172413793e-13    
  -1.99527283962415    3.4559474233002003    -8.189655172413792e-12    
  -6.882979310344827e-13    -1.594647724137931e-11    6.561124683966625    
  0.041631946396979355    0.04503493664081456    0.05672645828975896    0.08197178114420366    0.12959734940108258    
  0.20777492281730697    0.31246026799476195    0.411269906052621    0.4528775002109902    0.4112699210882474    
  0.31246030259366664    0.20777492984775137    0.12959735525467314    0.08197179965309917    0.056726446551055    
  0.04503492340834098    0.041631946396979355    0.04503492703922109    0.04503453909958319    0.05260991313030825    
  0.0712582957188057    0.10855059668242441    0.17423848234575762    0.2719597320887814    0.3824272332963099    
  0.4584278398356372    0.4583805290143375    0.382366117504939    0.2720543599342017    0.17426337459484248    
  0.10851064542031137    0.07126601158440517    0.052609663340648816    0.04503492703922109    0.05672644437529304    
  0.052609898142559945    0.05672726332071737    0.07126760463947368    0.10248224080106888    0.16059049197382122    
  0.2532652871390959    0.365364404971411    0.45299108488557965    0.48365328104334215    0.4530923452787318    
  0.3653265608470036    0.2531571861477913    0.16062729335386297    0.10250695505196256    0.07126600083022859    
  0.05672644437529304    0.08197179327411211    0.071258303148851    0.07126760964069781    0.0819582470483152    
  0.10855310636507182    0.16061012246593678    0.24775755405302682    0.35365530100226916    0.41930492237043754    
  0.42578367428100866    0.4257166170711461    0.41933903058921546    0.35373896926627946    0.24777012876049712    
  0.16062728419353714    0.1085106248902362    0.08197179327411211    0.1295973400049006    0.10855059353306355    
  0.10248226653682349    0.10855311582033028    0.12955761935333981    0.17427362181041128    0.25320297276283704    
  0.3537273744685938    0.39721649809908266    0.3435981007111792    0.302251770327395    0.3435899683035654    
  0.39725024314758817    0.3537389573182921    0.2531571798247491    0.17426334326749007    0.1295973400049006    
  0.207774901036168    0.1742385223397324    0.16059047688928632    0.16061008693116208    0.1742736465287019    
  0.2077877547359714    0.271971395575437    0.3653562650238741    0.4193779106768195    0.3435858460621797    
  0.23992165390762626    0.23997601031271035    0.343590032291271    0.4193391648703906    0.36532665439304113    
  0.2720544355791807    0.207774901036168    0.31246026949306066    0.2719597912520993    0.25326532689298104    
  0.24775751639195356    0.25320291295350644    0.2719714155189576    0.31255790824443264    0.3823399720295516    
  0.4531065767986028    0.4256051581271544    0.30235865859320643    0.23992161401317552    0.30225176000156007    
  0.4257165348038164    0.4530924151460857    0.38236605423987446    0.31246026949306066    0.41126996740649063    
  0.3824273041150413    0.36536435138416734    0.3536552705496684    0.3537274061331043    0.3653562724042569    
  0.38234002053240645    0.41134158340145094    0.4584124337043508    0.48379138389282644    0.4256051279240254    
  0.3435858170004267    0.343598082462333    0.42578367209467016    0.4836533117754753    0.45838057898644785    
  0.41126996740649063    0.45287756890693287    0.4584279007232126    0.4529911646760177    0.4193049447111608    
  0.39721653194961865    0.4193779059519924    0.4531067147629251    0.4584123764186533    0.45284321705290387    
  0.4584124415867403    0.4531067032454867    0.41937784101377185    0.39721653825754955    0.41930502834167205    
  0.45299109596320397    0.458427799963528    0.45287756890693287    0.41126991717621886    0.45838060102076056    
  0.48365333625084833    0.4257836809924829    0.34359816032669965    0.3435858860745838    0.42560515827840933    
  0.4837913362149111    0.4584124108569497    0.4113415947042416    0.3823400744821199    0.36535626253932013    
  0.35372739231310996    0.35365538728282203    0.3653643773545723    0.3824272833408961    0.41126991717621886    
  0.31246026022096185    0.3823661022861324    0.45309243991628506    0.4257165124644122    0.30225180723580664    
  0.2399216735649058    0.30235868124610016    0.4256051869574721    0.4531066024777672    0.3823400282237057    
  0.31255791861050347    0.2719713711335724    0.2532029199538252    0.24775756423010198    0.25326533034523824    
  0.2719597383349286    0.31246026022096185    0.2077748951074318    0.2720544417205874    0.3653266233677003    
  0.4193390598031713    0.34358997585122947    0.23997608584839578    0.23992171239032067    0.3435858126047757    
  0.4193778508528114    0.3653562564597752    0.2719714328207676    0.20778773126024416    0.17427363435919638    
  0.16061011792207255    0.16059045919460727    0.1742384651096191    0.2077748951074318    0.12959734457593433    
  0.17426338601362998    0.25315721115711703    0.3537388991852258    0.3972501932807157    0.3435900146361951    
  0.30225181960701364    0.34359807622678906    0.39721648174162305    0.3537273939611706    0.25320298918311807    
  0.17427362039732217    0.12955761297422538    0.1085531316731407    0.10248224899211768    0.10855056520077987    
  0.12959734457593433    0.0819717776166367    0.10851065670642134    0.16062730516314386    0.24777012043461216    
  0.3537389493712635    0.4193390627824963    0.4257165032207577    0.4257837301435813    0.4193049206304046    
  0.35365529481090946    0.24775753432171088    0.16061010779037155    0.10855313112583363    0.08195827543910557    
  0.07126761740751632    0.07125829251256299    0.0819717776166367    0.056726424410364525    0.07126600474284203    
  0.10250694236379429    0.16062723467313103    0.2531571455141913    0.3653266071903343    0.4530924295390296    
  0.4836532582463037    0.4529910654738756    0.3653643621243698    0.25326528239793533    0.1605904733699356    
  0.10248223575291934    0.07126761475524603    0.05672725905218053    0.05260990116403979    0.056726424410364525    
  0.04503491688411208    0.05260966566854909    0.07126601348623145    0.10851058901929925    0.17426331701286765    
  0.2720544614475934    0.38236612760148864    0.4583805708300673    0.4584278652658757    0.3824272431738403    
  0.27195976159220936    0.17423844523153273    0.10855055653868334    0.07125830280282139    0.05260990615948463    
  0.045034535857367254    0.04503491688411208    0.041631946396979355    0.04503493664081456    0.05672645828975896    
  0.08197178114420366    0.12959734940108258    0.20777492281730697    0.31246026799476195    0.411269906052621    
  0.4528775002109902    0.4112699210882474    0.31246030259366664    0.20777492984775137    0.12959735525467314    
  0.08197179965309917    0.056726446551055    0.04503492340834098    0.041631946396979355    0.04118231327715535    
  0.04445514549489871    0.05562719402664097    0.07952928818775075    0.12431803965027124    0.19734120897210555    
  0.29423027737730806    0.38500455236714    0.42305864130547055    0.38499700168411544    0.2943716384013269    
  0.19732063244311368    0.12425896061448183    0.07954423977485316    0.055627913682233604    0.04445561567924077    
  0.04118231327715535    0.04445562093273951    0.044454212565654815    0.052273517039796685    0.0715492283713599    
  0.10992300530962344    0.17736068508039987    0.27672200177793665    0.3860146968407819    0.45874465810411663    
  0.4587002688443731    0.38586080668598804    0.2767766102953317    0.17744312191729752    0.10989185363897497    
  0.07155292875523038    0.05227227890505515    0.04445562093273951    0.05562790494667843    0.051139856386181806    
  0.05562951502751849    0.07154901046643136    0.10595786794244845    0.16998270337868138    0.2701861245099561    
  0.3824722085918873    0.45530376386134364    0.47499349283501996    0.45549717143875296    0.38241817759406865    
  0.27005483396243246    0.17003876163166334    0.10596041624225111    0.07155290732797534    0.05562790494667843    
  0.07954422523017753    0.06735654642977715    0.06737653524778946    0.07952012804467398    0.1099279496479432    
  0.16999725022351964    0.26850742924794074    0.37154589092456153    0.394909657656057    0.354454516271226    
  0.3543404875961561    0.3949365042809604    0.37175526307242357    0.26841617135144685    0.1700387485748849    
  0.10989182469860675    0.07954422523017753    0.12425896755110986    0.09948912655000132    0.09228635015740556    
  0.09949143561197511    0.12424528289902047    0.17745407413157038    0.27004723559735533    0.3717318047325036    
  0.35714646962462393    0.23038456722267814    0.16982986094971128    0.23038443512823056    0.3571187381866949    
  0.3717553003600123    0.2700548839281992    0.17744307940018042    0.12425896755110986    0.19732063149966908    
  0.15539407281424356    0.13819662940561864    0.13821755723057932    0.15538603614267868    0.19734270618999494    
  0.27672941236294535    0.38244779373009224    0.39499618125133024    0.23033239285728985    0.10436064384923442    
  0.10443015981691636    0.23038443745675447    0.3949365871985869    0.3824182476897001    0.276776631618037    
  0.19732063149966908    0.2943716324003371    0.23798618043733433    0.21146749973937107    0.20356810111024537    
  0.2114563006732987    0.23800006375495253    0.29440130580734414    0.3858645119508916    0.4555036044114252    
  0.35418784122678215    0.16999471693911164    0.10436058973275403    0.16982983303604599    0.35434046876909725    
  0.455497142379451    0.385860789417802    0.2943716324003371    0.384996993963986    0.3319043462440456    
  0.3040850092961515    0.29193475776106925    0.29191134842772304    0.3041132408175986    0.3318555358045673    
  0.38506564400394466    0.4587121062260905    0.47521121794769655    0.3541878361831251    0.23033244157740243    
  0.23038461210428468    0.3544545483680119    0.47499348965597926    0.4587002730843647    0.384996993963986    
  0.4230586747960508    0.3973955380978063    0.3850602047699017    0.3734696470645387    0.3669271547726044    
  0.37351455422339125    0.38508890861817097    0.397412548480637    0.42301594468237436    0.4587121081699916    
  0.45550366016691196    0.3949961647580499    0.3571464512202516    0.3949097331881124    0.4553037659452503    
  0.4587445728135497    0.4230586747960508    0.3850046177721914    0.3973518570851921    0.4171247691227391    
  0.4158340802638999    0.39664994035988116    0.3966622268298128    0.4157830761735996    0.4171672094042693    
  0.39741262278986794    0.38506565383084185    0.3858646247536309    0.38244777559959275    0.37173186125263896    
  0.37154603568025885    0.38247224888601195    0.38601474413669196    0.3850046177721914    0.2942302593472173    
  0.3318999129254576    0.38509464658201736    0.41582239898283635    0.396910056785425    0.3766531606418264    
  0.39691783403938957    0.4157830734817385    0.38508888749072895    0.3318555702558577    0.29440128888107553    
  0.2767294002512638    0.270047179749606    0.2685074317371394    0.27018614498061866    0.27672198821017313    
  0.2942302593472173    0.19734119124998534    0.23812375496689636    0.30408173692449203    0.3734759183344831    
  0.39664691454025147    0.37664585143458706    0.3766532137746123    0.39666217319412106    0.3735144986850892    
  0.3041131926509136    0.2380000215366217    0.19734268381469344    0.17745405620197743    0.16999723215713805    
  0.16998268794430108    0.17736068143948389    0.19734119124998534    0.1243180200299216    0.15538124961640423    
  0.21134963501358636    0.2919302466489133    0.36698789459417414    0.39664698462041914    0.3969101230055257    
  0.3966498846313356    0.3669271136143532    0.29191138830348495    0.21145635585387074    0.15538602637878304    
  0.12424526232914646    0.10992797150264443    0.1059578619496921    0.10992299139007637    0.1243180200299216    
  0.07952927816891095    0.09942867101676585    0.138217642200544    0.20366939670174455    0.2919302890817612    
  0.3734759928866758    0.4158223885080702    0.41583407422075325    0.3734696414951037    0.29193479093597985    
  0.2035681257132    0.1382175620920726    0.09949144944667308    0.079520168947499    0.07154902278445766    
  0.07154922129783059    0.07952927816891095    0.05562716461900354    0.06736924181457458    0.09234080343708528    
  0.13821760682980316    0.21134963481836513    0.3040816778388984    0.3850945696963598    0.4171246519841159    
  0.38506014188564847    0.30408502715994506    0.21146746589000376    0.13819661986873868    0.09228633460952836    
  0.06737654369761276    0.055629513643176386    0.052273507943624314    0.05562716461900354    0.04445512353343871    
  0.05114055042892937    0.06736925008567005    0.09942861565549702    0.1553812337887366    0.23812370605292038    
  0.3318999614957528    0.3973518061483673    0.3973955794743745    0.33190429008494593    0.2379861949078921    
  0.15539401146476645    0.09948908866370508    0.06735655194333354    0.051139863310706406    0.04445419771887992    
  0.04445512353343871    0.04118231327715535    0.04445514549489871    0.05562719402664097    0.07952928818775075    
  0.12431803965027124    0.19734120897210555    0.29423027737730806    0.38500455236714    0.42305864130547055    
  0.38499700168411544    0.2943716384013269    0.19732063244311368    0.12425896061448183    0.07954423977485316    
  0.055627913682233604    0.04445561567924077    0.04118231327715535    0.04001529780656701    0.0428775310239381    
  0.05258579686281483    0.07303668894651902    0.11057936084860626    0.1705238802434451    0.24833592388169506    
  0.31989127864313543    0.349604419152251    0.3198887153814784    0.2484968947987379    0.17049919907439992    
  0.11051120743444669    0.07305510147782726    0.052586398187628086    0.04287827825796923    0.04001529780656701    
  0.04287827541366373    0.042876553753081255    0.05015784510710916    0.06805352126999174    0.10327230809712161    
  0.16419698055426402    0.2521695760748281    0.34642861476142817    0.4075306340598828    0.4074886983914113    
  0.34625659563518635    0.25220817731471207    0.1642932149916793    0.10324394339470067    0.06805638532830267    
  0.05015622230487502    0.04287827541366373    0.052586404798816315    0.048226755784518724    0.05258807551735259    
  0.06805109379605176    0.10147586560795441    0.16332081389653963    0.25852933841002074    0.3611416671374647    
  0.42171537927401515    0.43543947398935323    0.42191770813472884    0.36109646084064534    0.25839901007777544    
  0.16337801310898878    0.10147308645592608    0.06805638226648444    0.052586404798816315    0.07305507275531019    
  0.06097219051855909    0.060993713268754364    0.07302892314916375    0.10327744315043859    0.16332952243992369    
  0.26112830982413604    0.35863469528260866    0.36902212035860005    0.31866723425379867    0.3185536183806235    
  0.36904862121902193    0.35886494906943345    0.2610106393851075    0.16337801099920427    0.10324392621364868    
  0.07305507275531019    0.11051119342544055    0.08574207259016495    0.07856738211572277    0.08574505508568735    
  0.11050432148486979    0.16430267965998513    0.25837677357781974    0.3588342898185366    0.3325635200145031    
  0.19774563506162574    0.1382098800454909    0.19774811203664294    0.332517371323691    0.3588649258263178    
  0.2583990451613206    0.1642931838325587    0.11051119342544055    0.17049917651108867    0.12780242343524773    
  0.110411964407381    0.11042915278261384    0.12778557015038042    0.1705215997176114    0.25217536230078363    
  0.361119775748023    0.369108874143541    0.19768440725404537    0.07882949184641531    0.0788916557778075    
  0.1977481124176346    0.369048719133543    0.361096548742543    0.252208220767141    0.17049917651108867    
  0.24849681986934524    0.18856127690380378    0.16033449022480897    0.15195426399870565    0.16033288324472442    
  0.18857323894944536    0.2485026082928462    0.34627053312004274    0.4219251989316969    0.31840017756470873    
  0.1383715729780888    0.07882946113247728    0.13820986250151132    0.31855359460160393    0.42191771728313854    
  0.34625648652693747    0.24849681986934524    0.31988868203813425    0.2564509950218659    0.22332219264227668    
  0.21000579308457312    0.20996972322574858    0.22336072105662813    0.2564139699010307    0.3199443661870597    
  0.4074917423262156    0.4356560595802185    0.31840016848396374    0.19768440926073338    0.19774564989960888    
  0.31866722989410295    0.43543944175732224    0.4074887879313334    0.31988868203813425    0.34960444591643647    
  0.303339114991125    0.2798389809314668    0.2704034853932038    0.2679141685337075    0.2704210098563106    
  0.2798416342228738    0.3033614588149655    0.3495671186757444    0.407491704801033    0.421925250751414    
  0.36910882345076323    0.33256357336370235    0.3690221544145803    0.42171533121238314    0.4075305958735164    
  0.34960444591643647    0.31989129683826056    0.3033069296855194    0.30299265029615424    0.309148827486042    
  0.3126187385363309    0.3126300433193928    0.30914358225854255    0.3030040814677821    0.3033615103462153    
  0.3199444072083244    0.34627055559955927    0.3611196724308683    0.35883434456034397    0.3586348292436309    
  0.3611417516274084    0.34642862917152933    0.31989129683826056    0.24833594315746926    0.25645279238826557    
  0.27986182050513075    0.3091488151363719    0.3281993289123125    0.3331811250958527    0.3281886882795073    
  0.30914352589957095    0.2798416043146087    0.25641396543909484    0.24850257583501806    0.2521752979838728    
  0.25837671541483775    0.2611283384656561    0.2585293845652738    0.2521695318578538    0.24833594315746926    
  0.17052386070877049    0.18868928412028532    0.22332978864533376    0.27038836456555754    0.3126201856246103    
  0.33316973899567304    0.3331811663488372    0.3126300218415644    0.27042095475028854    0.22336065684449974    
  0.18857324179101115    0.17052156319956077    0.16430264794142957    0.16332950699920473    0.16332080288581083    
  0.1641969580654876    0.17052386070877049    0.11057933170869128    0.12778495342337864    0.1602261016339287    
  0.2099902043895634    0.2679562259982218    0.3126202200241537    0.3281993560696814    0.31261870406610065    
  0.2679141204234965    0.20996970934851425    0.1603329138062668    0.1277855707293869    0.11050429713646884    
  0.10327748180642655    0.10147586948980795    0.10327228247498778    0.11057933170869128    0.07303668209802346    
  0.08568118804199386    0.11042484951170546    0.15205900194039593    0.20999024931487523    0.2703883679495196    
  0.3091488281745354    0.30914883353813666    0.2704035370040191    0.21000582753264913    0.1519542553033099    
  0.11042915473177474    0.0857450609349831    0.07302895959445017    0.06805110336992373    0.06805351964531196    
  0.07303668209802346    0.05258576399619274    0.06098489445050601    0.07862559771847946    0.11042482868651461    
  0.1602260611156031    0.2233297782492169    0.27986180180716685    0.30299255313872847    0.27983884485926985    
  0.22332221527719726    0.1603345277069423    0.1104119260073283    0.07856735711128535    0.06099372033014786    
  0.05258807339900543    0.050157833038624595    0.05258576399619274    0.04287751409709031    0.04822746743949591    
  0.06098490566696875    0.08568113594790269    0.12778491629092706    0.18868929660341954    0.25645282437768285    
  0.30330683368609807    0.30333910401830816    0.2564509555913598    0.18856127365514846    0.12780238559306392    
  0.0857420537218184    0.06097217982287497    0.04822675598923832    0.042876553337718636    0.04287751409709031    
  0.04001529780656701    0.0428775310239381    0.05258579686281483    0.07303668894651902    0.11057936084860626    
  0.1705238802434451    0.24833592388169506    0.31989127864313543    0.349604419152251    0.3198887153814784    
  0.2484968947987379    0.17049919907439992    0.11051120743444669    0.07305510147782726    0.052586398187628086    
  0.04287827825796923    0.04001529780656701    0.038374768981605356    0.040655573817723216    0.04838917637989519    
  0.06443382667091664    0.09303549836134044    0.13722795785609246    0.19299747559548128    0.2432466799294961    
  0.26389224219297946    0.24326047983974367    0.19309312821961785    0.1372060367020438    0.09299895443484173    
  0.06444635710805838    0.04838876588019221    0.040656494498387756    0.038374768981605356    0.04065649399018952    
  0.04065552354084047    0.04684711185612553    0.06192901374187406    0.0911414869502491    0.14055437633821943    
  0.21042652117994687    0.2847259686251223    0.33306508088553505    0.3330254874870993    0.28461821238514307    
  0.21045866620659837    0.14061243527660416    0.09112342921293327    0.06193197373808584    0.04684582807954334    
  0.04065649399018952    0.048388765387782855    0.04453398413081125    0.04838929927490113    0.061928119489307536    
  0.09090090790079636    0.14415961756306564    0.22626146900585573    0.3185490546948616    0.38062381172066667    
  0.39839456194798495    0.38075584985467764    0.31851523120882885    0.22619216516192292    0.14419605825039566    
  0.09089869824115088    0.061931957685740176    0.048388765387782855    0.06444633084932266    0.053707496900994425    
  0.05372021623123042    0.0644307480273017    0.09114236213709123    0.14416368551336    0.23227319543292452    
  0.3315834503181562    0.3734347315182501    0.3550591531181101    0.3549764283277607    0.3734820414937796    
  0.33171950094286634    0.23219902526087824    0.1441960614306583    0.09112341156894167    0.06444633084932266    
  0.09299896074898965    0.07110942621015964    0.06482144171023708    0.07111234738091962    0.09299283568585116    
  0.14062172451441488    0.2261684850717396    0.3317086142450696    0.35651545511070953    0.2717857148472652    
  0.2207718837246571    0.2717768817829792    0.3565098737554318    0.33171953460339226    0.2261922147701286    
  0.1406124191510036    0.09299896074898965    0.13720601836999202    0.0997417898024921    0.0845976015010424    
  0.08460988951514828    0.09972791609449247    0.1372237928927276    0.21043622866374156    0.31852579304781264    
  0.37350692798617774    0.2717491730659621    0.15932074950219344    0.15939110904918233    0.27177688950766027    
  0.3734821244274787    0.3185152609103882    0.21045871231407068    0.13720601836999202    0.19309309613706194    
  0.1398158013951931    0.11485818651326345    0.10757023163273725    0.11485764497944705    0.13982194317383143    
  0.1930950366826643    0.2846274587303393    0.3807806719012469    0.3548378139086175    0.22091544749879047    
  0.15932067565582106    0.22077182897485256    0.3549764299110294    0.3807559199834711    0.2846181975447434    
  0.19309309613706194    0.243260495008374    0.18327903144134455    0.1520847450883587    0.13954028072010763    
  0.13952109095572174    0.15210914808861983    0.18325843866481722    0.2432940701348683    0.3330187263552479    
  0.3985549744721207    0.3548378169583315    0.27174922480096947    0.2717857376729222    0.35505915768784424    
  0.3983945899245122    0.3330255706099395    0.243260495008374    0.2638922309176105    0.21268575260551822    
  0.1849595858238901    0.17315374718802592    0.1702175502086728    0.17315881856646628    0.18496081199072464    
  0.2126972102431782    0.26388242157062985    0.3330187373807626    0.3807806938344333    0.3735068918234723    
  0.3565154817874933    0.37343475013168315    0.38062377248279616    0.33306500997213845    0.2638922309176105    
  0.24324671431880107    0.21267493750300798    0.19840536750700163    0.19555895370127435    0.19677176847558364    
  0.19677883172052354    0.19555554134094558    0.1984166870112593    0.2126972275999004    0.2432940657660605    
  0.28462746984892884    0.31852572300695015    0.33170867725587594    0.33158349987282837    0.31854914831346753    
  0.2847259948526267    0.24324671431880107    0.19299743749445908    0.18328412578937361    0.18497123491160905    
  0.19555513760192017    0.20728525968365175    0.21217474108924148    0.2072855230440028    0.1955555306318352    
  0.18496079667767681    0.18325843300329178    0.19309502095666176    0.21043614962779975    0.2261684187600158    
  0.23227319041123257    0.22626151542564832    0.21042642127865235    0.19299743749445908    0.137227949200217    
  0.13988615634072507    0.1520861833198617    0.17314632003484023    0.19677329203103353    0.21217823688385476    
  0.21217478670100912    0.19677878119291095    0.1731587744986625    0.15210914378463247    0.1398219182236425    
  0.13722374595507514    0.14062169848523115    0.14416371334570138    0.14415960871253594    0.14055435038081374    
  0.137227949200217    0.09303547469801693    0.09972830638135675    0.1147975054391354    0.13953383048199644    
  0.1702311468882426    0.19677331766853834    0.2072852752928527    0.196771727366337    0.17021753086937144    
  0.13952109919746938    0.11485768231217285    0.09972794256255298    0.09299281057481966    0.09114237931601643    
  0.09090090943430955    0.09114147864377313    0.09303547469801693    0.06443382297956468    0.07107640388140571    
  0.08460521222458767    0.10762885721718392    0.13953386551970215    0.17314635622273666    0.19555513424019463    
  0.19555893102683292    0.17315376217311412    0.1395403290456568    0.10757023326291655    0.08460987656969898    
  0.07111235526009504    0.06443078185001509    0.061928143126032766    0.06192901116320727    0.06443382297956468    
  0.04838916174560484    0.053714449447599656    0.06485486688714433    0.0846051981634275    0.11479747573353379    
  0.15208617279686795    0.1849712370502249    0.19840524471203164    0.18495949541265036    0.15208475255015505    
  0.11485816779277197    0.08459758909743516    0.06482141501376254    0.053720229231927305    0.048389293820311305    
  0.04684710463724844    0.04838916174560484    0.04065555751871739    0.04453419069798609    0.05371445593849139    
  0.07107637518254488    0.09972831722039305    0.13988613072642953    0.1832841226444003    0.21267485837759664    
  0.2126857222163772    0.18327897854240222    0.13981579156232868    0.09974174185495485    0.07110941500736648    
  0.0537074927673814    0.044533984908470874    0.040655530447110996    0.04065555751871739    0.038374768981605356    
  0.040655573817723216    0.04838917637989519    0.06443382667091664    0.09303549836134044    0.13722795785609246    
  0.19299747559548128    0.2432466799294961    0.26389224219297946    0.24326047983974367    0.19309312821961785    
  0.1372060367020438    0.09299895443484173    0.06444635710805838    0.04838876588019221    0.040656494498387756    
  0.038374768981605356    0.03653996223050557    0.03826619784774486    0.04405117940450828    0.05579822176811718    
  0.07617058002877197    0.10666044719662057    0.14392310299550246    0.1767109543689475    0.1900413392933269    
  0.1767256104224052    0.14394860946466598    0.1066511952506037    0.07616411101734087    0.05580287598996312    
  0.04405044778406393    0.03826692341350303    0.03653996223050557    0.038266927465802736    0.03826588485514258    
  0.0432332762729158    0.05507303428954153    0.07755494501917698    0.11472982824959463    0.16624834353092047    
  0.22102332364484015    0.25736772858043827    0.2573487765947768    0.22099756342528099    0.16626329799493547    
  0.11474601735301072    0.07754921059722915    0.055075683677098905    0.04323246289880954    0.038266927465802736    
  0.044050451557719195    0.040863870353875835    0.04405098180571556    0.05507340650992281    0.07829925174105677    
  0.12050264268515094    0.18582622832588658    0.2641745060550598    0.32689435648432125    0.34956610749777495    
  0.3269223666441386    0.2641661345280342    0.18581629991230159    0.12051670654473043    0.07829810026891523    
  0.05507565694267322    0.044050451557719195    0.05580284972172104    0.04700667814536075    0.047009982255625145    
  0.05579761547402055    0.07755364654989476    0.12050373105264184    0.19346733941868066    0.28893735320905417    
  0.36689945796517237    0.39684981529266106    0.3968358984320378    0.36694667047603624    0.2889688353339454    
  0.19344671788961976    0.12051670179229593    0.07754919117935255    0.05580284972172104    0.07616410774763069    
  0.05838109889447019    0.05334453717876057    0.058382982342785536    0.07616105506345941    0.11475135572239416    
  0.1858027548566202    0.2889688137966207    0.3757336492836075    0.3906609469110885    0.37849164856363277    
  0.3906523161843    0.3757620282849777    0.28896885755376855    0.1858163529981238    0.11474598783466329    
  0.07616410774763069    0.10665118192139651    0.07659446240576714    0.06455927105581208    0.06456358660522897    