#     DFTpy    
  CRYSTAL 
    
  PRIMVEC    
  4.681034482758621    0.0    0.0    
  0.0    4.681034482758621    0.0    
  0.0    0.0    4.681034482758621    
  PRIMCOORD    
  8    1    
  Si    0.0    0.0    0.0    
  Si    1.1702586206896552    1.1702586206896552    1.1702586206896552    
  Si    0.0    2.3405172413793105    2.3405172413793105    
  Si    1.1702586206896552    3.5107758620689653    3.5107758620689653    
  Si    2.3405172413793105    0.0    2.3405172413793105    
  Si    3.5107758620689653    1.1702586206896552    3.5107758620689653    
  Si    2.3405172413793105    2.3405172413793105    0.0    
  Si    3.5107758620689653    3.5107758620689653    1.1702586206896552    
  BEGIN_BLOCK_DATAGRID_3D    
  3d_datagrid_density    
  BEGIN_DATAGRID_3D#0    
  21    21    21    
  0.0    0.0    0.0    
  4.681034482758621    0.0    0.0    
  0.0    4.681034482758621    0.0    
  0.0    0.0    4.681034482758621    
  0.05665910916987808    0.10673617348829977    0.29378777633895925    0.4764718693834793    0.4417915314709453    
  0.3107295953649411    0.20329358668744354    0.13613937631694953    0.0987830822477695    0.0804692130287736    
  0.07494749108630526    0.08046920839410114    0.09878310077389274    0.13613938983093782    0.20329360771347263    
  0.31072962048835645    0.4417915432615556    0.476471925550286    0.29378775966218645    0.10673617869428625    
  0.05665910916987808    0.10673617830131972    0.16810928591732802    0.35509277090465347    0.4975264852597888    
  0.4419035651629876    0.3121562572761587    0.2079031817531196    0.14195577557169098    0.10463587996745032    
  0.08610849906012064    0.08046923059184101    0.08610848978912823    0.10463588491321255    0.14195578208831067    
  0.207903140135832    0.3121562993686085    0.4419035645017682    0.4975265324364048    0.355092758669807    
  0.16810930833721519    0.10673617830131972    0.2937877928340717    0.355092760864666    0.4821726155495412    
  0.5210251200191359    0.4336317906947865    0.31498064126032393    0.2213483621022959    0.15981297587588164    
  0.12342896128578336    0.1046358672949281    0.09878313506852018    0.10463583448755961    0.12342897629670462    
  0.159812963408078    0.22134835251480817    0.3149806584268878    0.4336318168877165    0.5210251834333949    
  0.482172613171046    0.355092778428053    0.2937877928340717    0.4764719012118832    0.4975264734259021    
  0.5210252369008823    0.48730804447714904    0.4044180563292673    0.3149816977284937    0.24252909984218135    
  0.1918993340156849    0.15981297989678717    0.1419557906831984    0.1361393779022907    0.14195582534583437    
  0.15981295993883687    0.19189934958709035    0.24252907299795803    0.3149816911442076    0.4044180879768677    
  0.48730813833797365    0.5210251618925648    0.4975265249715399    0.4764719012118832    0.441791645938667    
  0.4419034583447423    0.4336318282520267    0.40441810244117027    0.35910546164520707    0.3121552651888752    
  0.27231181058444787    0.24252908781631952    0.22134837079257827    0.20790311624874935    0.20329368352679641    
  0.2079030869375043    0.22134840784740195    0.24252908514734414    0.27231181422522166    0.31215524685866    
  0.3591054524876762    0.4044180925660837    0.43363178936947977    0.44190350382637916    0.441791645938667    
  0.310729592711145    0.31215626221764914    0.3149806768288566    0.31498170203967896    0.31215523539631623    
  0.3107306130973107    0.31215520123708984    0.3149817186870147    0.31498060400760536    0.31215629021548175    
  0.3107295396209833    0.3121562822340871    0.31498063627029677    0.31498173987915457    0.31215517874364984    
  0.3107306549057376    0.31215520017621085    0.31498170780107265    0.31498066618397985    0.3121562727149442    
  0.310729592711145    0.20329364668668476    0.20790315148541746    0.22134835579037695    0.24252911120063642    
  0.272311807702241    0.3121552565116457    0.35910549277960546    0.40441807867742047    0.43363180261122225    
  0.4419035201582607    0.441791649843741    0.4419034709680564    0.4336318461231664    0.4044180560013946    
  0.359105464815362    0.31215521786520994    0.27231181811850386    0.2425291198384286    0.22134835687142007    
  0.20790311308228687    0.20329364668668476    0.13613938834025083    0.1419558115540683    0.15981299103396776    
  0.19189932643389632    0.24252909805879636    0.3149816977846672    0.4044181217913459    0.48730808338798803    
  0.5210251265363243    0.4975265313416895    0.4764718705417185    0.4975266058714416    0.5210251777375289    
  0.48730810521468726    0.4044180378510502    0.31498174402699647    0.24252912499441864    0.19189934336445932    
  0.15981296919482788    0.14195581206613264    0.13613938834025083    0.09878312267391931    0.10463583667951142    
  0.12342898241647814    0.1598129711743713    0.2213483562182691    0.31498064906885204    0.4336317856605571    
  0.5210251352013379    0.48217261950450524    0.3550927341488462    0.2937878385458011    0.3550927107913729    
  0.48217263080214645    0.5210251314694113    0.43363181961688296    0.3149806280021186    0.22134834911803844    
  0.15981297891269816    0.12342894808050843    0.10463586227421597    0.09878312267391931    0.0804692238322679    
  0.08610849356768352    0.10463588815937817    0.14195581270462582    0.20790314683318203    0.3121563227253464    
  0.44190355304306306    0.4975265567104441    0.35509276604170076    0.16810933195529845    0.10673615320708436    
  0.1681093512201438    0.35509276872721307    0.49752653746480346    0.4419034772198663    0.31215629061997163    
  0.20790315046772145    0.14195580169945574    0.10463587644688185    0.08610848173487402    0.0804692238322679    
  0.07494749114557574    0.08046920174498688    0.0987831154601983    0.13613937189738085    0.20329359211388107    
  0.31072955309740946    0.4417915712823896    0.4764718214543686    0.29378776630829867    0.10673614566208507    
  0.05665914112277019    0.10673613289365946    0.2937877991921011    0.4764718488902434    0.441791575584455    
  0.31072957098311227    0.20329361786650182    0.13613936763415874    0.0987830961670926    0.08046922880646423    
  0.07494749114557574    0.08046923965768267    0.08610848054675646    0.10463589553201216    0.14195575836126378    
  0.20790315107098495    0.31215626983700795    0.4419036254924734    0.49752652374006984    0.355092772109082    
  0.16810934748958242    0.10673614995862864    0.1681093450916277    0.3550927430654873    0.4975264858338586    
  0.44190348634505855    0.3121562835456776    0.20790313646882938    0.1419558050532835    0.1046358781057015    
  0.08610848707688251    0.08046923965768267    0.09878310411752042    0.10463588130064112    0.12342894154620086    
  0.15981301433150483    0.22134832190938752    0.31498069801418777    0.4336317653340993    0.5210251992578366    
  0.48217257004123554    0.35509277990008964    0.2937877983994771    0.35509276561207254    0.48217264358605927    
  0.5210251396641381    0.4336317642341202    0.3149806754340713    0.22134835857933843    0.1598130058047202    
  0.123428947226499    0.10463588623698572    0.09878310411752042    0.13613941865877033    0.14195575250138254    
  0.1598130443292621    0.191899282807823    0.24252912651010572    0.3149816687993862    0.4044181525834903    
  0.4873080325352839    0.5210251525736947    0.49752646896192076    0.47647187948737624    0.49752648065704325    
  0.5210252142228518    0.4873080273955285    0.40441808180775657    0.31498168190817805    0.24252912056310869    
  0.19189931066905874    0.15981304187378398    0.1419557686234568    0.13613941865877033    0.20329360009786446    
  0.2079031703187702    0.22134831967361296    0.2425291356525578    0.272311719614955    0.3121553124402473    
  0.3591054213336269    0.4044181657691359    0.4336317808174485    0.4419035465141904    0.44179157509652034    
  0.441903564351246    0.4336317860290294    0.4044181217287473    0.35910541523586575    0.31215528414389904    
  0.2723117801118078    0.24252913883281735    0.22134831155160972    0.20790316149509666    0.20329360009786446    
  0.31072964345279497    0.3121561891073436    0.31498075434517336    0.3149816271723158    0.3121552833155774    
  0.31073056715241343    0.3121552717638527    0.314981649307636    0.31498068067274626    0.31215623005064164    
  0.3107296336738674    0.31215621198488164    0.31498070542434803    0.314981669550334    0.31215525875210043    
  0.3107305939220167    0.3121552502857258    0.3149816087736252    0.31498073159874024    0.31215619139766265    
  0.31072964345279497    0.44179155663415426    0.441903591983026    0.433631707486379    0.40441814467788595    
  0.35910537644160784    0.3121553080334274    0.2723117682497924    0.2425291791288915    0.2213483095240617    
  0.20790317956560517    0.20329361013315814    0.20790313818883183    0.22134835265877914    0.24252912129539822    
  0.2723117637052811    0.31215528593029623    0.35910541438378396    0.40441819575466953    0.43363173512014414    
  0.4419035693486209    0.44179155663415426    0.4764719118616266    0.497526447940891    0.5210252616566841    
  0.4873079777717574    0.40441817890422327    0.3149816549781536    0.2425291724135171    0.19189926898515017    
  0.15981299921251912    0.14195575259490928    0.13613941858406509    0.14195578173412163    0.15981302114264914    
  0.19189931750488606    0.24252911646656655    0.3149816523632027    0.404418175975734    0.48730800192239326    
  0.5210252039242617    0.4975264303460506    0.4764719118616266    0.2937877747648534    0.35509276681619223    
  0.48217257882505676    0.5210252022111063    0.4336317534954481    0.31498069006555296    0.22134830356513105    
  0.15981303091174665    0.12342894017907598    0.10463588188697201    0.09878312322062124    0.10463587760997838    
  0.12342896387224091    0.1598129862271631    0.22134831117180065    0.31498069295231945    0.4336317549774147    
  0.5210252467503491    0.4821725205372606    0.3550927955118377    0.2937877747648534    0.10673620325680172    
  0.16810927599881187    0.3550928405108245    0.49752645136711393    0.44190356442624906    0.31215625548516807    
  0.20790319987088535    0.1419557778420514    0.10463588796166026    0.08610848254454576    0.08046923441847471    
  0.08610848472168586    0.10463590499953357    0.14195578543398812    0.20790315129193487    0.3121562786820759    
  0.4419035666717556    0.4975265059868637    0.35509284126196056    0.16810929945128564    0.10673620325680172    
  0.05665910916987808    0.10673617348829977    0.29378777633895925    0.4764718693834793    0.4417915314709453    
  0.3107295953649411    0.20329358668744354    0.13613937631694953    0.0987830822477695    0.0804692130287736    
  0.07494749108630526    0.08046920839410114    0.09878310077389274    0.13613938983093782    0.20329360771347263    
  0.31072962048835645    0.4417915432615556    0.476471925550286    0.29378775966218645    0.10673617869428625    
  0.05665910916987808    0.10673618089389411    0.1681093114774271    0.3550928481207427    0.49752648942295485    
  0.4419035718252138    0.31215623679058263    0.20790317705327604    0.14195577890994468    0.10463588475803408    
  0.08610848553069966    0.0804692376314512    0.08610848793852563    0.10463589045641132    0.14195581398819532    
  0.20790314864477896    0.3121562790264171    0.44190353816104544    0.49752653999977703    0.3550928039319973    
  0.16810932254272676    0.10673618089389411    0.1681093316500659    0.25061487104638286    0.45128114702345984    
  0.5753821450403719    0.5013444054743496    0.35910438037280384    0.24359642431195333    0.16752543245316248    
  0.1219765880207167    0.09707748761467706    0.08610851853354731    0.08678595093467271    0.09985454516446024    
  0.12966964225825453    0.18427906524819476    0.27231083247661303    0.38629171980850013    0.4545438406741168    
  0.3694268809766114    0.2197181928063677    0.1681093316500659    0.35509281425008055    0.45128115269298325    
  0.6005587065610927    0.6428183573843768    0.5440136313097154    0.404419249962257    0.2884853910269503    
  0.20705788585809481    0.15416072851314253    0.12197660672261633    0.10463589867703584    0.09985453631239712    
  0.10746046000079644    0.1300180363361279    0.1729726678825546    0.24253004344123338    0.3367600551497741    
  0.42155671589962573    0.4292631246809021    0.3694269218102579    0.35509281425008055    0.4975265828274716    
  0.575382149255515    0.6428184816174204    0.6312558646226967    0.544014867326647    0.433630621985926    
  0.3367611337796559    0.2622754604551551    0.2070579096981197    0.16752539680626077    0.14195585358070117    
  0.12966965285070947    0.13001803201346318    0.1435846226275018    0.17297349177484467    0.2213474604642106    
  0.288486371702718    0.36338512808363027    0.4215567171351562    0.4545437566063776    0.4975265828274716    
  0.4419035582631413    0.5013443663060749    0.544013613948873    0.5440149098262943    0.5013431413065688    
  0.44190480324931997    0.386290582315122    0.336761091736017    0.2884853344336323    0.2435964484122254    
  0.2079031544116891    0.18427908335508883    0.17297269812567337    0.17297350992154067    0.18427823289764064    
  0.20790403954452424    0.2435955007837168    0.28848637306814456    0.33676002478735645    0.3862917526497086    
  0.4419035582631413    0.3121563152857573    0.35910432790304986    0.404419312321665    0.43363056907473235    
  0.44190476947837404    0.44179035472748324    0.4419047685683599    0.4336305733477217    0.40441927386526516    
  0.3591042940317866    0.31215634669976666    0.2723107930722819    0.2425300773059636    0.2213474442892978    
  0.20790401999759325    0.20329274864981028    0.2079040220457339    0.22134742548468514    0.2425300794482133    
  0.27231078920551466    0.3121563152857573    0.2079031649754703    0.24359644842592124    0.2884853567454957    
  0.33676112363406174    0.3862905540035826    0.44190483043206075    0.5013431549796885    0.5440149496764192    
  0.5440135020529485    0.5013444932854404    0.4419035346974334    0.3862917589080207    0.33676000614246804    
  0.28848637690217804    0.2435954609751275    0.2079040460273027    0.18427824334182946    0.17297353154581802    
  0.17297267180931528    0.1842790719825788    0.2079031649754703    0.14195582513771696    0.16752544140749623    
  0.20705792550115676    0.26227543967691974    0.33676111329201003    0.4336305873066503    0.5440149272937501    
  0.6312558095009755    0.642818434147225    0.5753820455916522    0.4975266390751799    0.45454376188278134    
  0.4215567658131004    0.3633850316205411    0.2884863906184223    0.22134743906126245    0.17297352973859748    
  0.143584602167607    0.13001804256984797    0.12966964472049589    0.14195582513771696    0.10463588131747349    
  0.12197658225924685    0.15416075069602356    0.20705787554484328    0.2884853783168014    0.40441925830395337    
  0.5440135744490382    0.642818433640095    0.600558616020551    0.45128116200791196    0.35509274418322045    
  0.36942692889526224    0.4292631153726819    0.42155673529938564    0.3367600250129846    0.2425300626476444    
  0.17297267041860398    0.13001806105773123    0.10746044185522147    0.09985454502760702    0.10463588131747349    
  0.08610852323683624    0.09707745157978433    0.12197664576250916    0.16752543311448992    0.24359643834385844    
  0.3591043874012546    0.5013444835153325    0.5753820940543392    0.4512812029880035    0.2506148300377834    
  0.1681093899068777    0.21971813098376536    0.3694269679208803    0.45454377205753677    0.38629175767676827    
  0.27231080621050235    0.18427910802032316    0.12966963981268032    0.0998545568468339    0.08678596987990123    
  0.08610852323683624    0.08046922567711359    0.08610848829467403    0.10463590615016907    0.141955794396208    
  0.20790313709335587    0.31215624999575003    0.44190354844489516    0.49752651617649624    0.3550927423868576    
  0.16810933807053935    0.10673616842632576    0.168109331691597    0.3550927625301383    0.49752657345840945    
  0.4419034938806646    0.3121563098500079    0.20790314633169119    0.1419558026732995    0.10463587914569977    
  0.0861085006256188    0.08046922567711359    0.08610850449160048    0.08678597351077581    0.09985453253031269    
  0.12966967168363067    0.18427907206526703    0.2723108568567933    0.38629177462843456    0.45454378651353866    
  0.36942691362804825    0.21971817144828587    0.16810935325886933    0.25061485431923497    0.45128118692596114    
  0.575382114933348    0.5013444280600531    0.3591043732587771    0.2435964364948659    0.16752544441837952    
  0.1219766057249469    0.09707748277079682    0.08610850449160048    0.10463590580428754    0.09985452384349122    
  0.1074604925149376    0.130018023588018    0.17297273096776689    0.24253001587429143    0.33676007453267015    
  0.42155668102173527    0.42926313985641795    0.36942692371000385    0.3550928115243901    0.4512811864080558    
  0.6005587030340374    0.6428183897085722    0.5440135835854183    0.404419277320671    0.28848540908943193    
  0.20705787273495024    0.15416072472925127    0.12197661378395933    0.10463590580428754    0.1419557908574842    
  0.12966966976864597    0.13001803859355995    0.14358464833775894    0.17297343821197034    0.22134750861852945    
  0.28848634602910306    0.3633851464425732    0.4215566407339316    0.45454378786278665    0.4975265624625959    
  0.5753821309514346    0.6428184247684906    0.6312558896944631    0.5440148270243914    0.4336306673856697    
  0.3367610681360767    0.26227549766389485    0.20705788799553854    0.16752545309560013    0.1419557908574842    
  0.20790319628167242    0.18427903450794594    0.17297273930573573    0.17297345555863874    0.18427828790132977    
  0.20790397752671308    0.2435955414931218    0.28848634351588553    0.3367600983703468    0.3862916737184114    
  0.44190363434294583    0.5013443910863714    0.5440136109120981    0.5440148775149694    0.5013431530828271    
  0.44190475567548776    0.38629064963000803    0.3367610516445474    0.28848540002529083    0.243596364034224    
  0.20790319628167242    0.31215623585787133    0.2723108575807368    0.24253002789249173    0.22134752590381504    
  0.20790395257106983    0.2032928198828998    0.20790396640460954    0.22134751540141925    0.24252999515317356    
  0.272310853601886    0.31215627330888385    0.3591043496928091    0.40441925066376455    0.4336306681066398    
  0.44190470128120574    0.441790454317618    0.44190473004335035    0.43363061995681124    0.40441923574375804    
  0.35910434559949117    0.31215623585787133    0.4419036604408858    0.3862916749254554    0.33676008395698936    
  0.2884862723998663    0.24359555314115033    0.20790398577071936    0.18427832701502048    0.17297346907525574    
  0.17297271422382482    0.18427905185350427    0.20790319992944312    0.24359638784350937    0.28848542267947624    
  0.33676105211254403    0.3862906086354521    0.44190471512188195    0.5013432182545208    0.5440149039270382    
  0.5440135901317174    0.5013443686370371    0.4419036604408858    0.4975265075374548    0.4545438251264304    
  0.42155667510018435    0.36338516960836664    0.2884863177890544    0.22134748827674883    0.17297344837093123    
  0.14358465070444557    0.13001800016148363    0.1296696757163091    0.14195580009133457    0.16752545513419967    
  0.20705789434388236    0.262275478622336    0.3367610738913884    0.4336306723649611    0.54401485421423    
  0.6312559445122573    0.6428183529520209    0.5753822001631802    0.4975265075374548    0.3550928440943769    
  0.3694268172858675    0.42926320105236004    0.4215566280047215    0.3367600995684747    0.2425299905014485    
  0.17297273328376714    0.13001800581972964    0.10746050080573157    0.099854509219283    0.10463591912177002    
  0.12197658644089153    0.15416075140343166    0.2070578627123357    0.2884853774626933    0.4044192397036984    
  0.5440136291973704    0.6428184430959692    0.6005586730401029    0.45128113402626713    0.3550928440943769    
  0.16810932455467523    0.21971819741996013    0.36942692450356424    0.45454385503064354    0.38629168163988936    
  0.27231091102969734    0.18427905100220313    0.12966966307647126    0.09985452462447707    0.08678597020344168    
  0.08610850781878623    0.09707747127002156    0.12197660004229176    0.16752546772903218    0.24359639210583964    
  0.3591044120531614    0.5013444346457097    0.5753821780828341    0.451281167170213    0.2506149150277612    
  0.16810932455467523    0.10673618089389411    0.1681093114774271    0.3550928481207427    0.49752648942295485    
  0.4419035718252138    0.31215623679058263    0.20790317705327604    0.14195577890994468    0.10463588475803408    
  0.08610848553069966    0.0804692376314512    0.08610848793852563    0.10463589045641132    0.14195581398819532    
  0.20790314864477896    0.3121562790264171    0.44190353816104544    0.49752653999977703    0.3550928039319973    
  0.16810932254272676    0.10673618089389411    0.29378776634367776    0.35509280003378274    0.48217260329151895    
  0.5210251724829742    0.4336317370978353    0.3149806548391111    0.22134832804014484    0.15981299163543855    
  0.12342891937372771    0.10463589071880622    0.0987831194884302    0.1046358716818484    0.12342896830164198    
  0.15981302288279892    0.22134832464893978    0.31498067155009807    0.43363177183731566    0.5210252238433837    
  0.48217257834110694    0.3550928199357918    0.29378776634367776    0.35509281505502566    0.4512810947068794    
  0.6005586479456592    0.642818341472886    0.5440136173011947    0.4044192783777585    0.288485403356455    
  0.2070579016729253    0.15416071133377082    0.12197661667086583    0.10463590331120262    0.09985452790650413    
  0.10746046696031303    0.13001802278118837    0.1729726822764422    0.24253005291765886    0.33676005800811126    
  0.42155670963453284    0.4292631358646431    0.3694268689821642    0.35509281505502566    0.48217259789479233    
  0.6005586373539397    0.7240897035754421    0.7373950765638544    0.631257268137112    0.48730683310497785    
  0.363386207463612    0.26987923728054103    0.20173602989145678    0.15416069542857577    0.12342897862617774    
  0.10746043287845838    0.10481038566761022    0.11592619641706631    0.14358533188790787    0.1918985062194716    
  0.26227642391172495    0.3421005559773472    0.40033602477533897    0.4292631474199062    0.48217259789479233    
  0.5210252212329358    0.6428183862188704    0.7373951527217482    0.7373965338149799    0.6428169837500692    
  0.5210264466857308    0.4215555220447703    0.34210165121977076    0.2698792386163402    0.20705788965748753    
  0.15981301717310123    0.13001805308414346    0.11592619718024945    0.1159268687219551    0.1300173270352094    
  0.159813764907767    0.20705703631643657    0.2698802381033301    0.3421005637347791    0.4215566934492097    
  0.5210252212329358    0.43363181589908967    0.5440135152091579    0.6312573082935445    0.6428169580857112    
  0.5753835127640723    0.49752527333624935    0.45454501276109077    0.4215555171766278    0.36338624943712533    
  0.28848531228848096    0.22134839115727042    0.17297264972926893    0.14358536172708977    0.13001731972255995    
  0.12967034528390864    0.141955078903169    0.16752622804255213    0.2070570229246642    0.26227642472106233    
  0.336759998925052    0.43363181589908967    0.3149806912014469    0.40441924891446107    0.4873068643012897    
  0.5210264324447337    0.49752524655173214    0.4764731186046959    0.497525194855432    0.5210264805042681    
  0.4873067651936005    0.4044192652484527    0.31498064250120633    0.24253007989069886    0.1918984960440716    
  0.15981378299150026    0.14195503305407078    0.1361401023063315    0.1419550614904208    0.15981374712303337    
  0.1918985145275757    0.24253004168308623    0.3149806912014469    0.2213483896664727    0.2884853879841991    
  0.3633862304143338    0.42155550451741874    0.45454504718889144    0.49752530104193754    0.5753835150611818    
  0.6428170078024704    0.6312573044733111    0.5440135225578994    0.43363184656985204    0.3367599846449742    
  0.26227646129568993    0.2070570318753464    0.1675262222706348    0.14195505527465052    0.1296703640981613    
  0.13001734198551593    0.1435853478703393    0.17297266357894672    0.2213483896664727    0.15981299307525956    
  0.20705789158675925    0.26987927707983916    0.3421016253715492    0.4215555432580109    0.5210264743602405    
  0.6428169881369757    0.7373965775046473    0.7373950047433765    0.6428184146682492    0.5210251949810987    
  0.4215567455666129    0.3421005248046144    0.26988019931228796    0.20705701523499528    0.159813767174385    
  0.13001735090833705    0.11592686474741568    0.11592620654835158    0.13001803362855185    0.15981299307525956    
  0.123428968915558    0.1541606841931749    0.2017360768352637    0.26987921894913525    0.36338621634690094    
  0.4873067880401494    0.6312572825581927    0.7373950158636883    0.7240897614257408    0.6005585467380536    
  0.482172685098143    0.4292630549873985    0.40033612753031067    0.34210053059771867    0.26227641915459965    
  0.19189850025586716    0.14358534945379436    0.11592620885411027    0.10481034386188916    0.10746044694432048    
  0.123428968915558    0.10463588997828589    0.12197659775971112    0.154160740953469    0.20705789640877667    
  0.2884853927448265    0.4044192978235412    0.5440135918900713    0.6428184106847831    0.6005586266158262    
  0.45128116088695125    0.35509278541598965    0.3694269471292122    0.4292631181349447    0.42155671428967306    
  0.33675997508217653    0.2425300253685617    0.1729727189875312    0.13001802759349762    0.10746046004516847    
  0.09985454215805176    0.10463588997828589    0.09878311584274353    0.10463587392247568    0.12342896205915008    
  0.1598130090090923    0.22134832262338347    0.31498064083534627    0.4336317419524571    0.5210251830221557    
  0.4821725770820842    0.35509273616613685    0.29378781941339766    0.3550927548460744    0.48217261004518236    
  0.5210251764354901    0.4336317830234151    0.31498066701923166    0.2213483425519767    0.15981299618641331    
  0.12342895818050897    0.10463587520090906    0.09878311584274353    0.1046358978519037    0.0998545122362961    
  0.10746048014256096    0.13001801172953678    0.17297270869373546    0.24253004175462106    0.3367600909353695    
  0.4215566892992394    0.42926313554209783    0.3694269216868934    0.3550928008446323    0.4512811928206623    
  0.6005585957432815    0.6428184414914557    0.544013540401439    0.40441929335069626    0.2884853749658782    
  0.20705790474091965    0.1541607332301823    0.12197660021884023    0.1046358978519037    0.12342894853421583    
  0.10746046896306335    0.10481035495744992    0.11592623239594889    0.14358531949549844    0.1918985235316841    
  0.2622763812749387    0.3421005680498054    0.400336020323031    0.42926314448687164    0.4821725956144597    
  0.6005586345035562    0.724089794474501    0.7373950425597738    0.6312572471063503    0.4873068700747164    
  0.3633862011200284    0.2698792600374138    0.20173600138551348    0.1541607475678406    0.12342894853421583    
  0.15981305403338683    0.1300179888084403    0.11592625836241653    0.11592683478943291    0.13001736965805483    
  0.15981372471723168    0.20705710672114622    0.2698801770949706    0.3421005802547311    0.4215566720748665    
  0.5210252477016025    0.6428183864455348    0.7373951459138145    0.7373965802449002    0.6428169810785025    
  0.5210264159921445    0.4215555470009579    0.34210158549030373    0.2698793070734768    0.2070578724279649    
  0.15981305403338683    0.2213483128602863    0.17297271001202935    0.14358532040792524    0.13001736856144727    
  0.12967030020508633    0.14195513629300593    0.16752617933659342    0.2070570994615472    0.26227639016741233    
  0.33676004749612054    0.4336318034560737    0.5440135676167216    0.6312573031070192    0.6428170131302763    
  0.5753834285793161    0.49752535394717384    0.45454497179206244    0.42155558459631    0.3633861521749727    
  0.2884853811655038    0.2213483128602863    0.31498072988963094    0.24252998044130541    0.1918985753723193    
  0.15981370026928937    0.14195510882867723    0.13614003792517876    0.1419550949417173    0.15981370240880743    
  0.1918985313100426    0.2425299862914924    0.3149807487895871    0.40441918974481444    0.48730690340218796    
  0.521026433688966    0.4975252904682895    0.47647310204160287    0.49752528892903575    0.5210263869325246    
  0.4873069215303874    0.40441915199080425    0.31498072988963094    0.4336317567332722    0.3367600985241906    
  0.2622763353539459    0.20705711240208519    0.16752615335156854    0.14195514919912017    0.12967032061778438    
  0.13001738602465773    0.14358531214260412    0.17297270912391527    0.22134833270196363    0.2884853780422993    
  0.36338618526538013    0.42155555330609157    0.4545449232443443    0.49752530085539315    0.5753834435399349    
  0.6428170735544636    0.6312571823254183    0.5440136008061586    0.4336317567332722    0.521025265342034    
  0.42155662951795275    0.3421006419497982    0.26988013324911353    0.20705710921041026    0.159813698140084    
  0.13001738408045185    0.11592682586395008    0.11592624127710743    0.1300179987988504    0.159813057562296    
  0.207057873322217    0.2698793068735055    0.34210160966135766    0.42155554356924896    0.5210263986712693    