#     DFTpy    
  CRYSTAL 
    
  PRIMVEC    
  1.156653380374584    -2.00338242155507    0.0    
  1.156653380374584    2.00338242155507    0.0    
  0.0    0.0    2.1771955994482752    
  PRIMCOORD    
  1    1    
  Si    0.0    0.0    0.0    
  BEGIN_BLOCK_DATAGRID_3D    
  3d_datagrid_density    
  BEGIN_DATAGRID_3D#0    
  11    11    11    
  0.0    0.0    0.0    
  1.156653380374584    -2.00338242155507    0.0    
  1.156653380374584    2.00338242155507    0.0    
  0.0    0.0    2.1771955994482752    
  0.04970079669542628    0.09265110728810587    0.25959806929675283    0.46330738583179226    0.5263446311847436    
  0.5218397670847695    0.5263446078079695    0.46330733162504834    0.2595980609725076    0.0926511140395934    
  0.04970079669542628    0.09265110715721535    0.09264273404501311    0.20214025238816236    0.40166788090032124    
  0.5147380069517136    0.5174090109104592    0.5174188320433204    0.5147410285249902    0.40160159369535636    
  0.20218380118727422    0.09265110715721535    0.2595980734046974    0.20214026052188638    0.2596625179840954    
  0.4016181557546896    0.5047825055704421    0.510162889765113    0.49663452835013294    0.5101454010739983    
  0.5048641873831771    0.4016015987180432    0.2595980734046974    0.4633074025326623    0.4016678521439395    
  0.4016181453615549    0.46327776318052605    0.5147055389921461    0.510244161727247    0.48629733850973533    
  0.4863375776602498    0.5101454232221034    0.5147410303865702    0.4633074025326623    0.5263446350722197    
  0.5147379970854936    0.5047824897167824    0.514705517598409    0.5264175892310583    0.5174184545893914    
  0.4965653704303484    0.4862973498031932    0.496634527918954    0.5174188518593607    0.5263446350722197    
  0.5218398231845031    0.5174090187023298    0.510162879399538    0.5102441853722587    0.5174184640027196    
  0.5217647294657564    0.5174184513643916    0.5102441305769265    0.5101629126200767    0.5174090254775863    
  0.5218398231845031    0.5263446464742569    0.5174188107344232    0.4966345428756892    0.486297344023148    
  0.4965653854796702    0.5174184666892379    0.5264176103007349    0.5147055257879972    0.504782465605914    
  0.5147380177149561    0.5263446464742569    0.4633073698707315    0.5147410105912915    0.5101454086208184    
  0.4863375889140641    0.486297361551279    0.5102441942283418    0.5147055171370122    0.46327776173293256    
  0.40161815678617147    0.40166789324324603    0.4633073698707315    0.2595980672451463    0.4016016038713731    
  0.5048641681763635    0.5101454131691957    0.496634536705671    0.510162896383363    0.5047824854795289    
  0.4016181436654511    0.2596624802591664    0.20214027907300505    0.2595980672451463    0.0926511103394394    
  0.2021837862133805    0.4016015925156816    0.5147410264301957    0.5174188100112892    0.5174090141068095    
  0.51473799759772    0.40166785488780066    0.2021402791339125    0.09264271329289847    0.0926511103394394    
  0.04970079669542628    0.09265110728810587    0.25959806929675283    0.46330738583179226    0.5263446311847436    
  0.5218397670847695    0.5263446078079695    0.46330733162504834    0.2595980609725076    0.0926511140395934    
  0.04970079669542628    0.0895866353309782    0.14091798346531217    0.3049180763960306    0.4671744952058178    
  0.5006832969690593    0.49029747284918873    0.5006832749218431    0.46717444104083394    0.3049180815838065    
  0.14091799231473157    0.0895866353309782    0.1409179824313694    0.14087871744763286    0.252444890483215    
  0.42167120075021314    0.49675139153902886    0.4866833416425584    0.4867060491597702    0.49673819663736135    
  0.4216259287587534    0.25246965263627796    0.1409179824313694    0.30491810896938687    0.2524448837665051    
  0.30500920284691274    0.42162556874337925    0.4905067177241799    0.4808303307597881    0.46520875127844613    
  0.48081787042696567    0.4905740992174529    0.42162590262515587    0.30491810896938687    0.46717447706847465    
  0.4216711772730807    0.42162554333872904    0.4671205895901873    0.49672306873331273    0.4808965989799534    
  0.4553563586851613    0.4553844568468372    0.48081787435543355    0.4967382470020037    0.46717447706847465    
  0.5006833073589628    0.49675137752832743    0.49050670934045976    0.4967230339048212    0.5007665247596966    
  0.48669785538143473    0.4651505165333853    0.4553563664485515    0.46520876602442407    0.4867060563642815    
  0.5006833073589628    0.49029749723539745    0.4866833257835921    0.4808303359824934    0.4808966290705391    
  0.48669787517541113    0.49021234030555094    0.48669785762784296    0.4808965759442034    0.480830345787056    
  0.48668333677071995    0.49029749723539745    0.5006833304797165    0.48670603532898626    0.46520876378482007    
  0.45535636591788686    0.4651505310268112    0.48669789124952934    0.5007665275537537    0.49672305767386943    
  0.49050671423671216    0.49675138906457855    0.5006833304797165    0.46717448477211093    0.49673819233300154    
  0.480817878301648    0.4553844578676864    0.4553563973145221    0.48089661718501414    0.49672303845694266    
  0.4671205581109601    0.42162556389603334    0.4216712181236031    0.46717448477211093    0.30491810143648546    
  0.4216259164924937    0.4905740939263344    0.4808178927211095    0.4652087612824594    0.4808303292823242    
  0.49050670313387196    0.4216255599496795    0.30500917719341153    0.25244491708694244    0.30491810143648546    
  0.14091798767049557    0.25246964188897386    0.4216259154894705    0.49673821588278516    0.4867060439330107    
  0.48668331383087454    0.49675137754947263    0.42167119294439487    0.2524449069076559    0.14087870235581967    
  0.14091798767049557    0.0895866353309782    0.14091798346531217    0.3049180763960306    0.4671744952058178    
  0.5006832969690593    0.49029747284918873    0.5006832749218431    0.46717444104083394    0.3049180815838065    
  0.14091799231473157    0.0895866353309782    0.2557490497356921    0.3060741254166928    0.41212244977278734    
  0.46102254948918797    0.43445419037983485    0.4131392826586239    0.43445417005278325    0.46102249142049206    
  0.4121224551242935    0.3060741171649407    0.2557490497356921    0.3060741148784934    0.306008415593214    
  0.38440404269803746    0.45367601810714675    0.44566612323275695    0.41140833366488216    0.4114229456813153    
  0.44565422249460884    0.4536591079723569    0.3844038751975954    0.3060741148784934    0.4121224916455377    
  0.3844040414639399    0.4122058675130833    0.4536434631895686    0.44729966630505086    0.4087025952086272    
  0.38914364481802294    0.4087002591586974    0.4473262181910904    0.45365911004948434    0.4121224916455377    
  0.46102254093934436    0.45367599113564977    0.45364347498738145    0.4609814389877364    0.4456522797409768    
  0.4087356048184574    0.3803436208345647    0.38035353822054097    0.4087002375773258    0.4456542631320337    
  0.46102254093934436    0.43445417009126    0.44566610600621026    0.4472996450160229    0.4456522540870624    
  0.4345071442481603    0.41141682837934446    0.389114969589224    0.3803436291215638    0.3891436632013432    
  0.411422969023294    0.43445417009126    0.4131393165554791    0.4114083203862468    0.40870258937154824    
  0.408735629767141    0.4114168359977487    0.41308580130882755    0.41141681945643305    0.40873560205773524    
  0.4087025939221963    0.41140834876653626    0.4131393165554791    0.43445419708374117    0.4114229561370937    
  0.38914366439804515    0.38034361486349477    0.38911497235671827    0.4114168482626767    0.4345071354131769    
  0.4456522581824012    0.44729964700954866    0.44566611903998593    0.43445419708374117    0.4610225233581921    
  0.44565421841695724    0.40870024548803624    0.38035354219479484    0.38034364427522527    0.40873562933951757    
  0.4456522532361583    0.4609814518218906    0.45364345709908377    0.453676033364607    0.4610225233581921    
  0.4121224802436145    0.4536590934360334    0.44732621397922256    0.4087002459727338    0.3891436799934212    
  0.4087025705318206    0.4472996473031677    0.45364344604949686    0.4122058697754273    0.3844040486843012    
  0.4121224802436145    0.3060741264763908    0.38440384043729475    0.453659108504867    0.44565424382561936    
  0.41142294337684665    0.4114083241546979    0.4456661131940475    0.45367601064856794    0.3844040476133531    
  0.30600843452486237    0.3060741264763908    0.2557490497356921    0.3060741254166928    0.41212244977278734    
  0.46102254948918797    0.43445419037983485    0.4131392826586239    0.43445417005278325    0.46102249142049206    
  0.4121224551242935    0.3060741171649407    0.2557490497356921    0.5119065694408569    0.5146338550427926    
  0.4932308933666795    0.4269105489567417    0.3575882596116657    0.3299807582548503    0.3575882495568767    
  0.4269104916405674    0.4932309025228923    0.5146338453476335    0.5119065694408569    0.5146338363777785    
  0.514612748766919    0.5035818300088055    0.4527288091152222    0.37917604464323335    0.3297673925175797    
  0.329770151763542    0.37917478306870006    0.45272556723169594    0.5035796682723006    0.5146338363777785    
  0.4932309343916043    0.5035818097970723    0.4932523480325047    0.4527203545721836    0.3869157394151244    
  0.32964052447833986    0.30795716312388954    0.3296391831595234    0.3869188957933253    0.4527255867757158    
  0.4932309343916043    0.4269105292999218    0.4527287930246213    0.4527203489481951    0.42690227981017553    
  0.3791742758706249    0.3296438962765895    0.3001080982051996    0.300110087115206    0.3296391706889476    
  0.37917483728942275    0.4269105292999218    0.35758824493225544    0.3791760290365453    0.3869157274600594    
  0.37917425076884764    0.3575985828724234    0.32977087213528844    0.3079522157297454    0.30010809711659225    
  0.3079571780257371    0.32977014241220043    0.35758824493225544    0.32998078820296384    0.32976737970116454    
  0.32964051613211887    0.32964389825472534    0.32977087259012383    0.3299663672677393    0.32977085444468573    
  0.32964388174924086    0.32964051737633604    0.32976738963787156    0.32998078820296384    0.35758827957318845    
  0.3297701494278876    0.30795718386136833    0.30010809090197804    0.307952216226438    0.32977088874530003    
  0.35759858635319997    0.3791742528324543    0.3869157253715683    0.3791760250834148    0.35758827957318845    
  0.4269105244100813    0.379174778941112    0.32963917076035903    0.30011008272871037    0.3001081215689314    
  0.32964390649749203    0.3791742494053138    0.4269022989352022    0.4527203589642711    0.45272882032576156    
  0.4269105244100813    0.49323091498688165    0.4527255695969772    0.38691889422146203    0.32963916803010734    
  0.3079571838138866    0.32964050996785477    0.38691572731397733    0.45272033719852617    0.49325232701223226    
  0.503581842326345    0.49323091498688165    0.5146338432559732    0.503579611812418    0.4527255742704969    
  0.37917481333897735    0.3297701394412141    0.32976738981490406    0.3791760314077414    0.4527287999739701    
  0.5035818480261687    0.5146127559231445    0.5146338432559732    0.5119065694408569    0.5146338550427926    
  0.4932308933666795    0.4269105489567417    0.3575882596116657    0.3299807582548503    0.3575882495568767    
  0.4269104916405674    0.4932309025228923    0.5146338453476335    0.5119065694408569    0.6559279392137765    
  0.613683854667336    0.505879346879383    0.3851253949095166    0.30122113358963565    0.27263813704550455    
  0.3012211126124871    0.38512537917833517    0.5058793659139343    0.6136838665411274    0.6559279392137765    
  0.6136838454741037    0.6136838841817878    0.5385759928429886    0.4251678070819682    0.3260608440732929    
  0.27284974886398783    0.27284931990141237    0.3260616504151311    0.4251664450214861    0.5385779280035401    
  0.6136838454741037    0.5058793885544106    0.5385759756194087    0.5058812828250376    0.42516672372552433    
  0.3362068893733879    0.27357093182912284    0.25188628132772095    0.27357084077369254    0.33620667348609296    
  0.42516643685607136    0.5058793885544106    0.3851253864835791    0.42516776375011145    0.4251667053356828    
  0.38512518305553756    0.32606094646864453    0.27357018404754907    0.24454793405123082    0.24454660792446065    
  0.27357082916173947    0.3260616714394037    0.3851253864835791    0.3012211176426341    0.32606082617868903    
  0.3362068805867546    0.3260609201826719    0.30122129446072893    0.27285143037149584    0.2518848049450281    
  0.2445479424758315    0.25188628731370233    0.27284931704025595    0.3012211176426341    0.2726381428209816    
  0.2728497248001017    0.2735709254454179    0.2735701951664681    0.272851431979303    0.27263460857763017    
  0.27285142451918554    0.27357015953192815    0.2735709319590129    0.27284972751420516    0.2726381428209816    
  0.30122113837147513    0.27284929586960605    0.25188628100792687    0.24454794244478353    0.2518848042669009    
  0.2728514502139267    0.301221286501711    0.32606091191538145    0.33620686914851117    0.32606084142376063    
  0.30122113837147513    0.38512539643612714    0.32606163149608447    0.27357084247011837    0.24454660266009676    
  0.24454795226152806    0.2735701910160889    0.32606091341493343    0.3851251850278398    0.42516671438122444    
  0.42516780485391437    0.38512539643612714    0.505879367801926    0.42516641657151716    0.3362066519024193    
  0.27357084394758957    0.2518862958109737    0.27357092839009917    0.33620688591869435    0.42516673521277176    
  0.5058812659088378    0.5385760193813863    0.505879367801926    0.6136838343132482    0.5385778955102943    
  0.4251664401763647    0.32606166519197927    0.27284930413358954    0.2728497342919274    0.3260608419488208    
  0.42516778943381006    0.5385760182866941    0.6136838819583788    0.6136838343132482    0.6559279392137765    
  0.613683854667336    0.505879346879383    0.3851253949095166    0.30122113358963565    0.27263813704550455    
  0.3012211126124871    0.38512537917833517    0.5058793659139343    0.6136838665411274    0.6559279392137765    
  0.6820027638204528    0.6279034902418804    0.49934181697629715    0.36721260713088183    0.2811980526925623    
  0.2529197149121863    0.28119804250220626    0.36721257117727146    0.4993418158122655    0.6279035298526866    
  0.6820027638204528    0.6279034947311188    0.6279007979060898    0.5371913730644926    0.41011808340102285    
  0.30636699965857284    0.2530968983074843    0.25309811736086374    0.3063642150249851    0.41011734264208694    
  0.5371952966109549    0.6279034947311188    0.4993418320729859    0.5371913846838882    0.4993462487754904    
  0.4101207739971625    0.3169343029591539    0.25384644624570785    0.23246744556475887    0.25384750117722316    
  0.31693776999476425    0.4101173425168535    0.4993418320729859    0.36721261398049565    0.41011805216898634    
  0.4101207598728026    0.36720669115530913    0.30636611189713214    0.2538486073365865    0.22526262974571595    
  0.22526053316577402    0.2538475178972654    0.30636421620604903    0.36721261398049565    0.28119804746991706    
  0.306366981866515    0.3169342898710538    0.3063660826823809    0.2812003431731963    0.25309686846233453    
  0.2324658688109366    0.22526262996321025    0.2324674363427227    0.2530981215601926    0.28119804746991706    
  0.2529197338464042    0.25309689296361976    0.25384642659669904    0.2538486239049788    0.2530968720570174    
  0.2529194503277688    0.2530968648006767    0.2538485869164946    0.25384643880719227    0.25309689655629297    
  0.2529197338464042    0.2811980510664037    0.25309810188047965    0.23246744683105341    0.22526262615127532    
  0.23246587311143427    0.25309687364017486    0.2812003556528728    0.3063660898708826    0.3169342708202836    
  0.30636699252486965    0.2811980510664037    0.3672125907863998    0.3063641899636593    0.2538475058793118    
  0.22526053419556955    0.22526263816761824    0.25384862722628365    0.30636609234980716    0.3672066942723431    
  0.41012076787425716    0.4101180825517041    0.3672125907863998    0.4993418090719145    0.4101173433863383    
  0.31693776020540326    0.2538475055612699    0.23246744701806052    0.253846443128083    0.31693429177165644    
  0.4101207650467776    0.49934620108729577    0.53719141567399    0.4993418090719145    0.6279035072770667    
  0.5371952510456894    0.4101173358410419    0.3063642187244709    0.2530981012421388    0.2530968961011388    
  0.30636699855073163    0.4101180582714874    0.5371914349457273    0.6279007786570211    0.6279035072770667    
  0.6820027638204528    0.6279034902418804    0.49934181697629715    0.36721260713088183    0.2811980526925623    
  0.2529197149121863    0.28119804250220626    0.36721257117727146    0.4993418158122655    0.6279035298526866    
  0.6820027638204528    0.6559279584566998    0.6136838355224744    0.5058793606083105    0.3851254105086646    
  0.3012211281290666    0.27263813757955785    0.3012211108688012    0.3851253639286828    0.5058793729452031    
  0.613683860318208    0.6559279584566998    0.613683832105484    0.6136839086904939    0.5385759866308503    
  0.42516780316821673    0.32606085286575726    0.2728497478488578    0.2728493134665433    0.3260616545187208    
  0.42516645056341806    0.538577928141711    0.613683832105484    0.5058793979373183    0.5385759766645684    
  0.5058813016829962    0.4251667398778276    0.33620689651555175    0.27357092997278043    0.25188628337022156    
  0.27357083945866845    0.3362066663139571    0.42516641989518383    0.5058793979373183    0.3851253853459979    
  0.42516777214099405    0.4251667117112972    0.3851251870722557    0.326060945506169    0.27357018250817317    
  0.2445479368700663    0.24454660662164346    0.27357083481945815    0.3260616782175409    0.3851253853459979    
  0.3012211280188514    0.3260608277081141    0.3362068753022804    0.32606091076904065    0.30122129284299953    
  0.2728514336718401    0.25188480088534615    0.2445479441571423    0.25188628569362626    0.27284930989115747    
  0.3012211280188514    0.2726381416468688    0.27284972321053447    0.2735709270682353    0.273570198309493    
  0.2728514372893428    0.27263460760407265    0.2728514248810416    0.27357015987238237    0.2735709335284834    
  0.27284973023058684    0.2726381416468688    0.30122114401152345    0.2728492938307029    0.25188628400927415    
  0.24454793676319458    0.25188480136150354    0.2728514520031529    0.3012212843311385    0.3260609267388827    
  0.336206876878521    0.32606083259959595    0.30122114401152345    0.38512538697491633    0.32606164158986756    
  0.2735708371026364    0.24454660137656054    0.24454796601776854    0.2735701826636511    0.3260609161904524    
  0.3851251700821797    0.4251667234440443    0.4251678051875912    0.38512538697491633    0.5058793731485859    
  0.42516643013138444    0.33620665282277384    0.27357084794776443    0.2518862864763063    0.27357092701596086    
  0.3362068797029781    0.42516673008483247    0.5058812685170578    0.5385760178614858    0.5058793731485859    
  0.6136838418661271    0.5385779062665617    0.4251664303959209    0.3260616667502949    0.27284930985535105    
  0.2728497267879325    0.3260608423366781    0.42516779162832197    0.5385760022970644    0.6136838944637406    
  0.6136838418661271    0.6559279584566998    0.6136838355224744    0.5058793606083105    0.3851254105086646    
  0.3012211281290666    0.27263813757955785    0.3012211108688012    0.3851253639286828    0.5058793729452031    
  0.613683860318208    0.6559279584566998    0.5119065845497086    0.5146338608259577    0.4932308915618028    
  0.42691055664310534    0.35758826364950724    0.3299807644647436    0.35758825026711344    0.4269105003317287    
  0.4932308901555608    0.51463382828578    0.5119065845497086    0.5146338318951363    0.5146127359964262    
  0.5035818422663887    0.45272881060380754    0.379176049492477    0.3297673989624093    0.3297701399231768    
  0.3791747863161495    0.45272559055934575    0.5035796716606991    0.5146338318951363    0.4932309256892864    
  0.5035818292337619    0.493252336660553    0.45272035109494124    0.3869157447691909    0.3296405328253581    
  0.3079571650344651    0.32963918125317476    0.3869188978315967    0.4527255811391064    0.4932309256892864    
  0.4269105321862835    0.45272877455224    0.45272036149381    0.42690230358328113    0.3791742790740054    
  0.32964389144998757    0.3001080892573461    0.3001100847994897    0.3296391640200956    0.3791748173654259    
  0.4269105321862835    0.3575882414208586    0.3791760177605215    0.3869157268573992    0.37917425067690924    
  0.3575985861885603    0.3297708697139778    0.30795220978784316    0.300108095516548    0.3079571811470793    
  0.32977015046547703    0.3575882414208586    0.3299807842688518    0.32976737777967396    0.32964051809745176    
  0.32964390701932034    0.3297708743728803    0.3299663608918953    0.3297708510869962    0.3296438836106702    
  0.32964052410563977    0.3297673965300433    0.3299807842688518    0.3575882728520131    0.3297701431758338    
  0.30795717812415063    0.30010808275508705    0.30795221438804576    0.3297708856014255    0.3575985839482423    
  0.3791742470243799    0.38691572788760414    0.3791760276152416    0.3575882728520131    0.4269105279166152    
  0.3791747886576041    0.3296391666949326    0.30011008624468893    0.30010811235178375    0.3296439131928483    
  0.3791742464256008    0.42690231828230724    0.4527203315686579    0.4527288157927408    0.4269105279166152    
  0.4932309206563968    0.45272557319837675    0.38691890358645775    0.329639170738743    0.307957198877899    
  0.329640504830794    0.38691572824007997    0.4527203363737883    0.4932523369397634    0.5035818370756009    
  0.4932309206563968    0.5146338440429398    0.5035796365380996    0.4527255836507696    0.3791748163093856    
  0.3297701409343367    0.32976738638031305    0.3791760271511034    0.4527287971027741    0.5035818330689174    
  0.5146127449321826    0.5146338440429398    0.5119065845497086    0.5146338608259577    0.4932308915618028    
  0.42691055664310534    0.35758826364950724    0.3299807644647436    0.35758825026711344    0.4269105003317287    
  0.4932308901555608    0.51463382828578    0.5119065845497086    0.2557490408290674    0.3060741243278968    
  0.41212247211148906    0.46102255403152254    0.43445419184539763    0.4131392824646904    0.43445416637845385    
  0.46102248383510225    0.41212245920947327    0.3060741244673022    0.2557490408290674    0.30607411497539916    
  0.30600843807051725    0.3844040435791946    0.4536760293121119    0.4456661319392978    0.4114083352766931    
  0.4114229603904136    0.4456542154698651    0.4536590973851034    0.3844038550980939    0.30607411497539916    
  0.41212249270491275    0.3844040253150905    0.41220588870273445    0.4536434819293072    0.44729966665273496    
  0.4087025878222742    0.3891436390959288    0.40870026286592004    0.4473262049876724    0.4536591038056534    
  0.41212249270491275    0.46102252717691394    0.45367599822692783    0.45364347033409574    0.4609814210250721    
  0.44565227816129693    0.4087356094929161    0.3803436246121786    0.38035354094051876    0.4087002535236949    
  0.4456542637340661    0.46102252717691394    0.4344541742445192    0.4456661042106969    0.44729964612432116    
  0.44565226058042173    0.43450713325644347    0.41141683187502787    0.3891149647320236    0.3803436258261301    
  0.38914365585082583    0.41142294584280203    0.4344541742445192    0.4131393187037273    0.4114083173503916    
  0.4087025753920328    0.40873561663380464    0.41141683441624505    0.4130857986329441    0.4114168123455859    
  0.40873559383912983    0.4087025906395325    0.41140833324428044    0.4131393187037273    0.4344542060032048    
  0.41142295151937575    0.38914366198709566    0.3803436253496824    0.38911498010318546    0.41141684819779023    
  0.4345071316027913    0.44565225976940426    0.44729964223068264    0.44566610989651234    0.4344542060032048    
  0.46102252098557067    0.4456542261635044    0.40870025077413097    0.3803535336002529    0.38034365302104955    
  0.4087356233969091    0.4456522532200303    0.4609814283345138    0.4536434729064342    0.45367603891180713    
  0.46102252098557067    0.41212248415399266    0.4536590919375674    0.4473262013391377    0.40870024754125406    
  0.38914366875672995    0.40870257179045244    0.4472996416109667    0.4536434474509491    0.4122058484753858    
  0.3844040536634842    0.41212248415399266    0.30607412373830417    0.3844038395982967    0.45365911322583685    
  0.44565424394836145    0.4114229531709347    0.41140832711210557    0.44566611712449405    0.4536760123922433    
  0.3844040545742007    0.30600842883416374    0.30607412373830417    0.2557490408290674    0.3060741243278968    
  0.41212247211148906    0.46102255403152254    0.43445419184539763    0.4131392824646904    0.43445416637845385    
  0.46102248383510225    0.41212245920947327    0.3060741244673022    0.2557490408290674    0.08958663669343853    
  0.1409179929947207    0.3049180752347814    0.4671744864402758    0.5006833124630469    0.4902974679859542    
  0.5006832789217205    0.4671744601306556    0.30491807035331053    0.14091799263712634    0.08958663669343853    
  0.14091798327120605    0.1408787125201092    0.252444899926852    0.42167121818639164    0.49675138499350047    
  0.48668335138843843    0.48670604802499173    0.4967381925494094    0.4216259112333458    0.2524696522179388    
  0.14091798327120605    0.3049181094213187    0.2524448793493139    0.3050091969616737    0.4216255630132106    
  0.49050672097965925    0.48083033369765243    0.465208749227702    0.4808178730974277    0.4905741131103784    
  0.4216259093926022    0.3049181094213187    0.4671744747250107    0.42167116747920386    0.42162553429588195    
  0.46712059017030194    0.4967230747134735    0.48089660559508046    0.45535634498751987    0.45538446405987393    
  0.48081786838490786    0.49673822777252064    0.4671744747250107    0.5006832951376318    0.4967513617643176    
  0.4905067161262904    0.4967230450583301    0.5007665336935025    0.4866978400243432    0.46515052648991834    
  0.455356367725518    0.46520876967050206    0.4867060528142005    0.5006832951376318    0.49029748914932636    
  0.48668333189653945    0.4808303235023769    0.48089662649656806    0.4866978657616977    0.4902123489607016    
  0.4866978500857135    0.48089656572661504    0.4808303428983209    0.4866833322974498    0.49029748914932636    
  0.5006833312373289    0.486706034605565    0.4652087632452217    0.45535636822704256    0.4651505379002933    
  0.486697880505074    0.500766520426651    0.496723036098516    0.4905067019762967    0.49675138926056167    
  0.5006833312373289    0.46717448225425623    0.4967381941201171    0.48081788003971415    0.4553844556766307    
  0.45535638626606184    0.48089661926259253    0.4967230316406307    0.46712057470525487    0.42162554993651413    
  0.4216712204897228    0.46717448225425623    0.30491809879526705    0.42162591001047733    0.490574093618136    
  0.4808178817575063    0.46520877647352304    0.48083032561370875    0.490506719337069    0.42162555490983994    
  0.305009175634552    0.25244491877753467    0.30491809879526705    0.14091798535264813    0.2524696418317518    
  0.4216259245279002    0.49673822259591893    0.48670603908024973    0.486683331939759    0.49675136971736794    
  0.4216711920476812    0.25244491022611665    0.14087870102507802    0.14091798535264813    0.08958663669343853    
  0.1409179929947207    0.3049180752347814    0.4671744864402758    0.5006833124630469    0.4902974679859542    
  0.5006832789217205    0.4671744601306556    0.30491807035331053    0.14091799263712634    0.08958663669343853    
  0.04970079669542628    0.09265110728810587    0.25959806929675283    0.46330738583179226    0.5263446311847436    
  0.5218397670847695    0.5263446078079695    0.46330733162504834    0.2595980609725076    0.0926511140395934    
  0.04970079669542628    0.09265110715721535    0.09264273404501311    0.20214025238816236    0.40166788090032124    
  0.5147380069517136    0.5174090109104592    0.5174188320433204    0.5147410285249902    0.40160159369535636    
  0.20218380118727422    0.09265110715721535    0.2595980734046974    0.20214026052188638    0.2596625179840954    
  0.4016181557546896    0.5047825055704421    0.510162889765113    0.49663452835013294    0.5101454010739983    
  0.5048641873831771    0.4016015987180432    0.2595980734046974    0.4633074025326623    0.4016678521439395    
  0.4016181453615549    0.46327776318052605    0.5147055389921461    0.510244161727247    0.48629733850973533    
  0.4863375776602498    0.5101454232221034    0.5147410303865702    0.4633074025326623    0.5263446350722197    
  0.5147379970854936    0.5047824897167824    0.514705517598409    0.5264175892310583    0.5174184545893914    
  0.4965653704303484    0.4862973498031932    0.496634527918954    0.5174188518593607    0.5263446350722197    
  0.5218398231845031    0.5174090187023298    0.510162879399538    0.5102441853722587    0.5174184640027196    
  0.5217647294657564    0.5174184513643916    0.5102441305769265    0.5101629126200767    0.5174090254775863    
  0.5218398231845031    0.5263446464742569    0.5174188107344232    0.4966345428756892    0.486297344023148    
  0.4965653854796702    0.5174184666892379    0.5264176103007349    0.5147055257879972    0.504782465605914    