#     DFTpy    
  CRYSTAL 
    
  PRIMVEC    
  1.5350049795289646    -2.658706614415391    0.0    
  1.5350049795289646    2.658706614415391    0.0    
  0.0    0.0    5.189979090275862    
  PRIMCOORD    
  2    1    
  Si    1.5350049795289646    0.8862355381384637    1.2974947725689654    
  Si    1.5350049795289649    -0.8862355381384637    3.8924843177068955    
  BEGIN_BLOCK_DATAGRID_3D    
  3d_datagrid_density    
  BEGIN_DATAGRID_3D#0    
  15    15    23    
  0.0    0.0    0.0    
  1.5350049795289646    -2.658706614415391    0.0    
  1.5350049795289646    2.658706614415391    0.0    
  0.0    0.0    5.189979090275862    
  0.07118927697672234    0.07380823945439449    0.08193857016423617    0.09538700020295232    0.11256684540622929    
  0.13033651649590422    0.1439435563712598    0.14900473943297643    0.14394353996620118    0.1303364972007176    
  0.11256684789752049    0.09538699482386681    0.08193857736833995    0.07380823934604344    0.07118927697672234    
  0.07380826563930207    0.07381159673062568    0.07920932006484224    0.09013173997490147    0.10572019361480137    
  0.12367046581472839    0.13993350492252454    0.14959137011645723    0.14959222503648356    0.13993439707925184    
  0.12366999588319634    0.10572158931726033    0.0901285118973296    0.07921315258028816    0.07380826563930207    
  0.08193859890556408    0.0792093384292425    0.08193774611137221    0.09013097579780407    0.10342210531133643    
  0.12035312857842712    0.13773361711775903    0.15089161241128435    0.15577598202576537    0.15088868537886    
  0.13773570338004215    0.12035000676020066    0.10342623705929936    0.09012849894967868    0.08193859890556408    
  0.09538700024602365    0.09013172296906925    0.09013097406982981    0.09538766602670042    0.10572049524558205    
  0.12035247315046402    0.13705586449027474    0.1519495557080588    0.16081138348222007    0.16081604744869196    
  0.15194696400901303    0.13705874902966206    0.12034997789797944    0.10572157869368382    0.09538700024602365    
  0.11256684987655083    0.10572016775879692    0.10342209320949948    0.10572050044299292    0.11256589576905848    
  0.1236709703512535    0.13773410377437223    0.15194777896981942    0.1628328988861352    0.1669988507919715    
  0.16283296354717777    0.15194698114645608    0.1377356894847847    0.12366998759457572    0.11256684987655083    
  0.130336537992799    0.12367044861188717    0.12035310534561758    0.12035249789100205    0.12367097588036527    
  0.13033699034551122    0.13993162467617407    0.15089360791708495    0.16081037315210855    0.16700461449796852    
  0.1669988692527607    0.16081607178768945    0.1508886570513364    0.1399344258850354    0.130336537992799    
  0.14394357488277382    0.1399335102607763    0.13773360146889524    0.13705590599372358    0.1377341458531252    
  0.13993162268708204    0.1439473296197793    0.14958894834856487    0.1557783049473495    0.1608103648637647    
  0.16283289811441132    0.1608114055319332    0.15577602529014495    0.14959223200589908    0.14394357488277382    
  0.1490047561679897    0.14959134971840715    0.15089156484647445    0.15194957329604347    0.15194779759636937    
  0.15089359809834357    0.14958891567858862    0.14900621638018965    0.14958895561155305    0.15089360228498905    
  0.15194778969623096    0.15194954792195142    0.150891568455507    0.14959132987014973    0.1490047561679897    
  0.14394356902346203    0.1495922553667452    0.1557760070802378    0.16081141213770855    0.16283290821614016    
  0.16081036675912286    0.15577829018214323    0.14958896890594184    0.1439472995595282    0.13993166454881764    
  0.1377341370122972    0.13705589790316317    0.13773357519454102    0.13993353679584505    0.14394356902346203    
  0.13033653846483825    0.13993441117063626    0.15088866134758816    0.16081606308785099    0.1669988705022396    
  0.1670046043938464    0.16081036354028377    0.15089359655743412    0.13993162484779986    0.13033697930262592    
  0.12367095977807158    0.12035249298438845    0.12035311020499355    0.12367045794771041    0.13033653846483825    
  0.1125668507222788    0.12366996671074461    0.13773569929897872    0.1519469511388814    0.16283294314284102    
  0.1669988419739239    0.16283289890144925    0.1519477718052577    0.13773413162732517    0.1236709637314727    
  0.11256589291882274    0.1057205114030058    0.10342209375169208    0.10572018184515859    0.1125668507222788    
  0.09538699703912357    0.10572159266103784    0.12034999659058472    0.13705875360577224    0.15194695867553318    
  0.16081606486221156    0.16081138110377044    0.15194956519504815    0.13705588430967625    0.12035247389148562    
  0.10572050750372393    0.0953876863851797    0.09013095777387854    0.09013171477049711    0.09538699703912357    
  0.08193859480612035    0.09012849756162312    0.10342623688879363    0.1203499853261312    0.13773572465712172    
  0.1508886813835305    0.1557760203243393    0.15089158912394843    0.13773358664629864    0.12035313226096843    
  0.10342211279091541    0.09013097964490734    0.08193774215284459    0.07920933648424174    0.08193859480612035    
  0.07380826839001414    0.07921316899757819    0.09012850294291926    0.1057216151491048    0.12366998060767871    
  0.13993442173892262    0.1495922540197992    0.14959136730651373    0.1399335052220162    0.12367045402967092    
  0.10572017824364394    0.09013173993748173    0.07920933835214836    0.07381159739366266    0.07380826839001414    
  0.07118927697672234    0.07380823945439449    0.08193857016423617    0.09538700020295232    0.11256684540622929    
  0.13033651649590422    0.1439435563712598    0.14900473943297643    0.14394353996620118    0.1303364972007176    
  0.11256684789752049    0.09538699482386681    0.08193857736833995    0.07380823934604344    0.07118927697672234    
  0.07448270223112077    0.07747905931671092    0.08663312761005687    0.10172697696862876    0.12107422813686278    
  0.14109638278275935    0.1564455008189762    0.1621850424936246    0.1564461197586609    0.1410953074046875    
  0.12107466340665492    0.10172498870922198    0.08663344613113237    0.07747979575064191    0.07448270223112077    
  0.07747981061170015    0.07747627286808731    0.08221726571425884    0.0917136342678662    0.10519227255628764    
  0.12063484997615473    0.13446946245258334    0.14258184216120626    0.14258097517598226    0.13446980031501463    
  0.12063508900819347    0.10519242271453715    0.09171644573445163    0.08221368545672593    0.07747981061170015    
  0.08663346985246127    0.08493861554904915    0.08663483472936484    0.09171413416165052    0.09988111051783    
  0.11023754477644356    0.12087103851714909    0.12883885130989486    0.13175933665302453    0.1288402963938622    
  0.12086947692257362    0.1102393429034562    0.09987760174132952    0.09171644274331518    0.08663346985246127    
  0.10172498250612942    0.10000887433759395    0.10000576178839005    0.10172710351702123    0.10519010253168767    
  0.11024056434880757    0.11623811058517863    0.12179355822535119    0.12514521563495123    0.1251455249079766    
  0.121792163654456    0.11624004336551313    0.11023930136197663    0.10519240544199451    0.10172498250612942    
  0.12107467349180462    0.12181445039260277    0.12219727443563143    0.12181410489921386    0.12107674534891352    
  0.12063307698093724    0.12087067714367838    0.1217920661542571    0.12293732439886677    0.1234783966058282    
  0.1229375710459369    0.12179220092504021    0.12086948279688302    0.12063508213716598    0.12107467349180462    
  0.14109533212341857    0.14724915555737741    0.15113562008026554    0.15113815986734386    0.14724634193037692    
  0.1410955635135984    0.1344712268164298    0.1288382193157234    0.1251479398118165    0.12347441816992862    
  0.12347840474394227    0.125145526103949    0.12884027934346484    0.13446980835990116    0.14109533212341857    
  0.1564461591427373    0.1705374496337557    0.18126402225373198    0.18533964307661102    0.1812633392092291    
  0.17054080067699173    0.156443392734026    0.14258300782521438    0.1317568350739162    0.12514793626186935    
  0.12293731799914605    0.12514523503514483    0.13175936456576728    0.14258097067988143    0.1564461591427373    
  0.16218504405990913    0.18464993970047094    0.20441725646103456    0.21600763251236477    0.2160081944854935    
  0.2044158338967686    0.18465090100963275    0.16218432824538254    0.14258300976432658    0.12883820655142827    
  0.12179207026393946    0.12179357104727945    0.128838824379385    0.1425818202982613    0.16218504405990913    
  0.156445518454655    0.18464895256408345    0.2131511476314096    0.2341944337100777    0.24194433902813098    
  0.23419540849099968    0.2131483451186738    0.18465093263588753    0.15644335435624582    0.1344712610246146    
  0.12087071691701488    0.11623813107162309    0.12087101925239939    0.134469477237193    0.156445518454655    
  0.14109640473812096    0.17053927158978438    0.20441676257996305    0.23419064569709144    0.251572475483966    
  0.2515702332479935    0.23419539807862869    0.2044158265980368    0.17054079894171942    0.14109554000328403    
  0.1206330770022568    0.11024058850281834    0.11023754849953268    0.12063484545938702    0.14109640473812096    
  0.12107421994771778    0.14724734206956716    0.18126317938445607    0.21601067280455882    0.2419453649744165    
  0.25157246233495034    0.24194428383202243    0.21600819584401068    0.18126332398075592    0.1472463350651908    
  0.1210767468263924    0.10519009875304654    0.09988109302001394    0.1051922655538771    0.12107421994771778    
  0.10172696892657775    0.1218145191441796    0.1511390934274759    0.18533569368273842    0.21601065512247553    
  0.23419065453076435    0.2341944019075085    0.21600764385212612    0.18533959790242435    0.15113812495123366    
  0.1218141042454248    0.1017271287840731    0.09171410527972292    0.09171361238997007    0.10172696892657775    
  0.08663315138379904    0.10000839089927756    0.12219472283023838    0.1511391107109048    0.1812632051089543    
  0.20441675368727263    0.2131511640238826    0.20441727417605504    0.18126403835766502    0.15113565489712322    
  0.12219729526065408    0.10000577380750156    0.08663482705583342    0.08221727543143856    0.08663315138379904    
  0.07747907985651732    0.08493782300824565    0.10000839272458042    0.12181455148761106    0.14724733787822622    
  0.1705392859980604    0.18464895636547077    0.18464996561919517    0.1705374294208623    0.14724918399060485    
  0.12181444769779776    0.10000889460334281    0.08493861707685604    0.07747626975509563    0.07747907985651732    
  0.07448270223112077    0.07747905931671092    0.08663312761005687    0.10172697696862876    0.12107422813686278    
  0.14109638278275935    0.1564455008189762    0.1621850424936246    0.1564461197586609    0.1410953074046875    
  0.12107466340665492    0.10172498870922198    0.08663344613113237    0.07747979575064191    0.07448270223112077    
  0.08397294090544409    0.08797476616782231    0.10003082016310476    0.11990987503318161    0.14572868874814562    
  0.1724754236614644    0.1929153327784651    0.2006036852177245    0.19291678534081305    0.17247520980420133    
  0.14572882129192344    0.11991046377989537    0.10003122662784379    0.08797533940083722    0.08397294090544409    
  0.08797536223607356    0.08797587536134509    0.0931532730047005    0.10340282596078856    0.11799438859968475    
  0.13470895253327936    0.14962696991483757    0.15845735949864895    0.15845946610247452    0.1496240875077002    
  0.1347108294038873    0.11799295128559249    0.10340292674902102    0.0931522565367504    0.08797536223607356    
  0.10003125049329212    0.0989239315830338    0.10002982124286194    0.10340297980520517    0.10897398951325847    
  0.11623170674941993    0.12379421064125076    0.12958704987661834    0.13175993546546766    0.1295868738159085    
  0.1237953662683345    0.11623073197044527    0.10897519161690067    0.10340291390574803    0.10003125049329212    
  0.11991046778853841    0.12116268131884371    0.12116407981285851    0.11991075502680225    0.11799387081951156    
  0.11623046629840754    0.11532114520499773    0.11526145205263473    0.11547584539780982    0.11547670598906523    
  0.11526114449678714    0.11532127056224067    0.11623071156709439    0.11799293517387245    0.11991046778853841    
  0.14572882710914173    0.15398272723108242    0.157073322969322    0.15398205916345767    0.14572763331590963    
  0.13471081843394772    0.12379495267458028    0.1152616031404815    0.11001901575220324    0.10825480183286179    
  0.11001841612772069    0.11526116026320968    0.12379534189383216    0.13471083770012457    0.14572882710914173    
  0.17247525258873123    0.19267409122374168    0.20462353381099568    0.20462097758551465    0.19267722345514704    
  0.17247400068483262    0.14962595747585775    0.12958573241163454    0.11547635493346406    0.10825367515793595    
  0.10825482048630451    0.1154767214244943    0.12958683649601677    0.1496240455803133    0.17247525258873123    
  0.19291681852394132    0.22773740845482646    0.2532167282263472    0.2624762866006453    0.25321855949614996    
  0.22773596515899538    0.1929172885150167    0.15845785032720136    0.1317614263674048    0.11547636273266937    
  0.11001902835846403    0.11547585842657888    0.13175996435718215    0.15845945425724497    0.19291681852394132    
  0.20060368595467948    0.2486336460779051    0.2886234639375582    0.30985769869792745    0.30985757845143647    
  0.28862295417798955    0.24863576561568793    0.20060399806293774    0.1584578378174005    0.1295857363032192    
  0.1152616104807568    0.11526143696243557    0.1295870026723581    0.15845732620086808    0.20060368595467948    
  0.19291537519043825    0.24863720450825583    0.30132486302631656    0.33423099892492886    0.34428455140252756    
  0.33423054975307626    0.30132534661842053    0.24863578604418607    0.19291727151856414    0.14962597585366244    
  0.12379497196406276    0.11532117149624463    0.1237942108648812    0.1496269757382734    0.19291537519043825    
  0.1724754644676    0.2277376293244829    0.2886199491176151    0.3342326985571243    0.3544481723480453    
  0.35445291443113774    0.33423052823439453    0.28862294954156253    0.2277359516518331    0.17247398254014676    
  0.13471081358485446    0.11623048328469027    0.11623167084610007    0.13470895191660529    0.1724754644676    
  0.14572869661131208    0.19267498233986788    0.25321869390790314    0.30985599078598547    0.3442863697155894    
  0.3544481242737514    0.3442844923078043    0.30985758788856915    0.25321852598392136    0.19267721237805188    
  0.1457276264330692    0.11799388138144114    0.10897397175924717    0.11799436988523686    0.14572869661131208    
  0.11990987836839674    0.15398331165746224    0.20462011992384865    0.2624791443283887    0.30985601400351204    
  0.33423268851357935    0.33423093866946624    0.3098576947045449    0.2624762677986995    0.20462093039006823    
  0.15398206960922295    0.11991078326929021    0.10340294808394195    0.10340281632304611    0.11990987836839674    
  0.10003084799963728    0.12116240025806628    0.15707601882842598    0.20462015001754313    0.25321872847571075    
  0.28861995994697026    0.3013248671149935    0.28862350117397706    0.25321672769908193    0.2046235676300333    
  0.1570733426827085    0.12116407980399893    0.10002980715267308    0.09315328159560371    0.10003084799963728    
  0.08797478312123097    0.09892531650293554    0.12116240071018657    0.1539833103617915    0.19267497483363716    
  0.2277376675276974    0.24863718815269845    0.248633647796367    0.2277373973244116    0.19267410247290118    
  0.15398273471685373    0.12116270826061248    0.0989239308378601    0.08797586505736708    0.08797478312123097    
  0.08397294090544409    0.08797476616782231    0.10003082016310476    0.11990987503318161    0.14572868874814562    
  0.1724754236614644    0.1929153327784651    0.2006036852177245    0.19291678534081305    0.17247520980420133    
  0.14572882129192344    0.11991046377989537    0.10003122662784379    0.08797533940083722    0.08397294090544409    
  0.09757018134827475    0.10305689058854607    0.11948129790236471    0.14662523902281097    0.18211234283515185    
  0.21854538053933015    0.24582437130762677    0.25594151386430847    0.24583126210970635    0.21854661900962633    
  0.1821060366068338    0.14662884518116678    0.11948259794171326    0.10305653720355731    0.09757018134827475    
  0.10305655608163952    0.10305823077092179    0.10948863947751802    0.12213635638108547    0.14018388354841674    
  0.1608103682723084    0.17917040557587077    0.19021190675314614    0.1902093798452914    0.179167359605654    
  0.16080925878983918    0.14018778590281492    0.1221337886707526    0.10948817468627728    0.10305655608163952    
  0.11948264368539395    0.11867345304102477    0.11948044804788774    0.12213195338153056    0.1268638889573385    
  0.13314224859331442    0.1396845766529075    0.14487704905947124    0.1469286170658425    0.14487741367923843    
  0.13968632073264814    0.1331451339851918    0.12685901325172708    0.12213378127520395    0.11948264368539395    
  0.1466288317608513    0.1506114688902711    0.15061425007059875    0.14663019254237203    0.14018399731152734    
  0.1331449215018708    0.12712272768630406    0.12310355040251965    0.12123034325492157    0.1212299397426475    
  0.1231064574961526    0.12711737307546458    0.1331451111421343    0.1401877604397753    0.1466288317608513    
  0.18210604628714416    0.19795861667356077    0.20384136746810008    0.19795774665855506    0.18210996173950952    
  0.16080899123983278    0.13968240664707768    0.12310638479459282    0.11286016748867272    0.10939812364111    
  0.11285795712222968    0.12310646417011428    0.1396862988179714    0.16080923056517588    0.18210604628714416    
  0.2185466797594053    0.252596890122336    0.2717830077024466    0.27178228040181146    0.2525881171292139    
  0.21855014829941535    0.17917202771918148    0.14487587357469672    0.12122978843666675    0.10939658776617314    
  0.1093981265688226    0.12122996542329442    0.14487739434655564    0.1791673401378813    0.2185466797594053    
  0.24583131412305867    0.29846521311007645    0.3317011635231479    0.3419775566181527    0.33171575199530223    
  0.2984642639820479    0.24582276451902837    0.19021120481775908    0.14693008012438047    0.12122980372151676    
  0.1128601807227661    0.12123037371934556    0.14692863304208878    0.1902093965833784    0.24583131412305867    
  0.2559415000423748    0.32294452452776634    0.36293287416507064    0.37280168868657115    0.37279167681651204    
  0.3629334726067247    0.32295490504709917    0.25594080621384285    0.19021117475571409    0.14487587343532546    
  0.12310639924315712    0.12310354565607629    0.14487699588952385    0.19021186615331653    0.2559415000423748    
  0.24582439817732385    0.32294770508880116    0.370198820204657    0.3701591281822582    0.36073881304640243    
  0.3701578812205329    0.37019440486016625    0.3229549542955255    0.2458227308758474    0.17917205266667585    
  0.13968244175455527    0.1271227518476708    0.1396845741105127    0.17917040938392836    0.24582439817732385    
  0.21854541505422215    0.2984724858700933    0.36293597780812453    0.3701543557981861    0.3455391144061492    
  0.3455489383350926    0.37015786487581764    0.362933470738589    0.2984642221268931    0.21855014784166193    
  0.16080898450271514    0.13314494350875894    0.13314223911156137    0.16081035369963065    0.21854541505422215    
  0.1821123437343004    0.25258836594217493    0.33170556515150224    0.37278570381368253    0.3607552886746904    
  0.3455390772815928    0.3607387437946717    0.372791714620293    0.3317156816540637    0.2525880974564732    
  0.18210995857785742    0.1401840063236625    0.12686385574011552    0.14018385519395463    0.1821123437343004    
  0.14662521479334245    0.19796118603141447    0.2717832159918818    0.3419874846113237    0.37278573344610433    
  0.3701543632931441    0.3701590741990784    0.37280171433466397    0.34197751406848653    0.2717822260491279    
  0.19795773233699787    0.14663020450065992    0.12213192735757435    0.12213632089423901    0.14662521479334245    
  0.11948132328907783    0.15061486418329215    0.20383769010291922    0.2717832435144239    0.3317055939028601    
  0.36293598054126    0.3701988659039792    0.3629328907132883    0.33170117865707044    0.27178303020756894    
  0.20384140137144163    0.15061426702690026    0.1194804654079119    0.10948864976882408    0.11948132328907783    
  0.10305690988979568    0.11867306532380176    0.15061486903544524    0.19796120330884884    0.2525883635808126    
  0.2984725047981261    0.32294770590413135    0.3229445504009195    0.29846517469178313    0.2525968994674449    
  0.19795861769305242    0.1506114977278587    0.11867345507229866    0.10305821122760576    0.10305690988979568    
  0.09757018134827475    0.10305689058854607    0.11948129790236471    0.14662523902281097    0.18211234283515185    
  0.21854538053933015    0.24582437130762677    0.25594151386430847    0.24583126210970635    0.21854661900962633    
  0.1821060366068338    0.14662884518116678    0.11948259794171326    0.10305653720355731    0.09757018134827475    
  0.11126456379114695    0.11830647577622642    0.13944391432235434    0.1743788707146024    0.2196347655784626    
  0.2645561283424345    0.29610923383950405    0.30717625851614105    0.2961341460426982    0.2645585241077315    
  0.21961388484952482    0.17438070057434335    0.13944912560243702    0.11830637662588578    0.11126456379114695    
  0.11830639709740275    0.1183113057947951    0.1263583529611863    0.14201973715548202    0.16423633353104017    
  0.18951628669482398    0.21182351382246087    0.22509919552320234    0.22509785123877404    0.21180538246843883    
  0.18951601730037676    0.16425283505342328    0.14201806994912827    0.12635596847370326    0.11830639709740275    
  0.13944915728005652    0.1386740125552089    0.1394405299449824    0.142020448945628    0.1467066472103756    
  0.15299666181530044    0.15962581794313335    0.16501243766666854    0.16717554150344166    0.16501223159395997    
  0.1596412069031229    0.15299587516940688    0.14669182586247453    0.14201805675675144    0.13944915728005652    
  0.1743806965919061    0.180602357872405    0.18061335851109842    0.17437931045811028    0.16423664045357173    
  0.15299230540940617    0.1431695646636708    0.13635855606862132    0.13301752059208888    0.13301820830703623    
  0.13636028097070554    0.14315302071777214    0.15299586517913874    0.16425283531246193    0.1743806965919061    
  0.21961389481444205    0.24178347076441328    0.24992075071980316    0.24178394952884938    0.21963183347549947    
  0.18952123944312657    0.15962511750693487    0.1363598454640315    0.12207659449248988    0.11726169387506678    
  0.1220741973096633    0.13636026858219233    0.15964115908602283    0.18951598299946387    0.21961389481444205    
  0.2645585853239175    0.30714301142513256    0.3287194148371733    0.3287054759948981    0.3071183115505016    
  0.26455575103141993    0.21182358249383876    0.16501222795965656    0.1330158972452994    0.11726223483491911    
  0.1172616915525576    0.13301824495272932    0.16501221942993777    0.2118053771783015    0.2645585853239175    
  0.2961341880620659    0.35187876365248616    0.3726149066339243    0.37412836222881257    0.3726580595872247    
  0.3518815687284895    0.29611175819519214    0.22509619623293933    0.1671803677868026    0.13301591476143965    
  0.12207661046677055    0.13301753148137413    0.16717556225905347    0.22509786668839146    0.2961341880620659    
  0.30717623967565466    0.36831459302898684    0.3653884153805464    0.33246932811594737    0.3324448487355647    
  0.3653835923287152    0.36834467811833127    0.3071761523012018    0.22509615559813165    0.1650122304265983    
  0.13635982786777245    0.13635854799759498    0.1650124221868502    0.22509916151651302    0.30717623967565466    
  0.2961092755328309    0.3683391378123498    0.35237212792146594    0.2718471178715231    0.23158886989928684    
  0.2718456477449423    0.35236184704503326    0.3683447478006828    0.2961117414193912    0.21182360884587    
  0.15962514385976062    0.14316958344562852    0.15962582021638347    0.21182349830557923    0.2961092755328309    
  0.26455616627763706    0.3518899347305071    0.36539199624610985    0.2718268814363107    0.18673210187943157    
  0.18674416974537902    0.2718456498908252    0.3653836592280814    0.3518815268694534    0.26455575931692005    
  0.18952123886069583    0.1529923130364778    0.15299664772405994    0.18951631175884545    0.26455616627763706    
  0.2196347688785845    0.30711649274784053    0.37264138290286786    0.3324389643725201    0.23162467415601046    
  0.18673206064819256    0.2315888392001943    0.3324448645364099    0.3726580374643875    0.3071182750620675    
  0.21963182656089622    0.16423665273474308    0.14670663485192142    0.16423631917276338    0.2196347688785845    
  0.17437884306252843    0.2417839250673327    0.32872207281247634    0.3741278897592669    0.3324389874586774    
  0.27182685813314694    0.27184705519858454    0.33246929383481305    0.3741283250285634    0.328705428764903    
  0.24178392200505325    0.17437934404490918    0.1420204157783424    0.14201969309650497    0.17437884306252843    
  0.13944392405679215    0.1806099641012077    0.2499135512750348    0.32872212152579466    0.3726413986498702    
  0.36539199464758854    0.352372162968321    0.3653884476387223    0.37261495388401744    0.3287194750765757    
  0.2499208041083216    0.1806133936004624    0.13944052879099642    0.1263583458600591    0.13944392405679215    
  0.1183064915203352    0.13867630784770135    0.18060995805577673    0.24178392748116126    0.3071165058805999    
  0.3518899551373779    0.3683391059799672    0.368314569979598    0.3518787445320887    0.30714301972404584    
  0.24178346295513076    0.18060238815604418    0.13867402617078123    0.11831129336850577    0.1183064915203352    
  0.11126456379114695    0.11830647577622642    0.13944391432235434    0.1743788707146024    0.2196347655784626    
  0.2645561283424345    0.29610923383950405    0.30717625851614105    0.2961341460426982    0.2645585241077315    
  0.21961388484952482    0.17438070057434335    0.13944912560243702    0.11830637662588578    0.11126456379114695    
  0.12017117606595686    0.12815924673803564    0.1522944482984231    0.19237508381026325    0.2437272837086684    
  0.29273949361089796    0.32444866553861756    0.3346231307390108    0.32447924731737954    0.2927458284723193    
  0.2437083413677882    0.19236930014952963    0.15230472727023553    0.12816019021414032    0.12017117606595686    
  0.12816022956891038    0.12816034750675914    0.13731113596134803    0.15502194728237398    0.18010274686232008    
  0.20859975211667017    0.23335968249434963    0.24766541101789463    0.24765717053065617    0.23334257511031117    
  0.20859784734369424    0.1801171540850961    0.15502653437710648    0.1373002551495066    0.12816022956891038    
  0.1523047625420724    0.15143281583352342    0.15229460672932857    0.1550263333877305    0.15979138291245698    
  0.16634905203292083    0.17348053414502124    0.17919023684134586    0.18142124218122946    0.17919344710590318    
  0.1734931854496396    0.16635269915021597    0.15977244502390692    0.1550265195105746    0.1523047625420724    
  0.1923693038937955    0.19972296975830492    0.19973647610054715    0.19236942384835642    0.18010217102875156    
  0.16634482645731669    0.15446089499212934    0.1462237269092656    0.14204710657418682    0.14204575033715208    
  0.14622789462627125    0.15443912042600652    0.16635267083176006    0.1801171152631319    0.1923693038937955    
  0.24370834323288318    0.26899241242509375    0.2780870936572173    0.2689884646903514    0.24372603688324226    
  0.2086065385677483    0.17347675584269928    0.1462232929574624    0.12946189976862035    0.12378200486070369    
  0.12945606613606295    0.1462279131444672    0.1734931676246282    0.20859783529000644    0.24370834323288318    
  0.29274584563366984    0.33685096650236535    0.3561530827931067    0.3561453462634008    0.3368288141417846    
  0.2927339077566357    0.23336615211425893    0.1791917587293265    0.14204794601548992    0.1237744655270921    
  0.12378201631004264    0.1420457429888522    0.1791934362272502    0.23334254989453385    0.29274584563366984    
  0.3244792839562399    0.37183781566044793    0.3720144425189247    0.3626707952927871    0.372039837149399    
  0.37185906360805887    0.3244476566557667    0.2476569115455298    0.18142440632312226    0.14204797044723178    
  0.12946192024334238    0.14204712581307782    0.18142122833042212    0.24765718817288568    0.3244792839562399    
  0.3346231511415059    0.37541009342242676    0.32552250361452884    0.2601523984034983    0.26014334204286343    
  0.32551909351316716    0.3754371978359036    0.3346302141731922    0.24765686931283312    0.17919178562665458    
  0.14622327767360405    0.1462237377049667    0.17919021210538708    0.24766535119098407    0.3346231511415059    
  0.3244487022250972    0.3754280953881811    0.2962483261763937    0.17243766190028992    0.12586690537745954    
  0.17244012480429283    0.29623516649412396    0.37543721065610336    0.3244476473691585    0.2333661819786539    
  0.17347678286691995    0.1544609062792373    0.17348053977204267    0.23335969735183684    0.3244487022250972    