#     DFTpy    
  CRYSTAL 
    
  PRIMVEC    
  2.870393211640608    -1.5770500000000003e-10    2.9891844827586207e-10    
  -1.5770500000000003e-10    2.8703932114738175    1.4403336206896555e-10    
  5.46235775862069e-10    2.63246551724138e-10    5.258615993759207    
  PRIMCOORD    
  4    1    
  Si    1.4351966057656174    1.4351966065267427    1.6159424553757893    
  Si    5.32207931659192e-10    -4.925513470965976e-10    1.013365539736122    
  Si    8.162818740216164e-11    3.71993890850367e-10    4.245250451040357    
  Si    1.4351966061959214    1.43519660543642    3.642673541809096    
  BEGIN_BLOCK_DATAGRID_3D    
  3d_datagrid_density    
  BEGIN_DATAGRID_3D#0    
  13    13    23    
  0.0    0.0    0.0    
  2.870393211640608    -1.5770500000000003e-10    2.9891844827586207e-10    
  -1.5770500000000003e-10    2.8703932114738175    1.4403336206896555e-10    
  5.46235775862069e-10    2.63246551724138e-10    5.258615993759207    
  0.8211271970254633    0.7521814648599621    0.5825511298136261    0.3963764395653623    0.257388518046342    
  0.18020780031578013    0.1563658013059685    0.18020779250375338    0.2573885358631882    0.3963764198537564    
  0.5825511375888213    0.7521814166432224    0.8211271970254633    0.7521814186351894    0.6913940811889672    
  0.5415495280901113    0.3756808900408631    0.2501294355128688    0.17923977528823135    0.15705377400988232    
  0.17923975867328043    0.2501294365416396    0.3756808756621143    0.5415494610008176    0.6913940140291236    
  0.7521814186351894    0.582551097546804    0.541549499161322    0.4394469013325563    0.32309624680001964    
  0.2308671025906925    0.1761426736826107    0.1584069585362723    0.17614268368153874    0.23086709376539583    
  0.32309627155355863    0.4394469000105717    0.541549486165265    0.582551097546804    0.39637641855381983    
  0.3756808730862219    0.3230962903254895    0.25984203454528787    0.2055559287369747    0.17080629452043297    
  0.15900702406587597    0.17080630445421086    0.20555593945689773    0.2598420559303337    0.32309626576510636    
  0.37568087103376685    0.39637641855381983    0.25738851137500524    0.2501294614979774    0.23086709079260445    
  0.20555592835176717    0.18127978014379095    0.16420369655049924    0.15808471076165567    0.16420369414753824    
  0.18127978969751457    0.20555591851242616    0.23086708533038358    0.25012942432581686    0.25738851137500524    
  0.1802078119835891    0.17923979559229863    0.17614268042875658    0.17080630793985457    0.16420370238330284    
  0.15865436511026595    0.15648740647217688    0.15865436079074025    0.16420368568620947    0.17080630200307512    
  0.17614268780140918    0.17923976182947945    0.1802078119835891    0.15636578311172253    0.1570538017780072    
  0.15840694989320384    0.15900701497025466    0.15808470016564002    0.15648739431076078    0.15572332075361422    
  0.15648740466234917    0.15808470774795694    0.15900701472616657    0.15840692332282397    0.15705379347508375    
  0.15636578311172253    0.18020779618404112    0.17923977301094382    0.17614267128982677    0.170806312115541    
  0.16420369376703856    0.15865435080725013    0.1564874202320827    0.15865436513786102    0.16420371352026036    
  0.17080630770724403    0.1761426679734221    0.17923976082377052    0.18020779618404112    0.25738852269402357    
  0.2501294368434572    0.23086709408194903    0.2055559073685135    0.18127978493757557    0.16420368402585983    
  0.1580847019380048    0.16420368688377504    0.18127979546843132    0.20555593189848453    0.23086708915097565    
  0.2501294274962146    0.25738852269402357    0.39637640614743047    0.3756808899642648    0.3230962451429153    
  0.2598420325002565    0.20555594354898366    0.17080630237439937    0.15900703566553412    0.17080630711787104    
  0.20555594893738144    0.25984204250542514    0.32309627700158905    0.3756808670539607    0.39637640614743047    
  0.5825511272305406    0.5415495261232458    0.43944689817404264    0.3230962608339679    0.23086708960865748    
  0.176142674328894    0.1584069493574448    0.17614267175300624    0.23086709729542185    0.3230962777312385    
  0.43944690126717434    0.5415495124208193    0.5825511272305406    0.7521814451052753    0.6913940786084528    
  0.5415494730124897    0.3756808804707101    0.25012944076980653    0.1792397786423036    0.15705377495298137    
  0.17923977058293056    0.25012941660233295    0.37568086659957284    0.541549493350511    0.6913940506257764    
  0.7521814451052753    0.8211271970254633    0.7521814648599621    0.5825511298136261    0.3963764395653623    
  0.257388518046342    0.18020780031578013    0.1563658013059685    0.18020779250375338    0.2573885358631882    
  0.3963764198537564    0.5825511375888213    0.7521814166432224    0.8211271970254633    0.7215995696237073    
  0.6825452112505509    0.5645811600480739    0.40542729625340623    0.27141877715247403    0.19333419013568598    
  0.1689340662707251    0.19333419133651233    0.2714187915460542    0.4054272882786595    0.5645811518884442    
  0.68254517890194    0.7215995696237073    0.6825451891730033    0.6440818433304986    0.5329607578002769    
  0.387615968837047    0.2655731347767289    0.1936044415929424    0.1708540661642879    0.19360445285348293    
  0.26557314997859693    0.3876159765620706    0.5329607133350248    0.6440817887756759    0.6825451891730033    
  0.5645811490761001    0.5329607565180307    0.44761197984150264    0.3404559080029025    0.2492778659878674    
  0.19335751377840443    0.17512153099243968    0.19335752545019957    0.24927786653974476    0.3404559161181142    
  0.44761197614207676    0.5329607045230159    0.5645811490761001    0.40542727425720887    0.38761596327556525    
  0.3404559082437855    0.28052755174772104    0.22655881578534354    0.1910488422051003    0.17891552417043194    
  0.19104882785272287    0.22655883393780693    0.28052754535123864    0.3404559085316486    0.38761595247624464    
  0.40542727425720887    0.2714187721760791    0.26557314340180294    0.24927787304859172    0.22655881192557756    
  0.20361948513147352    0.1867864960389024    0.18061650583643968    0.18678650568060526    0.20361947755341864    
  0.22655880561956665    0.2492778667454135    0.2655731273822771    0.2714187721760791    0.1933342057458762    
  0.1936044772068014    0.19335750300363208    0.19104884714387613    0.18678651418045095    0.18248662516944017    
  0.18064182703059667    0.18248662507271787    0.1867865082417453    0.19104882194950804    0.19335751191903564    
  0.19360445609232957    0.1933342057458762    0.1689340513865416    0.17085406964343358    0.17512153556737634    
  0.178915504353157    0.1806164931434089    0.18064180799487056    0.18039024901366582    0.18064180219873469    
  0.18061649466927665    0.17891551301054742    0.17512152103024403    0.17085407313860249    0.1689340513865416    
  0.19333418610275888    0.19360446701670478    0.1933575102086519    0.19104884261627544    0.18678651101989793    
  0.18248663119726674    0.180641826138085    0.18248662772143448    0.18678652478296848    0.1910488406388042    
  0.19335750598473475    0.19360445682345426    0.19333418610275888    0.27141878339929176    0.26557315265907494    
  0.24927786648945918    0.2265588069479987    0.20361948083511114    0.1867864986235098    0.18061648711705094    
  0.18678650087514562    0.20361948001871646    0.22655881475560985    0.24927787035633694    0.26557313435945656    
  0.27141878339929176    0.40542729672436617    0.3876159513405403    0.34045590563929207    0.2805275468861278    
  0.22655882868598823    0.19104883387481136    0.1789155274756246    0.19104883881840173    0.22655882555817033    
  0.2805275239307463    0.3404559132083169    0.38761596764113065    0.40542729672436617    0.5645811339366306    
  0.5329607668596544    0.4476119820360371    0.3404559162337321    0.2492778911474662    0.19335748808626818    
  0.17512154490418042    0.19335750334748894    0.24927786137845467    0.3404559035390156    0.44761197244088435    
  0.5329607389122107    0.5645811339366306    0.6825451946063915    0.6440818617007888    0.5329607328471329    
  0.3876159876691289    0.26557313668884847    0.19360446214727237    0.17085406093508254    0.19360446630829442    
  0.26557313010997774    0.38761593087596447    0.5329607540076218    0.644081825798623    0.6825451946063915    
  0.7215995696237073    0.6825452112505509    0.5645811600480739    0.40542729625340623    0.27141877715247403    
  0.19333419013568598    0.1689340662707251    0.19333419133651233    0.2714187915460542    0.4054272882786595    
  0.5645811518884442    0.68254517890194    0.7215995696237073    0.4148804500635855    0.4476005145803847    
  0.48029486399329735    0.4210911108102666    0.31215306161437645    0.2334837258223426    0.20754296115250898    
  0.2334837256086526    0.3121530903891121    0.4210910989545037    0.4802948730952733    0.44760046022975464    
  0.4148804500635855    0.4476004614336253    0.4700462266174808    0.4819471765854519    0.4150009386583281    
  0.311163097486464    0.23734711036012301    0.2128961088535414    0.23734711856803478    0.3111631038831797    
  0.41500092668532024    0.481947158855459    0.47004619252858826    0.4476004614336253    0.48029484202978046    
  0.48194719568652317    0.45951663600102205    0.38977777455332496    0.3052924527339619    0.2461785678201256    
  0.22627195012925072    0.24617861096500565    0.3052924398585443    0.3897777856349761    0.4595166103353375    
  0.48194715547677414    0.48029484202978046    0.4210910951079925    0.415000917397704    0.3897777823026213    
  0.34345315404154053    0.29196795563472927    0.2544406160419604    0.2411845336560285    0.2544406153683839    
  0.2919679856385494    0.34345318613000336    0.38977778826326764    0.41500091024390784    0.4210910951079925    
  0.31215304991563364    0.3111631131419017    0.3052924528609499    0.29196795182827723    0.27417367301643686    
  0.2584653132540296    0.25212122660463054    0.2584653107782576    0.2741736805251529    0.2919679520739341    
  0.3052924468837249    0.31116307655912007    0.31215304991563364    0.2334837432318452    0.23734712493262797    
  0.2461785973735906    0.25444062116133803    0.2584652983772271    0.2582365511528285    0.2572651441153818    
  0.25823656358593733    0.25846527828481447    0.2544406182599435    0.2461785892432462    0.23734709750564914    
  0.2334837432318452    0.20754295035999495    0.21289612197296715    0.2262719415886364    0.24118450428060298    
  0.2521212270602891    0.2572651307743775    0.2583666314277654    0.2572651333900309    0.25212124204281505    
  0.24118450971380243    0.2262719165229076    0.2128961205008767    0.20754295035999495    0.2334837171512078    
  0.23734712089804674    0.24617858476465287    0.25444061325443307    0.2584653026977692    0.25823656608637596    
  0.25726513708042476    0.2582365763346319    0.25846532543350337    0.2544406131461907    0.24617857737271354    
  0.23734710371745346    0.2334837171512078    0.31215307686290267    0.31116311703164806    0.3052924562437481    
  0.2919679493194751    0.274173675957426    0.25846530144408325    0.25212124518688483    0.2584653061682704    
  0.2741736789593986    0.29196796236469674    0.3052924555254622    0.31116307949139566    0.31215307686290267    
  0.42109111947974515    0.4150009134260413    0.389777766125836    0.3434531630919253    0.2919679711967315    
  0.25444060166700394    0.24118452552497743    0.25444060681561453    0.2919679739303099    0.3434531544000037    
  0.38977778113491884    0.41500091817875623    0.42109111947974515    0.4802948423898153    0.48194718703384715    
  0.4595166369152296    0.389777783342117    0.30529246226317364    0.24617857832143222    0.22627193996235137    
  0.2461785828702887    0.3052924364695916    0.3897777913042892    0.4595166350946838    0.48194714962923035    
  0.4802948423898153    0.4476004805189995    0.4700462460754256    0.4819471616294829    0.4150009456020529    
  0.31116309024326194    0.23734710949863952    0.21289609961137754    0.23734710906366885    0.3111630657381251    
  0.41500089865516643    0.48194715666404075    0.47004620899833527    0.4476004805189995    0.4148804500635855    
  0.4476005145803847    0.48029486399329735    0.4210911108102666    0.31215306161437645    0.2334837258223426    
  0.20754296115250898    0.2334837256086526    0.3121530903891121    0.4210910989545037    0.4802948730952733    
  0.44760046022975464    0.4148804500635855    0.13678201379930385    0.19552380830762123    0.34788891878401756    
  0.4314665895833564    0.37422135408739354    0.29762316174581044    0.26923748157357813    0.2976231571800051    
  0.3742213896289321    0.4314665941153211    0.34788892448620395    0.19552378514432606    0.13678201379930385    
  0.19552380791128013    0.25498977447180504    0.39012213295992687    0.4458317968167132    0.3818374454829943    
  0.30762098791643455    0.28041083253224247    0.3076210053485124    0.3818374526461046    0.4458318280490024    
  0.3901221059386424    0.25498975538065    0.19552380791128013    0.3478889124435007    0.39012212911480487    
  0.46151454932799413    0.46187727760551667    0.39553038069449054    0.3330549678326075    0.3103397767882228    
  0.3330550082563602    0.3955303965434027    0.4618773048761947    0.46151458039376697    0.39012207870341525    
  0.3478889124435007    0.4314665865123966    0.4458318098666622    0.46187730350688955    0.44421206938953783    
  0.4007258905737689    0.3608985643775169    0.3456096773598622    0.3608985631634707    0.40072592006962354    
  0.4442121235971937    0.46187728736605943    0.4458318037657186    0.4314665865123966    0.37422135077498486    
  0.3818374312448588    0.39553040128845185    0.40072585597197896    0.392461639652379    0.3769351342869027    
  0.3688873782240195    0.3769351285800393    0.39246162769206483    0.4007258713306967    0.39553037049751566    
  0.3818374118196511    0.37422135077498486    0.2976231985050279    0.30762102981789285    0.33305496001519874    
  0.36089859699877996    0.37693515354005486    0.3771777788264094    0.3738333793272077    0.37717777339309294    
  0.37693510912240646    0.3608985879564331    0.33305497804768075    0.3076209986836846    0.2976231985050279    
  0.2692374517471831    0.280410836819063    0.3103397686775995    0.3456096432003007    0.3688873628724299    
  0.3738333471743916    0.3719914487797781    0.37383336919259424    0.368887373413204    0.3456096459658899    
  0.31033975185528184    0.28041083540329254    0.2692374517471831    0.2976231681759917    0.30762101371188266    
  0.33305495037018445    0.3608985821840062    0.37693513417655716    0.3771777968315587    0.3738333782678374    
  0.377177770399775    0.37693515938904304    0.3608986111705075    0.3330549473508458    0.30762101409527315    
  0.2976231681759917    0.3742213588387137    0.38183744167810907    0.39553040386606425    0.4007258758804752    
  0.3924616483999754    0.3769351334547683    0.36888736148529866    0.37693513245094235    0.3924616412177662    
  0.40072588227055944    0.39553041196721517    0.381837413853242    0.3742213588387137    0.4314665867221619    
  0.4458318011589779    0.46187728357032753    0.44421209089840935    0.40072590057609275    0.36089859488175713    
  0.3456096574398146    0.36089859719981904    0.4007259139106841    0.44421208343594376    0.46187731103696483    
  0.44583179178540683    0.4314665867221619    0.3478889156878845    0.39012213449749594    0.4615145684152701    
  0.4618773137736084    0.3955304252099972    0.33305494785152234    0.3103397873273978    0.3330549567997024    
  0.3955303980461517    0.46187730349684425    0.46151453994169567    0.3901221143970654    0.3478889156878845    
  0.19552381010056663    0.2549897830476721    0.39012209920189755    0.44583180540351847    0.3818374170593552    
  0.30762101708095313    0.28041081893217423    0.3076210090542529    0.3818374061320193    0.44583179172549636    
  0.3901221039585118    0.25498977436194986    0.19552381010056663    0.13678201379930385    0.19552380830762123    
  0.34788891878401756    0.4314665895833564    0.37422135408739354    0.29762316174581044    0.26923748157357813    
  0.2976231571800051    0.3742213896289321    0.4314665941153211    0.34788892448620395    0.19552378514432606    
  0.13678201379930385    0.05230164992520014    0.10022979641586631    0.2792545756381485    0.45455575886652255    
  0.44354311677003866    0.3692500573483179    0.33847690233492617    0.3692500778038693    0.44354315878601225    
  0.4545557754754345    0.2792545817040154    0.10022979081191111    0.05230164992520014    0.10022978312776903    
  0.16007554148722825    0.3427624019424315    0.4871251212814129    0.4611841468993102    0.3874798983767669    
  0.35765493936730286    0.3874799264491159    0.46118414922186407    0.4871251247795092    0.3427623925442266    
  0.16007553521745188    0.10022978312776903    0.2792545549318459    0.342762420635445    0.48001735430515313    
  0.5447845632249946    0.49968080850682856    0.43504068273477453    0.4094835079722033    0.4350407161950929    
  0.49968081251579005    0.5447846112411862    0.48001735199550555    0.3427623879349118    0.2792545549318459    
  0.454555746807532    0.4871251220834448    0.5447845669796794    0.5612401158507967    0.5281229635243455    
  0.4830040623060842    0.4632445944690388    0.4830040492471717    0.5281229739836379    0.5612400732880212    
  0.5447845983551214    0.48712510067011205    0.454555746807532    0.4435431251142909    0.4611841507402516    
  0.49968082438140143    0.528122934404714    0.5223778423103654    0.48855601426905687    0.4685030942575511    
  0.48855602964980493    0.5223778408647859    0.5281229393339606    0.4996807834973048    0.4611841085249746    
  0.4435431251142909    0.3692501022335063    0.3874799271539295    0.43504067451652606    0.4830040531916249    
  0.4885560266978105    0.44825854433369394    0.4217911162585261    0.44825856765256566    0.48855600231295876    
  0.4830040392493957    0.43504069797790546    0.38747991661019465    0.3692501022335063    0.33847687817838307    
  0.35765495852992263    0.4094835170258634    0.46324452354260837    0.46850306379318685    0.42179110967236805    
  0.3918919293578503    0.4217910988778918    0.4685030766276384    0.46324454672104365    0.4094834880173749    
  0.3576549472212308    0.33847687817838307    0.3692500751922552    0.3874799148245148    0.4350407143321717    
  0.48300405346145614    0.48855602168105006    0.44825856148815557    0.4217911320802331    0.44825856765027655    
  0.4885560344854017    0.4830040586215614    0.43504067775765104    0.3874798876050042    0.3692500751922552    
  0.4435431598854501    0.46118416401741263    0.49968077485412055    0.5281229668964256    0.522377832601917    
  0.4885560243719154    0.46850306905491135    0.4885560346424076    0.5223778255928312    0.5281229678600695    
  0.49968084263379414    0.461184142367903    0.4435431598854501    0.4545557464478367    0.4871251207088405    
  0.5447845629947223    0.5612400889229541    0.5281229796722803    0.4830040402566088    0.46324456510499507    
  0.48300406613822067    0.5281229791195716    0.5612401244698819    0.5447845953487657    0.48712512613058523    
  0.4545557464478367    0.27925455970950586    0.34276241795932794    0.4800173767816819    0.5447845834834741    
  0.49968082551721094    0.43504068323320333    0.4094835118383813    0.43504068430472864    0.4996808168436428    
  0.5447845698440745    0.4800173421902223    0.3427623943986582    0.27925455970950586    0.1002297909144985    
  0.16007554656036935    0.3427623726453987    0.4871251282607781    0.46118411576705665    0.38747991739178883    
  0.3576549382695266    0.38747992834858025    0.4611841404718587    0.48712511503710804    0.342762396744253    
  0.16007553291773072    0.1002297909144985    0.05230164992520014    0.10022979641586631    0.2792545756381485    
  0.45455575886652255    0.44354311677003866    0.3692500573483179    0.33847690233492617    0.3692500778038693    
  0.44354315878601225    0.4545557754754345    0.2792545817040154    0.10022979081191111    0.05230164992520014    
  0.07564721479041507    0.13231224885050005    0.3253995421905215    0.5020472209782391    0.4911481209146125    
  0.41752572860293913    0.3868764269302848    0.41752573710158924    0.49114817980955827    0.5020472274442053    
  0.3253995518033468    0.13231222341660898    0.07564721479041507    0.13231223657140057    0.1995796259524252    
  0.3929194915875938    0.5397446616047403    0.515938452622669    0.4432518968152148    0.4134742762432642    
  0.4432518953813716    0.515938472908855    0.5397446679466017    0.39291948272568666    0.19957960435234454    
  0.13231223657140057    0.32539954497733187    0.39291951474406395    0.5386570487995478    0.6130860286696311    
  0.5739232117319231    0.5088657829791038    0.48193511670723754    0.508865812626251    0.5739232756872329    
  0.6130860044663888    0.5386570582063627    0.392919458480464    0.32539954497733187    0.5020472030749494    
  0.5397446522764693    0.6130859751960009    0.6469276615281095    0.615068852083331    0.5545698495485519    
  0.5251095091402875    0.5545698272192888    0.6150688647618057    0.646927707342061    0.6130859821835886    
  0.5397446430771956    0.5020472030749494    0.49114813109575645    0.5159384672022724    0.5739232765234744    
  0.615068827348789    0.5806439188817695    0.48788045090965676    0.43913544452168307    0.4878804426722199    
  0.5806439359956861    0.615068810391796    0.5739232649759207    0.515938422082701    0.49114813109575645    
  0.41752574559792105    0.4432519224784586    0.5088657752270712    0.5545698299420126    0.48788044046086004    
  0.3481702289643592    0.28373793211784876    0.3481702307261837    0.487880405889883    0.5545698516336268    
  0.5088657582968572    0.44325188914776403    0.41752574559792105    0.3868764185704263    0.413474272634142    
  0.48193510553534186    0.5251094157486004    0.43913543204642164    0.28373791470359894    0.21784926892586315    
  0.2837379261052275    0.4391354688255495    0.5251094546596804    0.481935098478674    0.413474279228694    
  0.3868764185704263    0.4175257415698804    0.44325192101945876    0.5088657805613677    0.5545698628940916    
  0.48788041573591473    0.348170248980854    0.28373792462940906    0.34817023498499616    0.4878804593474652    
  0.5545698680745009    0.5088657575619404    0.44325191075095277    0.4175257415698804    0.491148132167352    
  0.5159384737694943    0.5739232513499984    0.6150688052463051    0.5806439227778232    0.4878804471224719    
  0.43913541943538703    0.4878804491555355    0.5806439154500784    0.6150688645810356    0.5739232779080152    
  0.5159384435580957    0.491148132167352    0.5020472181975406    0.539744688849267    0.6130859578548238    
  0.6469277185618828    0.6150688484764091    0.5545698616466339    0.5251094931778819    0.5545698763462676    
  0.6150688652301153    0.6469277360792717    0.6130859904550288    0.5397446490573357    0.5020472181975406    
  0.3253995348575186    0.392919518778442    0.5386570351858176    0.613086005451034    0.5739232753768596    
  0.508865757797505    0.48193510762886077    0.5088657706291402    0.5739232678538775    0.6130859747314026    
  0.5386570456156219    0.3929195048736956    0.3253995348575186    0.13231224353866974    0.19957963219346617    
  0.39291947339309297    0.539744693438352    0.515938441640301    0.4432518984360927    0.41347427129951236    
  0.4432519240756962    0.515938431190831    0.5397446719844315    0.3929194911471432    0.19957959660165245    
  0.13231224353866974    0.07564721479041507    0.13231224885050005    0.3253995421905215    0.5020472209782391    
  0.4911481209146125    0.41752572860293913    0.3868764269302848    0.41752573710158924    0.49114817980955827    
  0.5020472274442053    0.3253995518033468    0.13231222341660898    0.07564721479041507    0.2178499002820412    
  0.2837372304106805    0.43913627116827    0.5251085469324354    0.4819359886718954    0.4134734096272754    
  0.3868772563396285    0.41347340981638353    0.48193604852464733    0.5251085235837675    0.4391362953615181    
  0.28373718640633183    0.2178499002820412    0.2837372019671322    0.348171051327008    0.48787954024325864    
  0.5545708181908273    0.5088648856631075    0.44325278319541617    0.4175248880958293    0.443252762094571    
  0.5088648639613778    0.5545708264312768    0.4878795131439273    0.34817104522503145    0.2837372019671322    
  0.43913627740024264    0.4878795723713266    0.5806448707903673    0.6150678549612817    0.5739241987375692    
  0.5159375130910726    0.49114904946345594    0.5159375361781338    0.5739242328445059    0.6150678424576013    
  0.5806448836036403    0.4878795079397306    0.43913627740024264    0.5251085258138638    0.5545708343780633    
  0.615067775976401    0.6469287121361809    0.6130850127003962    0.5397455827951639    0.5020463079958324    
  0.5397455637688103    0.6130850513665685    0.6469287243345521    0.6150678290603488    0.5545708125084476    
  0.5251085258138638    0.4819359832008322    0.5088648762963314    0.5739242362909671    0.6130849822289322    
  0.5386579983389982    0.3929186579532783    0.32540034452008226    0.3929186623508922    0.5386579572333273    
  0.6130850373900065    0.5739242125271288    0.5088648536249514    0.4819359832008322    0.4134734275253256    
  0.4432527923200116    0.5159375131323872    0.5397455957831301    0.3929186871871544    0.19958024141894648    
  0.13231167957085307    0.19958025196589202    0.3929186467656685    0.5397455865534532    0.5159374958605838    
  0.4432527606744231    0.4134734275253256    0.3868772644159833    0.4175248965989572    0.4911490425804582    
  0.5020462386288479    0.32540032669931546    0.13231166754466175    0.07564767992455569    0.13231167460178667    
  0.3254003639155773    0.5020462895360814    0.4911490609816779    0.41752487863707266    0.3868772644159833    
  0.4134733971456801    0.44325278823741354    0.515937508403489    0.5397455917163381    0.3929186622684964    
  0.19958024760820428    0.1323116726687675    0.19958024214771192    0.39291866858167473    0.5397456069374024    
  0.5159375018723938    0.4432527863822367    0.4134733971456801    0.48193601713435635    0.5088648622035359    
  0.573924207718717    0.6130849980634195    0.538657978591982    0.3929186678404524    0.32540033279071134    
  0.3929186769292137    0.53865799164589    0.6130850217900149    0.5739242458278333    0.5088648264050191    
  0.48193601713435635    0.525108548565561    0.5545708409006203    0.6150678255127426    0.6469287345124589    
  0.6130850054342748    0.5397456070664848    0.5020463206634663    0.5397456036442548    0.6130850351459717    
  0.6469287468177979    0.6150678098545137    0.5545708184471133    0.525108548565561    0.4391362610032461    
  0.48787957309136576    0.5806448769003998    0.6150678210038603    0.573924245665606    0.5159374980315911    
  0.4911490600503987    0.5159375066965023    0.5739242421799132    0.6150678365392676    0.5806449067924424    
  0.4878795439582127    0.4391362610032461    0.28373720674051794    0.34817107086461885    0.4878795270920658    
  0.5545708391120734    0.5088648524846773    0.44325277453897244    0.4175248706808208    0.44325280818105306    
  0.5088648141961443    0.5545708338501636    0.4878795215797276    0.34817102906196107    0.28373720674051794    
  0.2178499002820412    0.2837372304106805    0.43913627116827    0.5251085469324354    0.4819359886718954    
  0.4134734096272754    0.3868772563396285    0.41347340981638353    0.48193604852464733    0.5251085235837675    
  0.4391362953615181    0.28373718640633183    0.2178499002820412    0.3918910538372248    0.42179201407453826    
  0.46850218595164367    0.4632454153170179    0.4094826294739393    0.3576557086779048    0.33847611000487426    
  0.35765573996856564    0.40948265940757356    0.4632454516054878    0.4685021675292749    0.42179198947769553    
  0.3918910538372248    0.4217919761962094    0.4482577040587958    0.4885569340404794    0.483003187553945    
  0.4350415536419659    0.3874790743733795    0.36925087079553714    0.3874790773713591    0.43504159122257247    
  0.48300314943889944    0.4885569095495089    0.44825767303780734    0.4217919761962094    0.4685021723408369    
  0.488556961572836    0.5223769017759854    0.5281238494385562    0.49967988871306335    0.4611849966686377    
  0.44354227209812924    0.4611850220163187    0.49967989698079385    0.5281238658705536    0.522376880776922    
  0.48855689412162456    0.4685021723408369    0.4632454508652856    0.483003164699029    0.5281238680616593    
  0.5612391482393244    0.5447855352085321    0.48712421376518755    0.4545566656402853    0.4871242109395057    
  0.5447855417852614    0.5612391535404291    0.5281238751758315    0.4830031341049235    0.4632454508652856    
  0.4094826529677007    0.4350415718210984    0.49967990388600453    0.5447855107731023    0.48001647069233544    
  0.34276318909419345    0.2792538543245798    0.342763205110484    0.48001647179840173    0.544785520955164    
  0.4996798906757278    0.4350415435580109    0.4094826529677007    0.3576557678848257    0.38747909571732775    
  0.4611850265231281    0.4871242014902476    0.34276318497220803    0.1600749262975389    0.1002302900246255    
  0.16007494504375352    0.3427631840324178    0.4871242057886161    0.461185009485416    0.38747907258837233    
  0.3576557678848257    0.3384760838320903    0.3692509102409022    0.4435422792213091    0.4545566062465972    