#     DFTpy    
  CRYSTAL 
    
  PRIMVEC    
  1.562579919280982    -2.706467811081536    0.0    
  1.562579919280982    2.706467811081536    0.0    
  0.0    0.0    5.283212247586207    
  PRIMCOORD    
  2    1    
  Si    1.562579919280982    0.9021559370271786    1.3208030618965518    
  Si    1.5625799192809824    -0.9021559370271786    3.962409185689654    
  BEGIN_BLOCK_DATAGRID_3D    
  3d_datagrid_density    
  BEGIN_DATAGRID_3D#0    
  15    15    23    
  0.0    0.0    0.0    
  1.562579919280982    -2.706467811081536    0.0    
  1.562579919280982    2.706467811081536    0.0    
  0.0    0.0    5.283212247586207    
  0.06571225114632856    0.06809581742795513    0.07545535233327923    0.08765303463346617    0.10334414890475098    
  0.11969418993568826    0.13220951842701953    0.1368372955314255    0.13220951221562158    0.11969419676358604    
  0.103344154664331    0.08765304466273947    0.07545535898415318    0.06809580301838614    0.06571225114632856    
  0.06809581146057521    0.06809388981045131    0.0729922082942421    0.08290365763912018    0.09711613523996866    
  0.11359571109975769    0.12859987040257367    0.13750501177589944    0.13750416427929382    0.12860027155936132    
  0.11359680827551197    0.09711567229158115    0.08290430549503998    0.0729904887978748    0.06809581146057521    
  0.07545533748797088    0.07299221887889501    0.07545565428358657    0.082902558855764    0.09506499180436181    
  0.11062413902741328    0.12671312555624992    0.13898312603786941    0.1435443589020443    0.1389840799032246    
  0.1267112620713041    0.11062452348374913    0.0950641211245576    0.08290429498651875    0.07545533748797088    
  0.08765303763287005    0.08290367197920488    0.08290258151498822    0.08765480408870183    0.09711525870224515    
  0.11062461695202791    0.12615786045860192    0.14017365293690567    0.14854245461284737    0.1485421022911763    
  0.1401742679390467    0.12615874270368593    0.11062455361924763    0.09711568423088725    0.08765303763287005    
  0.10334416615018732    0.09711615516234808    0.09506497268647716    0.09711526021092523    0.10334437067199191    
  0.1135959154428857    0.12671192370509132    0.14017392187794653    0.15052296421145725    0.15445356277756278    
  0.1505218372731691    0.14017427558775777    0.1267112756877828    0.11359680824045018    0.10334416615018732    
  0.11969420430020256    0.11359568834072445    0.11062417257741447    0.11062459603503269    0.11359590029137608    
  0.11969362918088952    0.12860116985178388    0.1389829105140983    0.1485438162036464    0.15444935712367883    
  0.15445351525553405    0.14854207409755135    0.13898410512209283    0.12860025367634256    0.11969420430020256    
  0.13220949565316054    0.12859988498322492    0.12671312682800503    0.12615786645888957    0.12671189751233827    
  0.12860119635040648    0.13220870028987622    0.13750505861163947    0.1435432572163472    0.14854381838471514    
  0.15052298412142834    0.14854241990477576    0.1435443590447713    0.137504158756673    0.13220949565316054    
  0.13683727985203856    0.13750502763226427    0.138983118908507    0.1401736775095942    0.14017389841404163    
  0.13898290828753262    0.13750507196527234    0.13683646888094858    0.13750505484758424    0.13898290687182666    
  0.14017391731342704    0.1401736726007478    0.13898313582417018    0.1375050067761298    0.13683727985203856    
  0.13220949481823166    0.13750417791307987    0.14354433329734045    0.14854243508915163    0.15052298956806526    
  0.148543813147253    0.14354324687242756    0.13750507871360046    0.13220866153314287    0.12860120581617973    
  0.1267119078940239    0.126157833480472    0.12671313867956663    0.12859990073426394    0.13220949481823166    
  0.11969418451121602    0.12860028519170466    0.1389840783706457    0.14854208592186743    0.15445354510653178    
  0.15444933265295135    0.14854381068786757    0.1389829080475907    0.12860120048883278    0.11969364105284121    
  0.1135958853653762    0.11062460582372065    0.11062415923244737    0.11359569823344015    0.11969418451121602    
  0.10334416694394367    0.11359681550616703    0.1267112687635577    0.1401742564928802    0.15052186427316747    
  0.15445354902990807    0.15052297760597055    0.14017391418370678    0.12671191354607697    0.11359590215970337    
  0.10334436395538568    0.09711526179294355    0.09506498149961537    0.09711614646779029    0.10334416694394367    
  0.08765304291806211    0.09711567501920865    0.11062453280105969    0.12615874131080387    0.1401742615756289    
  0.14854210267204446    0.14854245181485592    0.14017366114622512    0.1261578712401893    0.1106246251696863    
  0.09711525798925127    0.08765480596850339    0.0829025794606757    0.08290366578038683    0.08765304291806211    
  0.07545534455367382    0.08290429867351165    0.09506411319119047    0.11062453717681123    0.1267112620986041    
  0.13898407981939645    0.14354434472577926    0.1389831150841414    0.12671312556831205    0.11062417278520995    
  0.09506495380328206    0.08290256739838679    0.07545566166043488    0.07299221523779963    0.07545534455367382    
  0.06809581215443813    0.07299048880910196    0.08290429867200799    0.09711568925053404    0.11359680394449291    
  0.1286002659563353    0.13750416880444616    0.1375050206980103    0.128599880787709    0.11359568885252032    
  0.097116139481687    0.0829036496782861    0.07299223195519354    0.0680938820821689    0.06809581215443813    
  0.06571225114632856    0.06809581742795513    0.07545535233327923    0.08765303463346617    0.10334414890475098    
  0.11969418993568826    0.13220951842701953    0.1368372955314255    0.13220951221562158    0.11969419676358604    
  0.103344154664331    0.08765304466273947    0.07545535898415318    0.06809580301838614    0.06571225114632856    
  0.06865338576710868    0.07138562683357359    0.07975669619892596    0.09359875870152014    0.11144935375660185    
  0.1300555734937444    0.14438981752480137    0.14975355739892693    0.14438828394591327    0.130057682189666    
  0.11144868319853399    0.0935985918035166    0.07975706688981722    0.07138590284190584    0.06865338576710868    
  0.07138591412770827    0.07138610539688639    0.07567724724642544    0.08426803343013152    0.09649228708726149    
  0.11060184978322345    0.12338013228804579    0.1309159773045032    0.13091714748518826    0.12337914833044919    
  0.11060200254453728    0.09649250272342233    0.08426779556918844    0.07567694721375237    0.07138591412770827    
  0.07975705437372953    0.07824548379675275    0.07975668721666032    0.08426757824892865    0.09155427234712839    
  0.10087299092951058    0.11054621436527495    0.11789222459008628    0.12059187645776272    0.11789262034203016    
  0.11054666380130636    0.10087218463711324    0.09155506453726855    0.08426778672390921    0.07975705437372953    
  0.09359858518698397    0.092184271470653    0.09218430752946741    0.09359879722579088    0.09649307078390791    
  0.10087241566122346    0.10623924779215616    0.11131717470937975    0.11442904353984694    0.11442880167887526    
  0.11131652102954159    0.10624015251276722    0.10087221245913648    0.0964925055081468    0.09359858518698397    
  0.1114486969741286    0.11249572529255678    0.11295416862820913    0.11249513368814534    0.11144884857753808    
  0.11060123465723093    0.1105464281986625    0.11131713104329492    0.11241499709368766    0.11295028389319045    
  0.11241560910050258    0.11131652729896176    0.11054669170955064    0.11060199234539526    0.1114486969741286    
  0.1300576944223415    0.1363499885439412    0.14026481753144046    0.14026428930361015    0.1363511997972508    
  0.13005632821648733    0.12338011464125007    0.1178924349918365    0.11442852127786345    0.11295006309212227    
  0.11295025106471247    0.11442879047396684    0.11789261461921935    0.1233791370193461    0.1300576944223415    
  0.14438826496412754    0.15831494633706084    0.16896553543254414    0.17298603854860106    0.16896487623727038    
  0.15831487662349825    0.14439001199882048    0.13091530453660566    0.12059309335493547    0.11442853794700793    
  0.11241500406885993    0.11442902502844655    0.12059187585661256    0.13091715983528807    0.14438826496412754    
  0.14975355593805154    0.1716423523379455    0.1911911247566733    0.2027276196376719    0.202727059713835    
  0.19119291397364496    0.1716406645684537    0.1497540932414958    0.1309153081937236    0.11789244075946365    
  0.11131711813928988    0.11131719288669187    0.11789222276744304    0.13091596629253988    0.14975355593805154    
  0.14438980805203191    0.17163973058908572    0.19960801417310509    0.22049925327544395    0.2281994756383579    
  0.22049919102802035    0.19960694860422407    0.1716406592023341    0.14438999674848804    0.12338013441902311    
  0.11054644601535064    0.10623922171084835    0.11054623603520389    0.1233801451966562    0.14438980805203191    
  0.13005556246547645    0.15831700755572164    0.19119068504823034    0.2204998537413329    0.23763597099376207    
  0.23763684981073416    0.22049919158614342    0.19119291648680017    0.15831486629492597    0.13005631923345573    
  0.11060120649902166    0.1008724172900101    0.10087301307684367    0.11060182680988064    0.13005556246547645    
  0.11144936852369029    0.13635033798546567    0.1689647840569085    0.20272847865278057    0.22819807388293104    
  0.23763597499322825    0.22819947416963934    0.20272707678484947    0.16896489521932567    0.13635121346401755    
  0.11144885205097904    0.0964930608706296    0.09155427795009749    0.0964922973293749    0.11144936852369029    
  0.0935987724676122    0.11249591841922894    0.14026440799174975    0.17298584396981131    0.20272848262522644    
  0.2204998694652038    0.22049925613791707    0.20272760228234799    0.17298604090767217    0.14026433021097828    
  0.11249513739850887    0.09359880202339342    0.08426759403268631    0.08426803448360198    0.0935987724676122    
  0.07975669071870495    0.09218365004988494    0.11295478339174748    0.14026442093841296    0.16896476809898187    
  0.19119068041935114    0.19960800283043828    0.19119112705478536    0.16896554135169736    0.1402648134219161    
  0.11295415080302751    0.09218430271737044    0.07975669773724761    0.07567724181881143    0.07975669071870495    
  0.07138562622940328    0.0782466543076851    0.09218364615894287    0.11249591917683471    0.1363503059597896    
  0.15831698567228503    0.1716397300209315    0.17164235493028845    0.15831494090596665    0.1363499861424565    
  0.11249570940301197    0.09218425072113358    0.07824548735157141    0.07138609942029137    0.07138562622940328    
  0.06865338576710868    0.07138562683357359    0.07975669619892596    0.09359875870152014    0.11144935375660185    
  0.1300555734937444    0.14438981752480137    0.14975355739892693    0.14438828394591327    0.130057682189666    
  0.11144868319853399    0.0935985918035166    0.07975706688981722    0.07138590284190584    0.06865338576710868    
  0.07712929508375042    0.08081263496658493    0.0920131521263615    0.11064106000175024    0.13497135491919474    
  0.1604214481308856    0.18008630878805382    0.18751753748105132    0.1800852687220378    0.16042105459083592    
  0.1349722541919902    0.11064077594269778    0.09201325513001196    0.08081193357518236    0.07712929508375042    
  0.08081194528921472    0.08081369795910912    0.08552155543745486    0.094941610737895    0.10842422719167223    
  0.12398151334613762    0.13805889108944688    0.14646882169973527    0.14646812215809443    0.1380606990892542    
  0.12397970602109998    0.10842522730812583    0.09494048317260091    0.08552355131928137    0.08081194528921472    
  0.09201322714575245    0.09105536389536519    0.09201265829590795    0.09494146503549197    0.0998794999547599    
  0.10642486041457115    0.11336552529456952    0.11877292623299271    0.12081393322744288    0.11877221291446526    
  0.11336660035636832    0.10642442831548823    0.0998801305160043    0.09494046971770491    0.09201322714575245    
  0.11064076218163149    0.11203066888529824    0.11203227336870197    0.11063982353929405    0.1084258694946325    
  0.10642335496617848    0.10534634941378321    0.10518753339862431    0.10540499822659248    0.10540473591778998    
  0.10518759390016598    0.10534538339203071    0.10642445778505522    0.1084252310728522    0.11064076218163149    
  0.13497226904139062    0.14327957733954785    0.14633011386745312    0.14327890225079487    0.13497180508881892    
  0.12398077403458807    0.11336618749529846    0.10518725854876078    0.10031006764213393    0.0987378845670975    
  0.10031072720163582    0.10518760130982995    0.11336661079380464    0.12397972290638033    0.13497226904139062    
  0.16042107991578608    0.18054849327256906    0.1924492857766488    0.19244969952269955    0.18054895063363594    
  0.16042121920427055    0.1380590354058685    0.11877363743110128    0.10540421012877677    0.09873931452162389    
  0.09873787001642419    0.10540473535035404    0.11877221664656791    0.13806066115542545    0.16042107991578608    
  0.18008524821241015    0.2147128242714699    0.24047291947413463    0.24988607380344857    0.24047420323540847    
  0.2147123041200924    0.18008648554839787    0.14646777522866755    0.12081395971049556    0.10540421662686986    
  0.10031005948692574    0.1054049894875204    0.12081394300988581    0.1464681301995324    0.18008524821241015    
  0.18751752835555324    0.23524720078050465    0.2760110816456224    0.29818190947886897    0.2981840079761405    
  0.2760094314839208    0.23524852028603735    0.1875184471417911    0.14646777528252447    0.11877362929921956    
  0.10518724804349351    0.10518754400902082    0.11877292722954927    0.14646878727763213    0.18751752835555324    
  0.1800863104719032    0.235249084387218    0.28888615072546636    0.3236459571151031    0.3346087851913023    
  0.3236446813434767    0.28888772314110855    0.23524850549575768    0.18008648054061055    0.13805906662427136    
  0.11336618361226775    0.10534636633245659    0.1133655321605933    0.13805891190406294    0.1800863104719032    
  0.16042144188339535    0.21471156500600694    0.27600907761096466    0.3236452534120057    0.3457203560306488    
  0.34572405998899486    0.32364467108622147    0.27600944007435857    0.21471229704799996    0.16042121538469878    
  0.1239807484119819    0.1064233467025488    0.10642487124366679    0.12398150196422277    0.16042144188339535    
  0.13497137085245292    0.1805493080733649    0.2404746393985447    0.29818333606138064    0.33460907324278993    
  0.3457203615766588    0.3346087766139959    0.29818402422034057    0.2404742180714479    0.18054896817106195    
  0.13497179601903767    0.10842585346923252    0.09987949484049989    0.10842424599650204    0.13497137085245292    
  0.11064106338785853    0.14327969766357165    0.19244897665220198    0.24988451967061764    0.29818334923998546    
  0.3236452767448107    0.32364595382832634    0.29818188626988906    0.24988607586087674    0.19244970910889744    
  0.14327890335434174    0.1106398172283761    0.0949414858267077    0.0949416160785218    0.11064106338785853    
  0.09201315074276156    0.11203086999737644    0.14633113638717352    0.19244899743046204    0.24047461819717095    
  0.27600908268578117    0.28888611560949135    0.27601108782987005    0.24047291861809567    0.1924492971057043    
  0.14633010009077765    0.11203226012159367    0.0920126637633218    0.08552154735198464    0.09201315074276156    
  0.08081263107566553    0.09105573210795942    0.11203086500581219    0.14327968907595276    0.18054928924137364    
  0.2147115456595971    0.23524909454423257    0.23524719985333564    0.21471280514060778    0.1805485230222985    
  0.14327957535685573    0.11203064263013451    0.09105537112653453    0.08081369449353347    0.08081263107566553    
  0.07712929508375042    0.08081263496658493    0.0920131521263615    0.11064106000175024    0.13497135491919474    
  0.1604214481308856    0.18008630878805382    0.18751753748105132    0.1800852687220378    0.16042105459083592    
  0.1349722541919902    0.11064077594269778    0.09201325513001196    0.08081193357518236    0.07712929508375042    
  0.0891784433580742    0.09428025130073853    0.1097625402478616    0.1356768684733136    0.16989753942035685    
  0.20557848575403376    0.23264758074837574    0.2427212754821394    0.2326519429332564    0.20557934025523275    
  0.1698927399726693    0.13567883554427762    0.10976318357792852    0.09427892978028939    0.0891784433580742    
  0.0942789462921676    0.09428117733402062    0.1002068987432329    0.11206583073742665    0.12914312853223706    
  0.14890602695739516    0.16676694761794    0.17750864517526838    0.1775107417318173    0.16676356820413435    
  0.14890408177051626    0.1291486278672909    0.11206182507887248    0.10020984322494268    0.0942789462921676    
  0.1097631553056962    0.10907878231110886    0.10976184584646974    0.11206296122405207    0.11631497578805518    
  0.12217916120763003    0.12849352067612088    0.1335692950163684    0.1355539327284638    0.13356660232698322    
  0.12849935841186938    0.12217738631780976    0.11631369907957463    0.1120618144775161    0.1097631553056962    
  0.13567884228031327    0.1396763308943289    0.13968030376896312    0.13567802025215253    0.1291447280976597    
  0.12217759034122397    0.11641681883764787    0.11267582123488337    0.1110043059198434    0.11100519610096143    
  0.11267605412151015    0.1164133355860365    0.12217741213280636    0.12914863724198802    0.13567884228031327    
  0.16989275726791014    0.18569904284028052    0.19152274301890268    0.18569636340764067    0.16989837235511723    
  0.14890529087805573    0.12849445126887207    0.1126773620590936    0.10307736194288829    0.09990454002601631    
  0.10307828681309616    0.11267603647363876    0.12849936600527598    0.14890405866982084    0.16989275726791014    
  0.20557934591289326    0.2398957343401077    0.2595044722593605    0.25950381090983937    0.23988973249940013    
  0.20557927518995042    0.1667664891202251    0.1335681002457353    0.11100257210978193    0.09990873443473153    
  0.09990452520228114    0.1110051922614286    0.13356662512453157    0.16676356032295883    0.20557934591289326    
  0.23265194085782598    0.2865665261450116    0.3219365322109113    0.33323959266550013    0.32195173162455215    
  0.2865634031222643    0.23264962523141372    0.1775095650563247    0.13555580181243235    0.11100257020434981    
  0.10307737082157725    0.11100428677380608    0.13555394840037113    0.17751074201947395    0.23265194085782598    
  0.24272125710765413    0.3120241715196716    0.35644496477861426    0.369567938876278    0.3695603810107201    
  0.3564420032901588    0.31203742496396936    0.242718347802921    0.17750957409864876    0.13356807916168714    
  0.11267735830623146    0.11267583342896144    0.1335692892662245    0.17750863660322655    0.24272125710765413    
  0.23264757481030726    0.3120370537660905    0.3651363164151961    0.3704062128709892    0.3628284986775463    
  0.37040460128828645    0.3651357930429018    0.31203740169808075    0.23264961221976252    0.1667665146870249    
  0.12849446050166474    0.11641680181599512    0.1284935308344275    0.16676698408838403    0.23264757481030726    
  0.20557844567452876    0.28656588080424195    0.356441571388372    0.37040526645680627    0.349258226393679    
  0.3492717758343161    0.37040457933600934    0.3564420327863007    0.2865634169365393    0.20557929517693158    
  0.14890525716856273    0.12217758059620142    0.1221791667794985    0.148905993001533    0.20557844567452876    
  0.16989753657948237    0.2398913081685266    0.3219482788350075    0.36955207385016764    0.36284465248151593    
  0.3492582346328761    0.362828485672426    0.3695604169346989    0.321951755842447    0.23988971213839955    
  0.16989835895920666    0.12914471350145298    0.1163149767005231    0.12914315155142872    0.16989753657948237    
  0.13567686386093591    0.18569992797854457    0.259501177545157    0.3332464091753054    0.36955207479118535    
  0.37040530198233296    0.370406180494523    0.3695679159947237    0.33323959780533824    0.25950380366314496    
  0.18569635769062084    0.13567801745099534    0.11206298239140475    0.11206584792808871    0.13567686386093591    
  0.1097625291857208    0.13967835433809067    0.1915241318626111    0.25950116509007876    0.32194827046544505    
  0.3564415708939856    0.3651363250934513    0.35644497452216406    0.3219365340005505    0.25950447833171786    
  0.19152272735032627    0.13968030192559064    0.10976185839323116    0.10020689801136103    0.1097625291857208    
  0.09428024695434821    0.10907845730702723    0.1396783666068936    0.18569993838280097    0.239891287932088    
  0.28656589158596474    0.3120370543319028    0.3120241792800913    0.2865665118564791    0.23989576371016227    
  0.18569902461069981    0.13967631159498434    0.10907878906961792    0.09428117470911442    0.09428024695434821    
  0.0891784433580742    0.09428025130073853    0.1097625402478616    0.1356768684733136    0.16989753942035685    
  0.20557848575403376    0.23264758074837574    0.2427212754821394    0.2326519429332564    0.20557934025523275    
  0.1698927399726693    0.13567883554427762    0.10976318357792852    0.09427892978028939    0.0891784433580742    
  0.1011880849595061    0.1078098034387914    0.12792611397228051    0.16172069022243468    0.2062466183793872    
  0.2514784737081479    0.28394011930630153    0.2954180797365978    0.2839646215568907    0.25148012515294943    
  0.20622726918037146    0.1617238909899493    0.127930543841916    0.1078083782010765    0.1011880849595061    
  0.10780838168883687    0.10780671371221817    0.11535627941476082    0.13028508985713788    0.15171961536802903    
  0.1765395158402327    0.19879251917342555    0.21202556609870865    0.2120276158424001    0.19877745584277293    
  0.17653603303711093    0.1517374053391954    0.13028075777322407    0.1153528411791593    0.10780838168883687    
  0.12793051245018985    0.12724020912403894    0.12792719844209952    0.13027696777123712    0.13468231244527093    
  0.14081976227333579    0.14754973250114437    0.15305493727958736    0.15522983320647096    0.15305098615121362    
  0.14756452593169236    0.1408207437410443    0.1346658730545781    0.13028072959458248    0.12793051245018985    
  0.16172389597163925    0.16781893186374608    0.167826211963319    0.1617274993182092    0.1517191002914048    
  0.1408210422977067    0.13155342682198853    0.12529478319909423    0.12230457121462956    0.12230598339886517    
  0.12529722559651765    0.1315397973192018    0.14082075593009252    0.15173740859184082    0.16172389597163925    
  0.20622729213833313    0.22833512188259922    0.23644107958084287    0.22832678366791437    0.20625097063867034    
  0.17653683605647577    0.1475498468519792    0.12529972896679875    0.11184084405414617    0.10736958707841834    
  0.1118402471100677    0.12529723191402575    0.14756455011423042    0.17653602529615536    0.20622729213833313    
  0.2514801208675645    0.29526524412919425    0.318039358911324    0.318040218706174    0.295235309570696    
  0.2514802228205553    0.1987944308802955    0.15304871783557197    0.12230443041105137    0.10737098485506    
  0.10736955284361545    0.12230597814519427    0.1530509934054432    0.19877746300912497    0.2514801208675645    
  0.283964596534572    0.343629390256144    0.3687247492850623    0.3719817156469337    0.3687688374530802    
  0.34362963775537547    0.28394172114414573    0.21203219443529478    0.15523078687484837    0.1223044384222282    
  0.11184083060748438    0.12230454202638676    0.15522986826107904    0.21202759224768883    0.283964596534572    
  0.29541804090175455    0.3629551874674534    0.3672277889970957    0.3373369461494483    0.33731557167392023    
  0.36721663991501036    0.36300317979403    0.29540057281494847    0.21203221301613023    0.1530487227233668    
  0.12529972630988534    0.1252947920681086    0.15305494783402904    0.21202556050981297    0.29541804090175455    
  0.28394011620194803    0.36299351008095276    0.35601876494871365    0.2781112800076243    0.23748539379913308    
  0.27811080273854233    0.35600368960755896    0.3630031600117585    0.28394170741975894    0.19879445713050203    
  0.14754986070037773    0.13155341163597783    0.147549752307989    0.19879252858597962    0.28394011620194803    
  0.25147843076868176    0.34363607923911765    0.36722587192951817    0.2780967428672522    0.19164330896166687    
  0.19166213589693762    0.27811078342897555    0.3672166578560144    0.34362964680922914    0.25148024764368515    
  0.17653678262940833    0.14082102662088644    0.1408197775726326    0.17653948821040116    0.25147843076868176    
  0.20624664994088562    0.295240771816575    0.3687546820073595    0.33729676603197356    0.23752731126560764    
  0.19164331162595893    0.23748538139067807    0.3373155877957446    0.3687688856647825    0.2952353120520989    
  0.20625097414095345    0.15171909375736187    0.13468230999445369    0.15171964220411374    0.20624664994088562    
  0.16172069364359568    0.22833642302310553    0.3180400845690699    0.3719975682190937    0.3372967904786307    
  0.2780967785731627    0.27811126640723727    0.3373369461248066    0.371981718008789    0.3180402386718028    
  0.2283268053063722    0.16172749333157743    0.13027696224974472    0.13028510850531724    0.16172069364359568    
  0.12792613281804543    0.16782741993128394    0.2364338946557332    0.31804008864496847    0.3687546723511532    
  0.36722583008553417    0.3560187709908501    0.3672278120292054    0.36872474988813064    0.3180393549252744    
  0.23644108262719052    0.16782620729952505    0.12792721156205245    0.11535627777065839    0.12792613281804543    
  0.10780980435096701    0.1272366694426664    0.16782740262822218    0.22833640825802168    0.2952407621557886    
  0.34363604156813654    0.36299348572523    0.3629551597267231    0.34362938167111606    0.29526525007460863    
  0.22833510827732897    0.16781889423759655    0.1272402149430614    0.10780670395647955    0.10780980435096701    
  0.1011880849595061    0.1078098034387914    0.12792611397228051    0.16172069022243468    0.2062466183793872    
  0.2514784737081479    0.28394011930630153    0.2954180797365978    0.2839646215568907    0.25148012515294943    
  0.20622726918037146    0.1617238909899493    0.127930543841916    0.1078083782010765    0.1011880849595061    
  0.10899234686099821    0.1165426798009279    0.13959949692121232    0.17859391234362884    0.22968414704695975    
  0.2799163224154994    0.31360197707371823    0.3247161312598197    0.3136373708890213    0.27992273022894343    
  0.22966131390417538    0.178593502326584    0.13961017970262585    0.11654031140439713    0.10899234686099821    
  0.11654032954633584    0.11653524132773897    0.12515536562302654    0.14214892434728785    0.16661974043373767    
  0.19496491828669985    0.22006270903884959    0.23468612302136319    0.234687520842336    0.2200424299653115    
  0.194958928157672    0.16664095918919564    0.14214667615488039    0.12514385116833993    0.11654032954633584    
  0.139610163861732    0.13884654812533648    0.1396016375023944    0.14213968306016808    0.14684141857937935    
  0.1534805342582717    0.16085709171979987    0.16684747615383075    0.16917434202758297    0.1668415930319033    
  0.16087681852007565    0.15348348066677142    0.14681877563585727    0.14214665496405088    0.139610163861732    
  0.1785935013258421    0.18585295215413294    0.18586666845484529    0.17860256837924465    0.16661794450563988    
  0.15348216985827712    0.14232682080617728    0.13473454517814024    0.1309742842142952    0.1309777994651629    
  0.13473901939324823    0.14230635547280324    0.15348350594229065    0.1666409806129198    0.1785935013258421    
  0.22966132974909043    0.25512342355363116    0.2643695825347241    0.2551068165381624    0.22968878698940826    
  0.19496310796915778    0.16085520860292435    0.13474214712747767    0.11887325900591844    0.11354666793156709    
  0.11886994076107849    0.13473901194504426    0.1608768345934565    0.19495891171455346    0.22966132974909043    
  0.2799227405064561    0.3262005062665259    0.34757799533766376    0.3475827824628292    0.3261662552311547    
  0.27991874150107543    0.2200687932227406    0.16683813983747162    0.1309749420675627    0.11354634828268349    
  0.11354664065889142    0.1309777988994437    0.16684157253829365    0.22004241736659522    0.2799227405064561    
  0.3136373351726446    0.36669009462584995    0.3722295968699011    0.36477379724499764    0.3722724163024932    
  0.3667012271131177    0.31359862390746046    0.234693873540814    0.16917687396314537    0.13097493585351125    
  0.11887324123870477    0.13097426826457442    0.16917436446295908    0.2346875620109239    0.3136373351726446    
  0.3247161207709017    0.37412940264482347    0.3308407565193356    0.2663943525493879    0.26638139896420615    
  0.33082424857258613    0.37419463081457294    0.3246948222855052    0.23469388509448352    0.1668381404882577    
  0.1347421584061276    0.13473454976928548    0.16684748264365273    0.2346861023124703    0.3247161207709017    
  0.3136019546763082    0.3741760815434217    0.3024884139266154    0.17693122690018073    0.12866311266701727    
  0.17693708390060106    0.30246400866188083    0.3741946410150519    0.3135986151218656    0.22006882274529685    
  0.16085521670259686    0.14232682117723716    0.16085710875786732    0.22006272344401973    0.3136019546763082    