#     DFTpy    
  CRYSTAL 
    
  PRIMVEC    
  1.1837624439771133    -2.0503366970602674    0.0    
  1.1837624439771133    2.0503366970602674    0.0    
  0.0    0.0    2.2282236213103443    
  PRIMCOORD    
  1    1    
  Si    0.0    0.0    0.0    
  BEGIN_BLOCK_DATAGRID_3D    
  3d_datagrid_density    
  BEGIN_DATAGRID_3D#0    
  11    11    11    
  0.0    0.0    0.0    
  1.1837624439771133    -2.0503366970602674    0.0    
  1.1837624439771133    2.0503366970602674    0.0    
  0.0    0.0    2.2282236213103443    
  0.049264370761600035    0.09363782102980621    0.26276782087748685    0.45210955129606306    0.493972340474486    
  0.4829101976003895    0.4939723549827869    0.4521096639967684    0.2627678167104564    0.09363781265833518    
  0.049264370761600035    0.09363780197067345    0.09359853277212785    0.2054348100748258    0.3978437747346693    
  0.4887780687591342    0.4783778455565787    0.47841486377349784    0.48875957338075665    0.39775722252228535    
  0.20548120854309293    0.09363780197067345    0.26276784593067654    0.20543480362090588    0.26290101320337994    
  0.39776281162463384    0.481564171643582    0.4720483870316438    0.4547811485235619    0.4720242340543079    
  0.4816897701214377    0.39775730163350015    0.26276784593067654    0.45210968608476004    0.3978437223003182    
  0.39776284447090565    0.45202966203465555    0.4887318945591437    0.4721621179634555    0.44455499984586194    
  0.44460144154669673    0.4720242808072812    0.4887597113016295    0.45210968608476004    0.49397233508523053    
  0.48877809202850603    0.4815641016741112    0.48873194413485477    0.49409841125243964    0.47840522834825333    
  0.4546759849112629    0.4445549518724832    0.4547811977376389    0.4784150003724284    0.49397233508523053    
  0.48291020432033904    0.47837783525766303    0.47204845453827804    0.47216213855888023    0.47840528576762664    
  0.48277369792396085    0.4784052651522477    0.47216217138649114    0.47204850858749103    0.47837788366499523    
  0.48291020432033904    0.49397232085390885    0.4784148704236973    0.45478119933827565    0.44455494832636844    
  0.454676159997121    0.4784052008187764    0.4940984384864553    0.4887318167572744    0.48156417719282785    
  0.48877810560841106    0.49397232085390885    0.45210963039560714    0.48875958981906586    0.47202430289398695    
  0.44460139142026484    0.44455493757211717    0.4721620633960179    0.4887318638089028    0.45202973695996823    
  0.39776286497553986    0.39784378471924114    0.45210963039560714    0.26276781801143495    0.39775722197489083    
  0.48168980888528584    0.4720242114932127    0.4547812818686862    0.47204840769687584    0.4815642024024855    
  0.3977628911233429    0.26290098713888604    0.2054348110481563    0.26276781801143495    0.09363778284751023    
  0.20548115795887947    0.39775718301553015    0.4887596386880201    0.47841495320435895    0.47837792072375684    
  0.4887779876305244    0.39784371342461794    0.20543480178686924    0.09359858222661036    0.09363778284751023    
  0.049264370761600035    0.09363782102980621    0.26276782087748685    0.45210955129606306    0.493972340474486    
  0.4829101976003895    0.4939723549827869    0.4521096639967684    0.2627678167104564    0.09363781265833518    
  0.049264370761600035    0.09055335523403715    0.1435277138760739    0.30733705923439963    0.4528867261531657    
  0.4675447592678278    0.45173553333249955    0.4675447836550758    0.4528868056633601    0.3073370536787487    
  0.14352773137865557    0.09055335523403715    0.14352769714626054    0.14345386354881862    0.25606555175429246    
  0.415108059564144    0.46936773182864683    0.448258993788694    0.44829919537522595    0.469340366467573    
  0.4150526170728054    0.2560868317478089    0.14352769714626054    0.3073370557379691    0.2560655649175776    
  0.30748573134210816    0.41504049939620774    0.46583831571106116    0.44350901188281006    0.42464838693244383    
  0.4434929348803832    0.4659292407210642    0.4150526960536002    0.3073370557379691    0.4528868068190226    
  0.41510796174897974    0.41504053479016456    0.452794937220689    0.4693293470032525    0.44359446737454755    
  0.4148693674740835    0.4149024431878556    0.4434929610901792    0.4693404294566442    0.4528868068190226    
  0.46754468763041557    0.46936766884220743    0.4658383050281027    0.46932937442366046    0.46766855801904755    
  0.44828531536310245    0.4245694845182883    0.414869363940379    0.4246483669953374    0.4482992524004048    
  0.46754468763041557    0.4517354983422852    0.4482590347759115    0.44350905772837534    0.44359443268466775    
  0.44828532369726165    0.45160432179308135    0.44828534016022714    0.4435944986558751    0.4435090724672026    
  0.4482590465309517    0.4517354983422852    0.4675446528895838    0.44829918836375304    0.4246483524339404    
  0.41486935226619276    0.42456959310390346    0.4482852816365337    0.46766851737486226    0.46932931111473714    
  0.46583835224041054    0.46936774709127543    0.4675446528895838    0.4528867946363907    0.46934036243571    
  0.4434929854611202    0.4149024374640967    0.41486935311896944    0.4435944111645077    0.4693293028185598    
  0.45279494293126227    0.4150405042453259    0.4151079712408185    0.4528867946363907    0.30733709016642247    
  0.41505256783293915    0.46592929416557055    0.4434928878710829    0.42464846262729533    0.44350904366876204    
  0.4658383264134503    0.4150405814649031    0.30748571640478156    0.25606558357775877    0.30733709016642247    
  0.14352766694985203    0.2560867486108454    0.41505256119431483    0.46934038455349203    0.4482992105254063    
  0.44825906043409736    0.4693676134416974    0.41510796116846027    0.2560655686397897    0.14345392630136045    
  0.14352766694985203    0.09055335523403715    0.1435277138760739    0.30733705923439963    0.4528867261531657    
  0.4675447592678278    0.45173553333249955    0.4675447836550758    0.4528868056633601    0.3073370536787487    
  0.14352773137865557    0.09055335523403715    0.26055005529906955    0.3101557518729316    0.40770819017850407    
  0.43887328559573835    0.4007586029971276    0.376873696339495    0.4007585843962354    0.4388734154145557    
  0.4077081933396724    0.3101558399382497    0.26055005529906955    0.31015574799031864    0.31006787995909885    
  0.38358909489437365    0.4381155690719099    0.41536829277928433    0.3754059890540874    0.3754268606968556    
  0.4153507730202609    0.43810462675222783    0.38357809993089403    0.31015574799031864    0.4077081468180071    
  0.38358918801453695    0.4078095532301977    0.4380833475453251    0.4189110409055017    0.373568865255867    
  0.35245095207247634    0.3735656152440822    0.4189362012808088    0.4381047152703863    0.4077081468180071    
  0.438873389390056    0.43811540880203176    0.4380833620562092    0.43881840890196594    0.4153528150713562    
  0.3735978374244863    0.3437727888108278    0.34378223439360006    0.37356564997393743    0.41535083121073796    
  0.438873389390056    0.40075854439308245    0.4153682979153567    0.41891102964520976    0.41535284401333916    
  0.40082214809408007    0.3754187577395749    0.3524238823999494    0.3437727906570373    0.3524509141511731    
  0.37542695743898874    0.40075854439308245    0.3768736704517425    0.3754059714450686    0.37356880301098844    
  0.3735978514725619    0.37541875209902326    0.37680704186763747    0.3754187213660431    0.37359791515414564    
  0.37356886530008104    0.37540604609282796    0.3768736704517425    0.4007584892393217    0.37542683203951827    
  0.3524509311982552    0.343772703713263    0.3524239995413639    0.37541868087001135    0.4008221357836137    
  0.4153527652141605    0.4189110844973    0.4153683321801969    0.4007584892393217    0.4388733418976813    
  0.41535077009737104    0.3735656154659767    0.343782174590137    0.343772759816834    0.3735978788857217    
  0.41535276594414844    0.43881841908124475    0.43808334668868243    0.43811551040938507    0.4388733418976813    
  0.40770823852660343    0.4381046108940475    0.4189362892307469    0.37356559795760735    0.3524510070725182    
  0.3735688143318209    0.41891103922206385    0.4380833958380121    0.40780962187181846    0.3835891562500606    
  0.40770823852660343    0.3101556890161954    0.38357808338338956    0.4381046360195309    0.41535083287571256    
  0.3754269091328567    0.3754060427369832    0.41536822537753426    0.43811552868996206    0.3835891395871454    
  0.3100679538359972    0.3101556890161954    0.26055005529906955    0.3101557518729316    0.40770819017850407    
  0.43887328559573835    0.4007586029971276    0.376873696339495    0.4007585843962354    0.4388734154145557    
  0.4077081933396724    0.3101558399382497    0.26055005529906955    0.5071040446028267    0.5055385062677207    
  0.47337224606187717    0.397579375838905    0.325272536344249    0.29768137546732343    0.3252725362320598    
  0.3975794882273873    0.4733722541513577    0.5055385560818288    0.5071040446028267    0.5055384169727887    
  0.5055146292307335    0.48691086312939547    0.42618143486415283    0.3474851974644561    0.29751519277951705    
  0.29751814918862535    0.3474829209993465    0.4261785586898668    0.4869074470594851    0.5055384169727887    
  0.4733722432368573    0.4869109787215479    0.47339547265252047    0.4261725178053749    0.3557427103810026    
  0.2975485884821548    0.2760937509178858    0.29754777490720674    0.35574615000018805    0.42617865898056323    
  0.4733722432368573    0.3975794873958432    0.42618135423161724    0.4261725324357821    0.3975712194418263    
  0.34748360646005827    0.29755287359930654    0.26844808158316974    0.26845029666825315    0.29754780354839566    
  0.3474829655926946    0.3975794873958432    0.3252724718824558    0.34748518829561054    0.35574269014581494    
  0.34748358433956184    0.3252818372351511    0.29751685647710546    0.2760897920967347    0.2684480686073877    
  0.2760937368021951    0.29751821038059945    0.3252724718824558    0.29768132382703644    0.2975151587251761    
  0.29754855540689035    0.29755288215546893    0.29751683490090286    0.2976714112746213    0.29751681415982967    
  0.29755296252930813    0.2975485555052405    0.29751522411269116    0.29768132382703644    0.32527244662183186    
  0.2975181465708381    0.2760937285650682    0.2684480268394889    0.2760898975084805    0.2975168009773052    
  0.3252818709311757    0.34748354984145796    0.3557427447398716    0.34748525123077995    0.32527244662183186    
  0.39757941594673907    0.3474828941139721    0.2975478013031179    0.2684502704075546    0.2684480626479625    
  0.2975529149206304    0.34748357177784484    0.3975712743353848    0.42617252062512107    0.42618146163095944    
  0.39757941594673907    0.47337227132402415    0.4261785653505502    0.3557462450998563    0.29754773337704704    
  0.2760938101727146    0.29754850555605794    0.3557426984876724    0.4261725108140781    0.47339548053277436    
  0.4869109822691007    0.47337227132402415    0.5055384041146089    0.4869074157225928    0.42617853193198574    
  0.34748297817106105    0.297518197664236    0.2975152335478541    0.34748513953369264    0.4261814026580152    
  0.4869109730251721    0.5055147025821172    0.5055384041146089    0.5071040446028267    0.5055385062677207    
  0.47337224606187717    0.397579375838905    0.325272536344249    0.29768137546732343    0.3252725362320598    
  0.3975794882273873    0.4733722541513577    0.5055385560818288    0.5071040446028267    0.6276219635133244    
  0.5829612409608396    0.47284997121739303    0.35275507422976277    0.270793587929919    0.24336042007831904    
  0.27079357833075807    0.3527551599544154    0.4728499495373389    0.5829612862053625    0.6276219635133244    
  0.5829612181650737    0.582956718486448    0.5058385876936647    0.3923343399123132    0.2949388297424431    
  0.24367388837475504    0.24367736644584656    0.2949361724113588    0.39232638534864767    0.5058475107397051    
  0.5829612181650737    0.4728499526505533    0.505838620950399    0.4728626549245805    0.3923271085750498    
  0.30483067836872363    0.24439347754911764    0.223826808786428    0.24439132903344019    0.3048404160067628    
  0.3923264623321716    0.4728499526505533    0.3527551546177382    0.39233427070103377    0.39232712253653723    
  0.35275159675821477    0.29493875704594114    0.24439664354746565    0.21680437138861078    0.216804985462862    
  0.244391347201112    0.2949362108499014    0.3527551546177382    0.27079351774406474    0.29493878148392094    
  0.3048306534891344    0.2949387537147032    0.2707948577006224    0.24367691582276724    0.22382166757779337    
  0.21680436939064626    0.22382679473012546    0.24367741816729435    0.27079351774406474    0.24336038093575546    
  0.2436739179873172    0.24439350794874762    0.24439660575086908    0.2436769080093339    0.24335634307482598    
  0.24367692535376578    0.244396644217861    0.24439353373062428    0.24367390881653567    0.24336038093575546    
  0.2707934889751099    0.24367736479012977    0.22382680645602696    0.21680435395044995    0.2238217510212156    
  0.24367687688038334    0.2707948107115242    0.2949387045145355    0.30483070512201293    0.2949388263547133    
  0.2707934889751099    0.35275513708870276    0.2949362073880006    0.24439135794145686    0.21680500590984916    
  0.2168043716959863    0.24439660387209433    0.29493872567239326    0.3527515924422625    0.39232712965547883    
  0.3923342777603267    0.35275513708870276    0.4728499483156077    0.3923263447853404    0.3048404874490137    
  0.24439128715549477    0.22382686965299325    0.24439349019440568    0.3048307137280063    0.3923271761011953    
  0.47286263675135826    0.5058386453853861    0.4728499483156077    0.5829611243779453    0.5058474343489894    
  0.39232634801912314    0.2949362190217291    0.2436773895461851    0.24367393509603968    0.2949387407214284    
  0.3923342512690329    0.5058386251633396    0.5829568499247462    0.5829611243779453    0.6276219635133244    
  0.5829612409608396    0.47284997121739303    0.35275507422976277    0.270793587929919    0.24336042007831904    
  0.27079357833075807    0.3527551599544154    0.4728499495373389    0.5829612862053625    0.6276219635133244    
  0.6431203319803183    0.5882315116811535    0.46188830974348977    0.3342293887874704    0.2515240286377497    
  0.22463597252988482    0.2515240308845289    0.33422949354559256    0.4618882802013749    0.5882315409552193    
  0.6431203319803183    0.5882314305948004    0.5882190014365066    0.49867246730363674    0.37561154049786344    
  0.275760219621785    0.22506149896859307    0.22506648644505778    0.2757552254502211    0.3756050568802759    
  0.49867963848158664    0.5882314305948004    0.4618882868026842    0.4986724034020273    0.4619060329798558    
  0.37560451179042725    0.2859408898989082    0.22593485294747623    0.20589634431222245    0.2259337893114086    
  0.2859507622515369    0.37560511056456997    0.4618882868026842    0.33422948507708317    0.37561150294390505    
  0.3756045435718156    0.33422264630705645    0.2757592864488866    0.22593885783726833    0.199098616810484    
  0.19909725399012995    0.2259338126560805    0.2757552775171139    0.33422948507708317    0.25152401650286715    
  0.2757602130753025    0.2859408272230901    0.27575930916906116    0.2515274892894744    0.22506586837228978    
  0.20588972550814308    0.19909859100471894    0.20589637437626782    0.2250665391980268    0.25152401650286715    
  0.22463593951959623    0.22506148772242818    0.2259348967447804    0.22593885976718173    0.2250658829037634    
  0.2246288831725608    0.22506587352612265    0.2259388753059035    0.2259349228800256    0.22506151378058223    
  0.22463593951959623    0.25152398406232107    0.22506646762845556    0.20589637502656896    0.1990985739326801    
  0.20588983044306483    0.22506582060355196    0.25152750170562604    0.2757592217846043    0.2859408752780541    
  0.2757602088588577    0.25152398406232107    0.3342294476343968    0.2757552133017121    0.22593383715237975    
  0.19909720515443488    0.19909859323565682    0.22593880902760743    0.2757592397798932    0.33422271290447386    
  0.37560456236557044    0.37561155926859574    0.3342294476343968    0.4618882673856472    0.3756050540486145    
  0.2859507913863849    0.22593376729716835    0.20589642063599567    0.22593487585331148    0.2859408815045276    
  0.3756045766144291    0.4619059943983425    0.4986724578370949    0.4618882673856472    0.5882313948922476    
  0.49867956119759155    0.37560502006947527    0.27575525626010783    0.22506653909630128    0.2250615292614765    
  0.275760141764363    0.37561147978953907    0.49867245328220294    0.5882191071734583    0.5882313948922476    
  0.6431203319803183    0.5882315116811535    0.46188830974348977    0.3342293887874704    0.2515240286377497    
  0.22463597252988482    0.2515240308845289    0.33422949354559256    0.4618882802013749    0.5882315409552193    
  0.6431203319803183    0.6276219061581404    0.582961243628334    0.4728499486917512    0.3527550883876396    
  0.27079357930690945    0.24336041790978066    0.2707935953027514    0.3527551733437283    0.47284989878341677    
  0.5829612541703418    0.6276219061581404    0.5829611435707222    0.582956735740986    0.5058386156447947    
  0.39233436966952434    0.2949388252688723    0.24367387525177694    0.243677377222413    0.2949361842084365    
  0.3923263957309988    0.5058475146339189    0.5829611435707222    0.4728498926337525    0.5058385895965533    
  0.47286265247771614    0.392327125532498    0.30483068124060386    0.2443934869437255    0.2238268162663052    
  0.24439132705040248    0.30484042952433954    0.39232645006036054    0.4728498926337525    0.3527551447982721    
  0.3923342619612769    0.39232716142515744    0.35275159743257656    0.2949387655900059    0.24439664140652112    
  0.21680436798330904    0.21680501271701616    0.24439133962143433    0.2949362131445159    0.3527551447982721    
  0.2707935183075483    0.29493875649333884    0.30483067366853756    0.2949387723544272    0.27079486797401225    
  0.2436769252284563    0.2238216763025004    0.21680437694598054    0.22382680052119677    0.2436774172661054    
  0.2707935183075483    0.24336038654579467    0.24367392633336007    0.24439350105941177    0.2443966181556695    
  0.24367691404763575    0.24335634703609493    0.24367693783004848    0.24439665681717276    0.24439351692915837    
  0.2436739099752385    0.24336038654579467    0.2707935001659348    0.24367735358594506    0.22382681120860132    
  0.21680436918009838    0.22382175678142904    0.24367689437276804    0.2707948417300509    0.29493871734956134    
  0.30483070646836385    0.2949388058628259    0.2707935001659348    0.3527551506977567    0.2949362027665009    
  0.24439135375656748    0.21680500739204878    0.21680438046252978    0.24439660665737434    0.29493872787249137    
  0.3527515969322538    0.39232711520243235    0.3923342871733733    0.3527551506977567    0.4728499635478544    
  0.3923263599290586    0.30484046998018693    0.24439126986278117    0.22382687131349602    0.24439350705522725    
  0.30483069049545797    0.39232718044962744    0.47286262336275386    0.5058386513614286    0.4728499635478544    
  0.5829611115362902    0.5058474453336976    0.3923263558689502    0.2949362142636213    0.2436774011460505    
  0.24367393455500214    0.2949387221848247    0.39233425899627833    0.505838625340911    0.5829568735925229    
  0.5829611115362902    0.6276219061581404    0.582961243628334    0.4728499486917512    0.3527550883876396    
  0.27079357930690945    0.24336041790978066    0.2707935953027514    0.3527551733437283    0.47284989878341677    
  0.5829612541703418    0.6276219061581404    0.5071040310058034    0.5055384788037051    0.4733722638599401    
  0.3975793722818863    0.32527254970074876    0.29768136200332457    0.3252725338843592    0.3975794773009337    
  0.47337223317133287    0.5055385684542161    0.5071040310058034    0.5055384167855425    0.5055146195955142    
  0.48691088640573094    0.4261814594887769    0.34748521855426695    0.297515177409754    0.29751814409488425    
  0.34748289669358795    0.4261785576867865    0.4869073767607925    0.5055384167855425    0.4733721655561678    
  0.48691097469861283    0.47339546555083795    0.4261725039407778    0.3557426963398834    0.2975485746246738    
  0.2760937526050965    0.2975477702719692    0.355746154491765    0.4261786431153764    0.4733721655561678    
  0.3975794476510298    0.4261813256593658    0.42617251403163786    0.39757125874289445    0.34748359686220287    
  0.2975528747006468    0.2684480588812197    0.26845030900624023    0.29754780670113645    0.3474829395617086    
  0.3975794476510298    0.325272505294037    0.347485207541721    0.3557426891575781    0.34748360543293233    
  0.3252818677336391    0.29751685211846485    0.27608979408006395    0.26844806028735363    0.27609371648993913    
  0.2975182280399821    0.325272505294037    0.29768134334951685    0.29751517779003467    0.2975485356064006    
  0.29755290578652893    0.2975168534952875    0.2976714249162251    0.29751681827637527    0.297552947664602    
  0.2975485829362219    0.29751523807823355    0.29768134334951685    0.3252724478459059    0.29751812687100726    
  0.2760937265664278    0.26844800471791963    0.2760899040981482    0.29751679802564396    0.32528186622419447    
  0.3474835538591041    0.3557427349681799    0.3474852212638436    0.3252724478459059    0.39757942484482395    
  0.34748291095606015    0.2975477741395727    0.2684502738240707    0.26844804561134994    0.2975529390743668    
  0.34748356455229845    0.39757127703155704    0.426172489907988    0.4261814254823546    0.39757942484482395    
  0.4733723021764383    0.42617855849140396    0.35574624866885035    0.2975477439999021    0.27609381111624076    
  0.2975485551938011    0.3557427069388042    0.4261725283425988    0.4733955097942118    0.4869109625412663    
  0.4733723021764383    0.5055383793899275    0.4869073895962437    0.42617858732760905    0.34748295360839965    
  0.2975181965103192    0.2975152297587924    0.34748515116499273    0.4261814379745149    0.4869109290942557    
  0.5055146726184292    0.5055383793899275    0.5071040310058034    0.5055384788037051    0.4733722638599401    
  0.3975793722818863    0.32527254970074876    0.29768136200332457    0.3252725338843592    0.3975794773009337    
  0.47337223317133287    0.5055385684542161    0.5071040310058034    0.26055006030840294    0.31015578670334515    
  0.4077081987501716    0.43887329763378835    0.4007585949399454    0.37687370236820855    0.4007585739233501    
  0.4388734127066964    0.40770817490107064    0.31015580249063146    0.26055006030840294    0.310155716048941    
  0.31006789848213906    0.3835890843488848    0.43811553109368856    0.4153682869768603    0.3754059939213818    
  0.3754268572644175    0.41535078514326557    0.438104587384647    0.3835781217194575    0.310155716048941    
  0.4077081740257717    0.38358917046196056    0.4078095775285326    0.4380833792367456    0.41891107550177514    
  0.3735688515423564    0.3524509348047684    0.37356560610001116    0.4189361871039155    0.4381047067005722    
  0.4077081740257717    0.43887343042418564    0.4381154337872512    0.4380834015430169    0.43881836343548436    
  0.41535282538455914    0.3735978084188983    0.3437727941899489    0.34378219113104197    0.3735656558914613    
  0.41535084645724357    0.43887343042418564    0.40075852006744916    0.4153682877602125    0.41891102498263966    
  0.41535281522625245    0.4008221142787719    0.3754187463242713    0.352423856789035    0.34377276977619875    
  0.3524509302148441    0.37542694596913057    0.40075852006744916    0.37687366104637404    0.37540596417981287    
  0.37356883223972626    0.37359783953203857    0.37541874374192613    0.37680703760839723    0.3754187118346141    
  0.3735979194049689    0.37356882375326306    0.37540601897555403    0.37687366104637404    0.40075849035955385    
  0.37542686179900614    0.35245093435765334    0.34377275738824836    0.3524240184179174    0.3754187086461756    
  0.4008221570638081    0.4153527652334874    0.41891108767457685    0.41536833246368376    0.40075849035955385    
  0.43887335465375926    0.4153507780638188    0.3735656453344169    0.3437821733696817    0.34377279111058734    
  0.37359787779276493    0.41535281434246046    0.4388184042286288    0.4380833721585403    0.43811554225688654    
  0.43887335465375926    0.4077082337658475    0.4381046268490229    0.4189363079802977    0.3735655885668989    
  0.3524510226144734    0.3735687865101379    0.4189110555409462    0.43808337492516314    0.4078095715637501    
  0.38358918097110944    0.4077082337658475    0.3101557005207598    0.3835781173614754    0.43810458646999906    
  0.4153508436551429    0.3754269237424645    0.37540603920500176    0.4153682309524606    0.43811552332282466    
  0.38358916532654075    0.31006793166923524    0.3101557005207598    0.26055006030840294    0.31015578670334515    
  0.4077081987501716    0.43887329763378835    0.4007585949399454    0.37687370236820855    0.4007585739233501    
  0.4388734127066964    0.40770817490107064    0.31015580249063146    0.26055006030840294    0.09055335067785482    
  0.14352771812857656    0.3073370904199554    0.45288670729441755    0.46754475973652276    0.45173553437436864    
  0.46754474810952523    0.4528867931510455    0.3073370627254748    0.14352772307379616    0.09055335067785482    
  0.14352770506134663    0.14345386379021996    0.25606553408802396    0.41510803765778637    0.4693677340185418    
  0.44825899090729365    0.44829917593830937    0.4693403317638199    0.4150525852572287    0.25608680869782063    
  0.14352770506134663    0.3073370923045239    0.2560655624871186    0.30748574578762145    0.4150404892148809    
  0.4658383075517217    0.4435089845581666    0.4246483671705724    0.44349292856343153    0.4659292425455909    
  0.4150526738786661    0.3073370923045239    0.4528868068277211    0.4151079630679502    0.4150404939067901    
  0.45279494190331243    0.469329358753156    0.44359448025626563    0.4148693447930296    0.414902397071211    
  0.4434929740150702    0.4693404216639964    0.4528868068277211    0.467544693275856    0.4693677077459388    
  0.4658382877500558    0.46932935853298363    0.4676685598163605    0.44828531158092993    0.4245694669424677    
  0.4148693397428016    0.42464834058375084    0.44829928383241013    0.467544693275856    0.45173549549097614    
  0.4482590518012782    0.4435090614335385    0.4435944363268468    0.4482853157645691    0.4516043314172153    
  0.4482853286469829    0.44359447401700974    0.4435090810348022    0.44825904978902303    0.45173549549097614    
  0.46754466657130916    0.44829918707491384    0.42464836465966593    0.41486934143727716    0.42456961214572175    
  0.44828528486034824    0.46766849056152177    0.46932929816182795    0.4658383510958678    0.4693677656628898    
  0.46754466657130916    0.45288676777814224    0.46934039504039415    0.4434929707867585    0.4149024406889398    
  0.4148693545111324    0.4435944222948876    0.46932933789984166    0.45279495324323316    0.41504050070058557    
  0.4151079727041063    0.45288676777814224    0.3073370898367916    0.4150525611945162    0.46592933817913035    
  0.44349289545143267    0.4246484463889384    0.44350904858692025    0.4658383741240481    0.41504056446331644    
  0.30748570814794285    0.25606557156561655    0.3073370898367916    0.1435276677013303    0.25608674902682865    
  0.41505255186655143    0.4693404050476675    0.44829918640380484    0.44825907420388017    0.4693676472512491    
  0.41510794956712127    0.2560655496460059    0.14345390875211908    0.1435276677013303    0.09055335067785482    
  0.14352771812857656    0.3073370904199554    0.45288670729441755    0.46754475973652276    0.45173553437436864    
  0.46754474810952523    0.4528867931510455    0.3073370627254748    0.14352772307379616    0.09055335067785482    
  0.049264370761600035    0.09363782102980621    0.26276782087748685    0.45210955129606306    0.493972340474486    
  0.4829101976003895    0.4939723549827869    0.4521096639967684    0.2627678167104564    0.09363781265833518    
  0.049264370761600035    0.09363780197067345    0.09359853277212785    0.2054348100748258    0.3978437747346693    
  0.4887780687591342    0.4783778455565787    0.47841486377349784    0.48875957338075665    0.39775722252228535    
  0.20548120854309293    0.09363780197067345    0.26276784593067654    0.20543480362090588    0.26290101320337994    
  0.39776281162463384    0.481564171643582    0.4720483870316438    0.4547811485235619    0.4720242340543079    
  0.4816897701214377    0.39775730163350015    0.26276784593067654    0.45210968608476004    0.3978437223003182    
  0.39776284447090565    0.45202966203465555    0.4887318945591437    0.4721621179634555    0.44455499984586194    
  0.44460144154669673    0.4720242808072812    0.4887597113016295    0.45210968608476004    0.49397233508523053    
  0.48877809202850603    0.4815641016741112    0.48873194413485477    0.49409841125243964    0.47840522834825333    
  0.4546759849112629    0.4445549518724832    0.4547811977376389    0.4784150003724284    0.49397233508523053    
  0.48291020432033904    0.47837783525766303    0.47204845453827804    0.47216213855888023    0.47840528576762664    
  0.48277369792396085    0.4784052651522477    0.47216217138649114    0.47204850858749103    0.47837788366499523    