#     DFTpy    
  CRYSTAL 
    
  PRIMVEC    
  1.237980571182172    -2.144245248070661    0.0    
  1.237980571182172    2.144245248070661    0.0    
  0.0    0.0    2.3302796650344826    
  PRIMCOORD    
  1    1    
  Si    0.0    0.0    0.0    
  BEGIN_BLOCK_DATAGRID_3D    
  3d_datagrid_density    
  BEGIN_DATAGRID_3D#0    
  11    11    11    
  0.0    0.0    0.0    
  1.237980571182172    -2.144245248070661    0.0    
  1.237980571182172    2.144245248070661    0.0    
  0.0    0.0    2.3302796650344826    
  0.04961330928180563    0.09775756932018914    0.2728825327116981    0.4319543299440057    0.43296002266244193    
  0.41066087829887704    0.4329601008378372    0.43195423128634286    0.27288251322123147    0.09775758365749372    
  0.04961330928180563    0.09775753900213847    0.0976404906740398    0.21559732141735008    0.3930192764812458    
  0.4403271506271715    0.4074978098421394    0.40756316983587754    0.44027838008304304    0.3929279443422871    
  0.21562334698483102    0.09775753900213847    0.27288245414364554    0.21559725833977136    0.2731587565141161    
  0.3929003051130867    0.4384378381335904    0.403144795781342    0.3805277960692786    0.4031227768716632    
  0.4385897390078047    0.39292794666166136    0.27288245414364554    0.4319541711080359    0.39301921096935877    
  0.39290033620772213    0.4317728088659343    0.4402501600077946    0.4033069922572724    0.36976264253625324    
  0.3698255279259901    0.403122661291544    0.4402783223826326    0.4319541711080359    0.43295999226235343    
  0.44032716736298044    0.4384377991270308    0.4402501699623373    0.4332070973400557    0.40753264218762014    
  0.38039282649340045    0.36976272358933515    0.3805278550802395    0.4075632009702425    0.43295999226235343    
  0.4106609339379158    0.40749780035400934    0.40314474570342507    0.4033070347567053    0.40753266996848164    
  0.4104215006284513    0.40753268727444775    0.40330694481114937    0.4031448231414301    0.4074977988176888    
  0.4106609339379158    0.4329599564694382    0.40756310705607846    0.38052787957806816    0.36976271369184766    
  0.3803928031060759    0.4075326266657611    0.43320713899735136    0.44025011456091867    0.43843773768843075    
  0.4403273153286136    0.4329599564694382    0.43195417336292286    0.440278293282197    0.403122718424487    
  0.3698254944261649    0.36976275980342743    0.4033069685398197    0.44025007351216483    0.4317728466281829    
  0.39290030169861384    0.39301927241637147    0.43195417336292286    0.27288249313360213    0.3929279612064952    
  0.4385897871670686    0.403122675203666    0.3805278697079644    0.403144767879386    0.4384376963556227    
  0.39290034008544905    0.27315871733357133    0.21559730305461375    0.27288249313360213    0.0977575640889627    
  0.21562327734277612    0.3929280050278405    0.4402783508485831    0.40756320276055247    0.40749775193183607    
  0.4403272266553381    0.3930192870589437    0.21559728787803034    0.09764048044842948    0.0977575640889627    
  0.04961330928180563    0.09775756932018914    0.2728825327116981    0.4319543299440057    0.43296002266244193    
  0.41066087829887704    0.4329601008378372    0.43195423128634286    0.27288251322123147    0.09775758365749372    
  0.04961330928180563    0.0945394848137242    0.15153580724104257    0.31554093746603923    0.42692008940587833    
  0.40652173850944634    0.38190949800573937    0.4065217437652074    0.42692001831592313    0.3155409064747451    
  0.15153585127660707    0.0945394848137242    0.15153578329843198    0.15138203071341247    0.266762680914822    
  0.4046214362092575    0.41888122441599435    0.37951198122504476    0.3795660304660369    0.4188357911566743    
  0.40456722920398824    0.26675929836639034    0.15153578329843198    0.31554085681157024    0.26676264463382215    
  0.3158066513959158    0.4045220527962843    0.4202622242942669    0.3764329786268195    0.3531601827046427    
  0.3764231950719356    0.42035982720390047    0.40456726768662227    0.31554085681157024    0.4269199815887401    
  0.4046213511119521    0.40452206909775984    0.426758409562858    0.41882588686419364    0.37654898039281925    
  0.34288493669785536    0.3429238414453927    0.37642312326862715    0.4188358102528828    0.4269199815887401    
  0.40652169083282086    0.41888124054911574    0.4202621774885558    0.41882590797397956    0.4067249018521442    
  0.3795395742459758    0.3530641347207267    0.3428850117473049    0.35316017467711736    0.3795660677052398    
  0.40652169083282086    0.38190955257632264    0.3795120108518909    0.3764330006585628    0.37654899469086656    
  0.3795396458969077    0.3817127174193621    0.3795396582565335    0.3765488984888735    0.37643300107448524    
  0.3795120015027453    0.38190955257632264    0.406521659683259    0.3795659366880148    0.3531602511769504    
  0.3428849983114388    0.353064133261886    0.3795395386804588    0.4067248735378295    0.4188258776289837    
  0.42026213966734793    0.41888132226151414    0.406521659683259    0.42691996495299683    0.41883575483806773    
  0.3764231020006095    0.34292384353181043    0.342885034644333    0.3765489529597396    0.4188258090369876    
  0.4267584825441325    0.4045220199335284    0.4046214038314006    0.42691996495299683    0.3155408944042809    
  0.4045672535968837    0.42035987215834936    0.37642310268388507    0.35316022914385076    0.37643296531925063    
  0.42026210268560527    0.40452210464280947    0.31580666373882416    0.26676266694050044    0.3155408944042809    
  0.151535812267092    0.2667592215209238    0.404567272499731    0.4188357925730841    0.37956601774560633    
  0.37951196201177967    0.41888131537912826    0.4046214206719624    0.2667626617982892    0.15138202505752443    
  0.151535812267092    0.0945394848137242    0.15153580724104257    0.31554093746603923    0.42692008940587833    
  0.40652173850944634    0.38190949800573937    0.4065217437652074    0.42692001831592313    0.3155409064747451    
  0.15153585127660707    0.0945394848137242    0.2728284680202169    0.320509041908145    0.4006956507276062    
  0.39890614981920686    0.3416977807160225    0.31445008536438573    0.3416978153755303    0.3989060317537193    
  0.4006956104078935    0.3205090523020116    0.2728284680202169    0.32050900991556613    0.32038705627800657    
  0.38374773282724933    0.41010925666317155    0.361520355497568    0.31336060879275707    0.31338133552548175    
  0.36150081916674903    0.4100942319300778    0.38373231198994767    0.32050900991556613    0.40069553852017414    
  0.38374768580296803    0.40083892905080803    0.410065517184206    0.3680320724278104    0.3121719838920002    
  0.28940406873066543    0.3121710251136483    0.3680604747782836    0.4100942304422221    0.40069553852017414    
  0.3989060058160927    0.4101091564802299    0.41006551515052403    0.3988303394725439    0.36150518386051383    
  0.3122084103940381    0.2804915328676724    0.28050081382491493    0.3121709512902875    0.3615008803234448    
  0.3989060058160927    0.3416977815847138    0.36152030087128245    0.36803207344680466    0.3615052322478855    
  0.3417781528906045    0.31336963636888293    0.2893738279761115    0.2804916059931666    0.2894040568042101    
  0.31338137035734553    0.3416977815847138    0.31445014547190314    0.31336063993675717    0.31217196541069825    
  0.31220842895465895    0.31336968914741464    0.3143732659354181    0.3133697268488318    0.3122084038314937    
  0.31217197268044533    0.31336065577243427    0.31445014547190314    0.34169773575406537    0.31338129474909093    
  0.2894040774370889    0.28049161117332844    0.28937378085518767    0.31336966345472655    0.34177811887182324    
  0.36150518801762427    0.3680319872329674    0.36152038833408795    0.34169773575406537    0.39890603855568185    
  0.36150079381645134    0.31217094883043256    0.2805007647998919    0.28049162830295976    0.31220840031163666    
  0.36150511552201975    0.3988303901274839    0.41006550339837283    0.4101092172389547    0.39890603855568185    
  0.40069557270423495    0.41009422698258796    0.3680605101873598    0.3121709586528171    0.28940407173571464    
  0.3121719858248058    0.36803200119122076    0.41006562102786537    0.40083889880266776    0.38374768442608875    
  0.40069557270423495    0.32050900808151467    0.3837322179931462    0.4100942551217628    0.3615008248236083    
  0.3133813536320682    0.31336058119442844    0.3615203833040911    0.41010924496040185    0.3837477428068889    
  0.3203871321184836    0.32050900808151467    0.2728284680202169    0.320509041908145    0.4006956507276062    
  0.39890614981920686    0.3416977807160225    0.31445008536438573    0.3416978153755303    0.3989060317537193    
  0.4006956104078935    0.3205090523020116    0.2728284680202169    0.4937329358260565    0.4849475712046802    
  0.4353371894687626    0.345677424783938    0.2705082412648042    0.24375354345452577    0.2705082707546161    
  0.34567734430222513    0.43533714039616384    0.48494760028725786    0.4937329358260565    0.48494751279248766    
  0.4849224341497125    0.45394753781758956    0.37809862349675577    0.29296421439150805    0.24361157054407945    
  0.2436130009439182    0.2929639248540103    0.3780976489837291    0.4539403932626058    0.48494751279248766    
  0.43533708565429163    0.453947484648573    0.435359994756506    0.37809190362035    0.3016003384129972    
  0.2434306945426383    0.22309734278973078    0.24342984643929835    0.3015999794385518    0.3780976439125028    
  0.43533708565429163    0.34567732138327845    0.3780985198130947    0.3780919388027811    0.34566836990158806    
  0.29296303508179183    0.2434331637438303    0.21566797625028158    0.2156715344987351    0.24342975950509402    
  0.2929639561120873    0.34567732138327845    0.27050822081543335    0.2929641970985204    0.30160032665046344    
  0.2929630503026506    0.2705195201110448    0.2436113405709953    0.22309650324925354    0.21566802988615147    
  0.223097338562969    0.24361302572670565    0.27050822081543335    0.24375359558269197    0.2436115962932411    
  0.2434306583719853    0.2434331911469145    0.24361139316286548    0.24374361044268475    0.24361140045850532    
  0.24343317260506256    0.24343068597393205    0.24361162132194067    0.24375359558269197    0.27050819272391496    
  0.2436129774439726    0.22309735477405526    0.21566803179124525    0.22309645738112943    0.24361134322739234    
  0.27051948490776423    0.2929630558968454    0.3016002734187507    0.29296427917669643    0.27050819272391496    
  0.34567737134107757    0.2929638989107043    0.24342974909545925    0.21567150915966635    0.2156680529051916    
  0.24343316794747732    0.29296299555474425    0.3456684506161746    0.3780919332037882    0.37809857438525163    
  0.34567737134107757    0.43533707658783405    0.3780976366630811    0.3015999896526633    0.24342974653942798    
  0.2230973535345516    0.2434306828503682    0.3016002823030282    0.3780920365087269    0.4353599643663322    
  0.4539475097550326    0.43533707658783405    0.48494754245482563    0.45394031157859394    0.3780976661419111    
  0.29296390032052777    0.2436130026193849    0.24361156948085114    0.292964251469003    0.3780986186876884    
  0.45394755963794675    0.4849225204928406    0.48494754245482563    0.4937329358260565    0.4849475712046802    
  0.4353371894687626    0.345677424783938    0.2705082412648042    0.24375354345452577    0.2705082707546161    
  0.34567734430222513    0.43533714039616384    0.48494760028725786    0.4937329358260565    0.5655831514257189    
  0.5203146162264981    0.41103342428821693    0.29615244253621514    0.22035634837857268    0.1954214747593856    
  0.22035636240092327    0.29615240793433584    0.41103337756020053    0.5203146335403848    0.5655831514257189    
  0.5203145470895195    0.5203127233682325    0.4433233439905794    0.3332871564622086    0.24241245492542957    
  0.19593543468241584    0.19593438830815463    0.2424136394111271    0.3332922763943551    0.44331594473894737    
  0.5203145470895195    0.4110333571097769    0.44332327191004783    0.411028168345866    0.3332952955442868    
  0.25125637950234575    0.19640121292226614    0.17812956998763846    0.19640046553189294    0.2512526436258814    
  0.3332923163599313    0.4110333571097769    0.2961523759637818    0.3332871216106311    0.3332953096319504    
  0.2961495664078822    0.24240998304744832    0.19640158045210063    0.17159481474813887    0.1716003531789432    
  0.19640036401597386    0.24241366699181047    0.2961523759637818    0.22035633221258968    0.24241245631419003    
  0.25125637152623553    0.24241000072855637    0.2203633222329172    0.19593172900878003    0.17813446514046505    
  0.1715948585942341    0.17812958838383075    0.19593440668757953    0.22035633221258968    0.19542150773424197    
  0.19593545857782926    0.19640122504680632    0.1964016178105132    0.19593175784316455    0.19542160442680873    
  0.1959317699147279    0.19640155414628485    0.19640120997849547    0.19593544191722517    0.19542150773424197    
  0.22035631017335913    0.1959343389983462    0.178129614102973    0.17159486426546006    0.17813444193564884    
  0.19593169549507838    0.2203633188120933    0.24240998892501922    0.2512563153582449    0.2424125209103174    
  0.22035631017335913    0.2961523518290608    0.24241361315777615    0.19640037860013412    0.17160032510697343    
  0.17159488659036756    0.19640159030580928    0.2424099642208647    0.29614962719337906    0.3332952457229498    
  0.3332871405610354    0.2961523518290608    0.4110333808733164    0.33329231062650105    0.25125264560659305    
  0.19640038789030034    0.17812959844760023    0.1964012092425914    0.25125631498032536    0.3332953495174743    
  0.4110281666157944    0.4433232973226213    0.4110333808733164    0.5203145971430411    0.4433158701324378    
  0.33329229905692564    0.2424136365931082    0.19593439052945885    0.19593541325708336    0.24241253291807566    
  0.3332871351600851    0.4433232995007588    0.5203127970976158    0.5203145971430411    0.5655831514257189    
  0.5203146162264981    0.41103342428821693    0.29615244253621514    0.22035634837857268    0.1954214747593856    
  0.22035636240092327    0.29615240793433584    0.41103337756020053    0.5203146335403848    0.5655831514257189    
  0.5629021196098282    0.5108375551616223    0.39277589333690266    0.27679775285494995    0.20297884569739813    
  0.1789511906843498    0.20297891605921164    0.27679768729456644    0.39277587394160185    0.5108375499839368    
  0.5629021196098282    0.5108374835229148    0.5108440907167684    0.42672118288588184    0.3137509862992145    
  0.22454785710137853    0.17972337879693046    0.17972141790846766    0.22455224170183186    0.31374967838502515    
  0.42672259397960577    0.5108374835229148    0.3927758027465033    0.4267211160107403    0.39277252379061306    
  0.3137511914455229    0.23333106541116497    0.18047047808271716    0.16291639506431027    0.18046907123316244    
  0.23332747100838466    0.31374968782092316    0.3927758027465033    0.27679766341349543    0.3137509341149048    
  0.31375123363098983    0.27679981361510336    0.22454784561245036    0.1804675997363654    0.15665458142913816    
  0.15665569628669118    0.18046897869903977    0.22455220339468632    0.27679766341349543    0.20297883983620763    
  0.22454789938642802    0.23333104525555318    0.2245478569062286    0.20298052228646973    0.1797253395212166    
  0.16291661662802348    0.15665462848241035    0.16291641500165896    0.1797214501093983    0.20297883983620763    
  0.17895120630744002    0.17972337999010496    0.18047044424136913    0.18046762504322833    0.17972535515577093    
  0.1789445910557525    0.17972537873715833    0.1804675710774483    0.18047049511552452    0.17972337686302753    
  0.17895120630744002    0.20297882980370283    0.179721399828352    0.16291644502099306    0.15665461855988355    
  0.16291660004056527    0.17972533011750322    0.20298055031693377    0.2245478374277879    0.2333309923224134    
  0.22454798515610444    0.20297882980370283    0.2767976568239187    0.22455218933180934    0.18046901766138485    
  0.1566556703808893    0.1566546462078499    0.1804675948001105    0.22454782781526447    0.27679985128315515    
  0.31375120235721754    0.31375098876937946    0.2767976568239187    0.39277585951742433    0.31374969441627665    
  0.23332747421334044    0.1804689976144084    0.1629164250861526    0.1804704659594332    0.23333098600161328    
  0.3137512558633779    0.3927724874723941    0.4267211689221891    0.39277585951742433    0.5108374844368828    
  0.4267224506549727    0.31374971381196454    0.2245522282279892    0.17972145141744245    0.17972335218599125    
  0.22454793137998694    0.3137509855049071    0.4267211595431632    0.5108441265540089    0.5108374844368828    
  0.5629021196098282    0.5108375551616223    0.39277589333690266    0.27679775285494995    0.20297884569739813    
  0.1789511906843498    0.20297891605921164    0.27679768729456644    0.39277587394160185    0.5108375499839368    
  0.5629021196098282    0.5655831423447863    0.5203146304991073    0.4110334189629591    0.29615244972534455    
  0.22035637389094426    0.19542146539776029    0.22035637083406953    0.29615239828681444    0.41103338345767243    
  0.520314663952025    0.5655831423447863    0.5203145793390009    0.5203127755242842    0.44332331785082607    
  0.3332871756155749    0.24241242981895264    0.19593543201019034    0.19593439031542317    0.2424136277732428    
  0.33329227317213317    0.4433159398087071    0.5203145793390009    0.4110333508444023    0.4433232549177105    
  0.4110281672731478    0.33329529070990144    0.25125638428858577    0.19640121826143528    0.17812958450092015    
  0.1964004567759136    0.25125263239541995    0.3332923052776686    0.4110333508444023    0.29615238149257955    
  0.3332871229774555    0.3332953153498277    0.2961495497433893    0.24240999099197294    0.19640159751835573    
  0.17159482081172117    0.17160033330667107    0.19640039175341417    0.2424136570691859    0.29615238149257955    
  0.22035634688126574    0.24241246158071003    0.25125636669194357    0.2424100077252761    0.22036335365146217    
  0.19593171408732804    0.17813445787283338    0.17159486225685916    0.17812956748967831    0.19593441600938324    
  0.22035634688126574    0.19542149380378168    0.1959354643302081    0.19640123211954016    0.19640160979398213    
  0.19593175326296267    0.1954216048984753    0.19593178520709936    0.19640153405043662    0.19640122474684152    
  0.19593544697050969    0.19542149380378168    0.2203563224637785    0.19593433242212144    0.1781296266631283    
  0.17159485396905305    0.17813444788791577    0.1959316847358371    0.2203633320889056    0.2424099821544225    
  0.2512563253952512    0.2424125114035247    0.2203563224637785    0.2961523492039706    0.24241360889759986    
  0.19640037811791689    0.1716003357988338    0.17159487888517905    0.19640157524191895    0.24240994608820282    
  0.2961496183604456    0.33329525633009105    0.33328715740115467    0.2961523492039706    0.4110333895687191    
  0.33329229904575813    0.25125265748840214    0.19640037973276137    0.1781296077050952    0.1964012055852548    
  0.25125630403964355    0.3332953436844227    0.4110281678083137    0.4433233061512609    0.4110333895687191    
  0.5203146144736268    0.44331582774063805    0.33329230368771395    0.24241363065264368    0.1959343837115648    
  0.19593542485326262    0.24241251863020183    0.333287159873791    0.4433232872432968    0.5203127668104106    
  0.5203146144736268    0.5655831423447863    0.5203146304991073    0.4110334189629591    0.29615244972534455    
  0.22035637389094426    0.19542146539776029    0.22035637083406953    0.29615239828681444    0.41103338345767243    
  0.520314663952025    0.5655831423447863    0.49373295049406024    0.4849475704243924    0.43533719941814186    
  0.3456774407401103    0.27050823963151654    0.2437535392809444    0.27050826933359606    0.3456773379148744    
  0.4353371361279754    0.4849475561450549    0.49373295049406024    0.4849475316305163    0.48492243116854855    
  0.4539475348528692    0.3780986235631129    0.29296422147317747    0.24361158263818736    0.2436129799884015    
  0.29296391499614305    0.37809762962515936    0.4539403785410821    0.4849475316305163    0.43533707360187074    
  0.4539474816545532    0.4353599983718377    0.3780919281569092    0.30160035395467577    0.2434306946106807    
  0.22309734769957512    0.24342982608218347    0.3015999639199809    0.3780976356768048    0.43533707360187074    
  0.3456773198987027    0.3780985290203919    0.37809193422250503    0.34566839204169997    0.29296302644169936    
  0.24343316828942843    0.2156679687588999    0.21567154456080803    0.2434297531830394    0.292963956124204    
  0.3456773198987027    0.2705082490198806    0.292964180337414    0.30160035774090266    0.2929630608784396    
  0.27051950838235694    0.24361134057503653    0.22309651705433778    0.21566802901082965    0.22309733004735452    
  0.24361301518516107    0.2705082490198806    0.24375358576169795    0.24361159573100813    0.24343066644408576    
  0.24343319042487338    0.24361139165452242    0.24374361295944247    0.24361141869084899    0.24343316487550465    
  0.24343066865481708    0.2436116197121127    0.24375358576169795    0.27050819031669077    0.243612955624728    
  0.22309735753483606    0.21566803411829763    0.2230964713859147    0.24361135241645612    0.2705194723981359    
  0.2929630303009793    0.30160027517883303    0.29296425060639664    0.27050819031669077    0.3456773403494882    
  0.29296389287613916    0.24342975755332924    0.21567150554069073    0.2156680531320188    0.24343316242287993    
  0.29296297324259557    0.34566843764852273    0.37809192384877105    0.37809859350037694    0.3456773403494882    
  0.43533711518815266    0.37809763790460593    0.30160000012565547    0.2434297660006196    0.22309733939190518    
  0.24343068646600619    0.30160027465100436    0.37809203242081285    0.4353599667328727    0.4539475021216666    
  0.43533711518815266    0.48494752863404383    0.453940294383254    0.37809765698372605    0.29296390702317515    
  0.24361300099174316    0.24361156351911598    0.29296424285904127    0.37809861343685197    0.4539475346517312    
  0.48492254873229057    0.48494752863404383    0.49373295049406024    0.4849475704243924    0.43533719941814186    
  0.3456774407401103    0.27050823963151654    0.2437535392809444    0.27050826933359606    0.3456773379148744    
  0.4353371361279754    0.4849475561450549    0.49373295049406024    0.2728284754908315    0.3205090562575075    
  0.4006956710857394    0.3989061248947468    0.34169778117409966    0.3144500859480724    0.34169780719875825    
  0.3989060346930284    0.40069561553828537    0.3205090750137315    0.2728284754908315    0.32050902189927344    
  0.3203870530780652    0.3837477315302486    0.4101092718821826    0.3615203471567037    0.313360593708079    
  0.31338135248759874    0.36150083107991815    0.4100942274723664    0.38373230964339694    0.32050902189927344    
  0.4006955614169778    0.38374769687185134    0.400838943290328    0.4100654847529226    0.36803206110174913    
  0.3121719884204113    0.28940406795595885    0.3121710434605235    0.36806047906572276    0.41009422591913575    
  0.4006955614169778    0.39890601174290685    0.41010915399861886    0.4100655256793127    0.3988303233933324    
  0.3615052052523883    0.31220841659784193    0.28049155157459604    0.2805007971913334    0.31217094595062655    
  0.3615008624375789    0.39890601174290685    0.34169775735274477    0.3615203088837322    0.368032046084484    
  0.3615052291474835    0.34177818303947155    0.31336964276912016    0.28937381878887647    0.28049160381117616    
  0.28940406228302856    0.31338137077907974    0.34169775735274477    0.31445014420223216    0.31336061695103457    
  0.3121719476265598    0.31220843907610585    0.31336969480134613    0.3143732771585942    0.3133697054697275    
  0.31220840891830354    0.3121719793103626    0.3133606403104915    0.31445014420223216    0.3416977191575363    
  0.3133813159244818    0.28940408155964814    0.2804916133223005    0.28937377333662895    0.3133696381949483    
  0.34177814828101044    0.3615052157201249    0.36803198065031817    0.36152040462125234    0.3416977191575363    
  0.3989060553132023    0.36150079383329925    0.31217093818547614    0.2805007794496733    0.2804916322944885    
  0.3122084065069279    0.3615051411679449    0.3988304104674812    0.4100655172826056    0.410109205496797    
  0.3989060553132023    0.4006955470871289    0.41009422426191106    0.368060505538739    0.31217093632468745    
  0.28940409106253406    0.3121719755094355    0.3680319923836739    0.41006560971928296    0.4008388987909429    
  0.3837477217837287    0.4006955470871289    0.320509018164656    0.3837322375040625    0.4100942545769151    
  0.3615008147862228    0.31338134907208104    0.3133605807528815    0.3615203827111156    0.41010926034598233    
  0.38374773278605107    0.32038711591721203    0.320509018164656    0.2728284754908315    0.3205090562575075    
  0.4006956710857394    0.3989061248947468    0.34169778117409966    0.3144500859480724    0.34169780719875825    
  0.3989060346930284    0.40069561553828537    0.3205090750137315    0.2728284754908315    0.0945394837219686    
  0.15153580915800277    0.3155409422542992    0.4269200746529085    0.40652170372103674    0.3819095137613786    
  0.40652171616131344    0.4269200284803835    0.31554089819832704    0.151535833962445    0.0945394837219686    
  0.15153578266260134    0.15138201764486625    0.26676270461759766    0.4046214170839152    0.41888126162885986    
  0.3795119786321845    0.37956603170361686    0.4188357879041602    0.4045672175057067    0.266759303551399    
  0.15153578266260134    0.31554087677005876    0.26676265268598265    0.31580665883800496    0.404522054543328    
  0.42026221887556714    0.3764329690890753    0.3531601729429688    0.376423194204352    0.42035982987598625    
  0.40456726630119066    0.31554087677005876    0.4269199762298427    0.4046213626129988    0.4045220830937101    
  0.4267584394826584    0.4188259063667209    0.37654896526873893    0.3428849352501365    0.34292386734208    
  0.37642308812846886    0.41883581239583145    0.4269199762298427    0.40652168355385776    0.41888122987005055    
  0.4202621900946626    0.41882590971272143    0.4067248809822014    0.37953959560505507    0.3530641556252969    
  0.34288501206075017    0.3531602021718516    0.37956605073358163    0.40652168355385776    0.38190957719656    
  0.3795119951620979    0.37643299166781746    0.37654901174672256    0.3795396442199885    0.38171272163398595    
  0.379539644569978    0.376548918264225    0.3764329900499903    0.3795119867130962    0.38190957719656    
  0.40652163267313396    0.37956593687412754    0.35316024588001915    0.34288501503335933    0.3530641160258351    
  0.3795395513228988    0.40672485689628995    0.41882589054088243    0.42026212439917054    0.41888132501943753    
  0.40652163267313396    0.42691994011027623    0.41883574227201115    0.3764230879485349    0.3429238331374177    
  0.3428850481740665    0.37654896806133425    0.41882582774980975    0.4267584976922359    0.4045220110580599    
  0.4046213932352317    0.42691994011027623    0.31554088394960295    0.4045672531897641    0.42035985940070647    
  0.3764231094425796    0.35316021848357965    0.3764329712478954    0.420262096085818    0.4045221050304611    
  0.31580665215276854    0.2667626764820682    0.31554088394960295    0.15153580152456003    0.2667592596671798    
  0.4045672592268349    0.41883579611172794    0.37956602878325735    0.3795119381307882    0.4188813369191176    
  0.4046214039886387    0.266762660109217    0.15138202942766626    0.15153580152456003    0.0945394837219686    
  0.15153580915800277    0.3155409422542992    0.4269200746529085    0.40652170372103674    0.3819095137613786    
  0.40652171616131344    0.4269200284803835    0.31554089819832704    0.151535833962445    0.0945394837219686    
  0.04961330928180563    0.09775756932018914    0.2728825327116981    0.4319543299440057    0.43296002266244193    
  0.41066087829887704    0.4329601008378372    0.43195423128634286    0.27288251322123147    0.09775758365749372    
  0.04961330928180563    0.09775753900213847    0.0976404906740398    0.21559732141735008    0.3930192764812458    
  0.4403271506271715    0.4074978098421394    0.40756316983587754    0.44027838008304304    0.3929279443422871    
  0.21562334698483102    0.09775753900213847    0.27288245414364554    0.21559725833977136    0.2731587565141161    
  0.3929003051130867    0.4384378381335904    0.403144795781342    0.3805277960692786    0.4031227768716632    
  0.4385897390078047    0.39292794666166136    0.27288245414364554    0.4319541711080359    0.39301921096935877    
  0.39290033620772213    0.4317728088659343    0.4402501600077946    0.4033069922572724    0.36976264253625324    
  0.3698255279259901    0.403122661291544    0.4402783223826326    0.4319541711080359    0.43295999226235343    
  0.44032716736298044    0.4384377991270308    0.4402501699623373    0.4332070973400557    0.40753264218762014    
  0.38039282649340045    0.36976272358933515    0.3805278550802395    0.4075632009702425    0.43295999226235343    
  0.4106609339379158    0.40749780035400934    0.40314474570342507    0.4033070347567053    0.40753266996848164    
  0.4104215006284513    0.40753268727444775    0.40330694481114937    0.4031448231414301    0.4074977988176888    