#     DFTpy    
  CRYSTAL 
    
  PRIMVEC    
  3.878482758620689    0.0    0.0    
  0.0    3.878482758620689    0.0    
  0.0    0.0    3.878482758620689    
  PRIMCOORD    
  2    1    
  Si    0.0    0.0    0.0    
  Si    1.9392413793103445    1.9392413793103445    1.9392413793103445    
  BEGIN_BLOCK_DATAGRID_3D    
  3d_datagrid_density    
  BEGIN_DATAGRID_3D#0    
  17    17    17    
  0.0    0.0    0.0    
  3.878482758620689    0.0    0.0    
  0.0    3.878482758620689    0.0    
  0.0    0.0    3.878482758620689    
  0.059389214359012794    0.1087068422059481    0.26955204515406633    0.36703419996045356    0.2816015238561457    
  0.1699930526673629    0.10299352658335197    0.07198092825576302    0.06316076431854548    0.07198093070168105    
  0.10299352426036151    0.16999312906111294    0.281601574515196    0.36703415318281524    0.26955203524886645    
  0.10870683556396685    0.059389214359012794    0.1087068160611483    0.1645883969382698    0.3088767051060795    
  0.3620397414973656    0.26632836212228533    0.16139261111082004    0.09928942742744959    0.07038549527927984    
  0.0621272098356547    0.07038552639871903    0.09928939499732266    0.16139260525572352    0.26632838933249914    
  0.3620397931714091    0.3088767470538005    0.16458840198929398    0.1087068160611483    0.26955201530401385    
  0.30887666148142295    0.3644326816994023    0.3265985786172576    0.22447954062458317    0.13926592838931412    
  0.08988787148352465    0.06650822346831634    0.05975572271051277    0.06650824223738104    0.08988784595915306    
  0.13926597771116497    0.22447952262143323    0.3265984732733517    0.3644327463799012    0.30887668335859697    
  0.26955201530401385    0.3670341380216066    0.36203974404081074    0.3265985869687193    0.2513168357213152    
  0.17084009989736182    0.11266854058047301    0.07878795627572528    0.062249159187361784    0.05741620316274773    
  0.062249164230027444    0.0787879642857725    0.11266857841417395    0.1708400563736997    0.25131679115713457    
  0.3265985890526789    0.362039772949933    0.3670341380216066    0.28160149931391776    0.2663283648545599    
  0.22447948749253055    0.17084007247187397    0.12312819481359903    0.08960029886761366    0.069516011654745    
  0.05939914467412967    0.056411364523911676    0.05939916605660754    0.06951601576935698    0.08960033395076268    
  0.12312819154950894    0.17084002691447633    0.22447945140885828    0.26632833933407896    0.28160149931391776    
  0.16999306471428208    0.16139265546806186    0.13926594427894215    0.11266854522616741    0.08960034034314257    
  0.07333831661273577    0.0636064838966795    0.058796927755373755    0.057416227948704185    0.05879693613948556    
  0.06360650872805966    0.07333832552089598    0.08960033026501754    0.11266855253908598    0.13926596880830155    
  0.16139262343616298    0.16999306471428208    0.10299354398066479    0.0992894085143885    0.08988784352131617    
  0.0787879788207032    0.0695160500896019    0.06360649092492338    0.060786173415943376    0.0598899307405663    
  0.0597557424742902    0.05988995399075253    0.06078616625845634    0.06360651000423956    0.06951607534347039    
  0.07878794265534933    0.08988788859884607    0.09928940847106224    0.10299354398066479    0.07198091468573778    
  0.0703854890749678    0.06650821107664481    0.06224916204111915    0.0593991308525658    0.0587969263217876    
  0.059889952866633206    0.06141059027442713    0.0621272105597563    0.06141057663707745    0.05988993571964124    
  0.058796934847231225    0.05939913398408123    0.06224914795730639    0.06650822506771596    0.07038550836949031    
  0.07198091468573778    0.06316077150175341    0.062127216457536445    0.0597557298616171    0.057416241891094205    
  0.056411401399269534    0.057416200279556864    0.05975574687332142    0.06212721121875212    0.06316078257278095    
  0.06212720531804529    0.059755761271407255    0.05741623966227075    0.0564113767248758    0.05741619870765535    
  0.05975573721352419    0.062127217014570496    0.06316077150175341    0.07198092931542126    0.07038553171299296    
  0.06650823302499438    0.06224915299011443    0.05939916123698087    0.05879692788781798    0.059889963408661935    
  0.06141058707501104    0.06212720588346277    0.06141059008460385    0.05988994582231089    0.058796912817705174    
  0.0593991523078014    0.06224916035130364    0.06650824214649442    0.07038549787174424    0.07198092931542126    
  0.10299353340843746    0.09928941815756542    0.08988783632311012    0.07878799430497796    0.06951604883659619    
  0.0636064749745408    0.060786172154313624    0.05988994132157303    0.059755730962450224    0.05988992342971959    
  0.060786176031509334    0.06360652136074697    0.06951606423664976    0.07878794819551986    0.08988786527093469    
  0.09928938219064387    0.10299353340843746    0.16999304892697065    0.16139262074553748    0.13926593656743866    
  0.1126685775774356    0.08960031488506533    0.07333830661161277    0.0636064930194564    0.058796916016982774    
  0.05741620680587042    0.0587969077705723    0.06360651547813755    0.07333831769178098    0.08960035067510673    
  0.11266853091159634    0.13926593426601017    0.16139261014122805    0.16999304892697065    0.28160152992285276    
  0.2663284378105988    0.22447945634057284    0.17084006843427146    0.12312818829122484    0.08960030560686295    
  0.06951601691344086    0.059399134269692476    0.05641135836839942    0.0593991387794465    0.06951603270790097    
  0.08960033167204362    0.12312819720711284    0.17084002575537655    0.22447943718903673    0.26632837780766555    
  0.28160152992285276    0.3670341942906936    0.36203983478641044    0.3265985685592807    0.2513168179171258    
  0.17084006283383568    0.1126685645966998    0.07878798225642258    0.06224916484280412    0.057416203523493796    
  0.062249175548977916    0.07878796159469427    0.11266854937785838    0.1708400865783303    0.25131679110747046    
  0.32659850727630435    0.36203977671385507    0.3670341942906936    0.26955204418557727    0.3088767464174358    
  0.36443266001434244    0.3265985792848567    0.22447955959929855    0.13926593243985336    0.08988788363062478    
  0.06650823402399801    0.059755728079198406    0.06650822614735497    0.08988784901608231    0.13926596961995552    
  0.22447951734467556    0.3265985450428032    0.3644326846007235    0.3088767062082616    0.26955204418557727    
  0.10870682079603596    0.16458838370425455    0.3088766847998516    0.3620397958865726    0.2663283491852603    
  0.1613925950825259    0.09928938730421724    0.07038550590436272    0.062127200285538364    0.07038549396618485    
  0.09928938099523724    0.16139261717095918    0.26632832066524575    0.3620397477321747    0.3088766618584898    
  0.16458841258189605    0.10870682079603596    0.059389214359012794    0.1087068422059481    0.26955204515406633    
  0.36703419996045356    0.2816015238561457    0.1699930526673629    0.10299352658335197    0.07198092825576302    
  0.06316076431854548    0.07198093070168105    0.10299352426036151    0.16999312906111294    0.281601574515196    
  0.36703415318281524    0.26955203524886645    0.10870683556396685    0.059389214359012794    0.10870681145403648    
  0.16458839627952174    0.3088766724890928    0.36203974770470687    0.2663283398148478    0.16139255951534787    
  0.09928938990548909    0.07038549601120007    0.062127195728139774    0.07038548222863274    0.09928937112900738    
  0.16139261662357646    0.26632836470820154    0.3620397051575386    0.3088766552093429    0.1645883887607507    
  0.10870681145403648    0.16458837934334283    0.21988528071250524    0.3374973229671893    0.3529116964469048    
  0.2517529509191734    0.15362992418112628    0.09611329800056181    0.06915147978421173    0.061410573840801085    
  0.06915150585763706    0.09611327317791968    0.1536299159942697    0.2517529412090512    0.3529117334373824    
  0.3374973267031749    0.21988528690932674    0.16458837934334283    0.3088766070668473    0.3374973219629779    
  0.3659899071760327    0.31209102602043626    0.21275954142805353    0.13382141294354405    0.08807313603112989    
  0.06621869003801623    0.059889926411336565    0.06621870829605943    0.08807311383850253    0.1338214603967337    
  0.2127595746425477    0.31209088912158883    0.3659899192067469    0.33749735050040225    0.3088766070668473    
  0.36203974713398407    0.352911740201265    0.31209096346044507    0.23854851579258793    0.16370653175261915    
  0.11010694760408148    0.07873415181978478    0.06330998885618981    0.05879691357467203    0.06330999447860783    
  0.07873415422368514    0.11010695357258765    0.16370654420764885    0.238548495377377    0.31209099638426085    
  0.3529117523655479    0.36203974713398407    0.26632833446100923    0.25175297054808643    0.21275950536374494    
  0.1637065260321093    0.12019557809495543    0.08958952438485648    0.07128923433175108    0.06210272444711943    
  0.05939912328690724    0.06210273975113236    0.07128922886539531    0.08958953097524372    0.12019560937466156    
  0.16370650341909032    0.21275951147557812    0.2517529329581132    0.26632833446100923    0.16139259282184457    
  0.15362991935458803    0.1338214350586027    0.11010692198837843    0.08958955378594752    0.07533009235326242    
  0.06713523943179223    0.06330998529350147    0.062249153300011954    0.06330998890620107    0.06713523562391348    
  0.07533008765234064    0.08958954192225109    0.11010694408452647    0.13382141629487881    0.15362989407782648    
  0.16139259282184457    0.09928938903482946    0.09611329298218137    0.08807310712208383    0.07873416937197834    
  0.07128924615667619    0.06713523314067307    0.0659337333116358    0.06621870474356678    0.06650822813032778    
  0.06621870215405715    0.06593373667258653    0.06713524651124361    0.07128927250664048    0.07873413641920879    
  0.08807314076136195    0.09611329461852763    0.09928938903482946    0.07038549184907265    0.06915146633064748    
  0.06621869065597044    0.06330999528424917    0.06210271806706469    0.06330997968927936    0.06621869513735232    
  0.06915147393781555    0.07038549006478728    0.06915147610289596    0.06621870762766516    0.06330998326393181    
  0.06210273427736523    0.06330998358292048    0.06621869936476106    0.06915148814564949    0.07038549184907265    
  0.06212719906702152    0.06141057573173466    0.05988992403025908    0.05879693631495801    0.059399151340454176    
  0.06224912689108449    0.06650823071817714    0.07038549549351808    0.07198091705058582    0.0703854854811192    
  0.06650824213908207    0.062249175823073516    0.05939913878099857    0.0587968956083422    0.059889939925839915    
  0.06141058952893251    0.06212719906702152    0.07038549335972474    0.06915150977533112    0.06621869361600155    
  0.06330999405537333    0.06210272748812231    0.06330997447625278    0.06621871074483089    0.06915149248899412    
  0.07038548587583053    0.0691514886774284    0.06621870319068114    0.06330997556152387    0.06210273475713829    
  0.06331000146506034    0.06621870361495258    0.06915148292745812    0.07038549335972474    0.0992893761060573    
  0.09611329320752793    0.08807309645301808    0.07873417302410082    0.07128927345780571    0.06713521721643685    
  0.06593373703787292    0.06621870158723707    0.06650819552268636    0.06621870512922887    0.0659337659185309    
  0.06713524994303591    0.07128924216647246    0.07873413451096027    0.0880731318941379    0.09611326105939451    
  0.0992893761060573    0.16139257714533814    0.15362991981359053    0.13382141887870888    0.11010695991505833    
  0.08958955060033863    0.07533007623944975    0.06713523772016952    0.06330997614148084    0.06224915812361971    
  0.06330999698738425    0.06713524251927251    0.07533008670115354    0.08958953733083264    0.11010694156330118    
  0.13382142254615445    0.15362991560506517    0.16139257714533814    0.2663283064683219    0.2517529945419638    
  0.21275951378362737    0.16370651932606506    0.12019560838419872    0.0895895306307773    0.07128924861130105    
  0.06210272329132975    0.05939912976913629    0.06210273501691129    0.07128923393131578    0.08958953117240064    
  0.12019557352823737    0.16370650414155605    0.21275952160926334    0.25175293277113325    0.2663283064683219    
  0.36203975169189984    0.3529117582069169    0.3120909758200413    0.23854849330275094    0.1637065376987677    
  0.11010695074235431    0.07873414335778146    0.06330997874107726    0.05879690557939233    0.06330998289507327    
  0.07873414746016671    0.11010691641826247    0.1637065535778775    0.2385485203898069    0.3120909158738207    
  0.35291173967234857    0.36203975169189984    0.3088766406566807    0.337497352159949    0.3659899006974081    
  0.3120909943479877    0.21275959870605202    0.13382142213664608    0.08807313834990796    0.06621870056817052    
  0.05988992967488927    0.06621869689521044    0.08807311631996229    0.13382146357826583    0.21275954669217498    
  0.3120909822080558    0.36598987672621996    0.3374973435304467    0.3088766406566807    0.16458836438159263    
  0.21988524551748756    0.3374973540305675    0.3529116982598483    0.2517529442710571    0.15362991239757878    
  0.09611327405783492    0.06915148538995741    0.06141057163358333    0.06915146619625526    0.09611327567668203    
  0.15362991582288132    0.2517529292312541    0.3529117848333204    0.33749728351911157    0.2198852661567931    
  0.16458836438159263    0.10870681145403648    0.16458839627952174    0.3088766724890928    0.36203974770470687    
  0.2663283398148478    0.16139255951534787    0.09928938990548909    0.07038549601120007    0.062127195728139774    
  0.07038548222863274    0.09928937112900738    0.16139261662357646    0.26632836470820154    0.3620397051575386    
  0.3088766552093429    0.1645883887607507    0.10870681145403648    0.26955200223020703    0.3088766680997    
  0.36443265051403134    0.32659851772735277    0.22447947317664546    0.13926591366020924    0.08988783569341681    
  0.06650823531165942    0.05975572587242227    0.06650822647916964    0.08988782777229251    0.1392659689200405    
  0.22447949552805174    0.32659851389152844    0.36443266921981193    0.30887668937976925    0.26955200223020703    
  0.3088766969978235    0.3374973082055269    0.3659899212650291    0.3120909152273996    0.21275952925079908    
  0.1338214584660047    0.08807313405932418    0.06621869452165614    0.059889941889486355    0.06621872505946652    
  0.08807310806623932    0.13382143292059467    0.21275956921900904    0.31209095432257267    0.3659899277785721    
  0.33749732756718476    0.3088766969978235    0.3644326371831114    0.3659898663801811    0.3412298080463664    
  0.26761360246350613    0.18242703993980225    0.12001128389203954    0.08364979459947836    0.06593371171519856    
  0.060786132282619296    0.06593372765942228    0.08364976721453458    0.12001129930695854    0.18242705791288266    
  0.26761347543148795    0.34122983871331686    0.36598990060056386    0.3644326371831114    0.3265985134938355    
  0.31209097772309363    0.2676135470561509    0.20441109813390107    0.14543927435578785    0.10386386450661367    
  0.07930234957593463    0.06713524113823358    0.06360648025425637    0.06713524095061724    0.07930233642441561    
  0.1038638800192661    0.14543926644516195    0.20441108986295473    0.2676135792926162    0.31209100911029686    
  0.3265985134938355    0.2244794656649832    0.21275960785836523    0.1824270074738513    0.14543926054417713    
  0.11310931181187621    0.09061672432658024    0.07755333778013133    0.07128924350047264    0.06951601637978483    
  0.07128924796753133    0.07755333085770415    0.09061674136854993    0.11310929705464089    0.14543922958616318    
  0.18242698352568246    0.21275955053954373    0.2244794656649832    0.13926592972071136    0.1338214662183103    
  0.12001130279095851    0.10386385125324743    0.09061678541502989    0.08255300399292001    0.07930236146053862    
  0.07873415628794393    0.07878795628667308    0.0787341513202588    0.07930236241892769    0.08255297956716627    
  0.09061676134224546    0.1038638697471317    0.12001127303623725    0.13382143142715966    0.13926592972071136    
  0.08988784150209311    0.08807312410139428    0.08364974783390698    0.07930235775483557    0.07755338701219588    
  0.07930234748041674    0.08364978991973462    0.08807309343023938    0.08988782985075595    0.08807312365499492    
  0.08364978009291042    0.07930235805162895    0.07755339218759705    0.07930234475863081    0.08364980249153017    
  0.08807312843835118    0.08988784150209311    0.06650821972676896    0.06621868952435672    0.06593369971552494    
  0.06713525090905885    0.07128922812284927    0.07873413771137792    0.08807312758776312    0.0961132772253014    
  0.09928939352782616    0.09611326629905036    0.08807310574175768    0.07873415164844233    0.07128924557239574    
  0.06713523774497063    0.06593370817984545    0.06621871160869397    0.06650821972676896    0.059755725043763766    
  0.059889948433695904    0.06078613396649453    0.06360650393501366    0.06951603953246328    0.07878795308801347    
  0.08988785466440824    0.09928939084997501    0.10299351776543636    0.09928937372336005    0.08988785914754013    
  0.07878797892594061    0.0695160259245417    0.0636064599979442    0.0607861385224635    0.059889952784787134    
  0.059755725043763766    0.06650822514203555    0.06621873123956039    0.06593371645821593    0.0671352360107078    
  0.07128926388151434    0.07873414814349064    0.08807313790666102    0.09611328299097983    0.09928939531311587    
  0.09611328890347522    0.08807311430933129    0.07873412697311927    0.07128924346936472    0.06713524963056659    
  0.06593372347547219    0.06621869741114567    0.06650822514203555    0.08988782832072847    0.08807313106338746    
  0.08364975305205115    0.0793023652955057    0.07755338949948647    0.07930233243841024    0.08364979278583047    
  0.08807312630505611    0.08988782466176705    0.08807310758190437    0.08364979228802534    0.07930237418697926    
  0.07755336824847107    0.07930234780353797    0.08364978356750707    0.08807310141535195    0.08988782832072847    
  0.13926592002592575    0.13382143503019175    0.12001126369394992    0.1038638843481    0.09061675948036148    
  0.08255297761545988    0.07930234363889606    0.07873417009793547    0.07878794685427212    0.07873416937075908    
  0.07930235768528958    0.0825529703829749    0.09061675841122839    0.10386385818651582    0.12001127826664224    
  0.13382142935268568    0.13926592002592575    0.22447946389941065    0.21275956758581038    0.18242697519145804    
  0.14543925129452698    0.1131092995630749    0.09061672581344567    0.07755334851385878    0.07128924162421331    
  0.06951601091233853    0.0712892743710043    0.07755336106867954    0.09061674970082295    0.11310931046457559    
  0.14543923904616846    0.1824269820706739    0.21275954502312655    0.22447946389941065    0.3265985032047436    
  0.3120909936071248    0.26761357641856637    0.2044110874419284    0.14543927679754254    0.1038638798548699    
  0.07930234749463917    0.06713524189298241    0.06360648391213868    0.06713525157877272    0.0793023510139173    
  0.10386384727009487    0.14543929614834078    0.20441114639968033    0.2676135670981024    0.3120909811630655    
  0.3265985032047436    0.36443262718371383    0.36598992710880646    0.34122980717576906    0.26761356930847346    
  0.18242706329033767    0.1200112860185808    0.08364979850081418    0.0659337199883051    0.060786139302326084    
  0.06593371965361845    0.08364975622688979    0.12001130355245655    0.18242704767448442    0.26761356773037975    
  0.34122981874445196    0.3659898674802841    0.36443262718371383    0.3088766883421458    0.3374973185072936    
  0.36598992476261216    0.3120909487576464    0.21275955061355398    0.13382143769863453    0.08807310779984527    
  0.06621870483049704    0.05988993595309618    0.06621868929712876    0.08807309534209716    0.13382144022050568    
  0.2127595045777604    0.31209092238682445    0.3659898722515009    0.3374973107261968    0.3088766883421458    
  0.26955200223020703    0.3088766680997    0.36443265051403134    0.32659851772735277    0.22447947317664546    
  0.13926591366020924    0.08988783569341681    0.06650823531165942    0.05975572587242227    0.06650822647916964    
  0.08988782777229251    0.1392659689200405    0.22447949552805174    0.32659851389152844    0.36443266921981193    
  0.30887668937976925    0.26955200223020703    0.36703411083638265    0.36203970760122817    0.3265985572722049    
  0.25131679994301254    0.17084005361161123    0.11266852913143395    0.07878795829903397    0.062249160452214826    
  0.05741620370714307    0.062249147724513385    0.07878794435855235    0.1126685928731628    0.17084005981998998    
  0.2513167546865359    0.32659851591781375    0.36203973996235583    0.36703411083638265    0.36203973209186086    
  0.3529117330356214    0.31209095813681115    0.2385484757644227    0.16370653419417536    0.11010696158182451    
  0.07873417267539318    0.06330998693540105    0.05879691448455676    0.06331002058885588    0.07873415120887925    
  0.11010695692966412    0.16370654327748513    0.23854849821117313    0.3120909854793018    0.35291176789708867    
  0.36203973209186086    0.3265984459345197    0.3120909283628186    0.267613559854174    0.20441112323846455    
  0.14543928858671262    0.1038638717250922    0.07930236570987706    0.0671352444274524    0.06360647300330863    
  0.06713524749417597    0.07930233536906388    0.10386390527939646    0.14543928532143982    0.20441104351847825    
  0.2676135809987754    0.3120909897269834    0.3265984459345197    0.25131672576684216    0.23854850351994364    
  0.2044111003742795    0.1616309059268164    0.12393432233553879    0.09775607101104468    0.08255299073703198    
  0.07533008436295159    0.07333828847666149    0.07533007739703433    0.08255298489110852    0.09775611137670516    
  0.12393430935164042    0.16163089066785066    0.20441113954652787    0.23854849064871989    0.25131672576684216    
  0.17084006035395832    0.1637065445038066    0.14543924746843157    0.12393429677452233    0.10623899070834922    
  0.09530971270858628    0.09061674935683628    0.08958954308740472    0.08960028035221122    0.08958954872404312    
  0.09061672928619663    0.09530974703247466    0.10623898776214594    0.12393428696269825    0.14543923574130166    
  0.16370653311072195    0.17084006035395832    0.11266855869474678    0.11010698145481876    0.10386387684713888    
  0.09775609004238404    0.09530978358338295    0.09775609848977243    0.10386388804059851    0.11010694880841587    
  0.11266855264389532    0.11010693455179993    0.10386388855059568    0.09775612916920341    0.09530974295620584    
  0.09775609110914202    0.10386387011186929    0.11010696564568144    0.11266855869474678    0.078787950411947    
  0.07873415994115099    0.0793023342885318    0.08255300790019213    0.09061675683632399    0.10386388385146186    
  0.1200112910630832    0.1338214371075895    0.13926592312916786    0.13382143980377084    0.12001127578685192    
  0.1038638943669921    0.09061678103493903    0.0825529782717364    0.07930238906002655    0.07873416646790916    
  0.078787950411947    0.06224914755533981    0.06330997605857834    0.06713523763508046    0.07533009205457854    
  0.0895895324823658    0.1101069445286825    0.13382144324769493    0.15362988428034485    0.1613925795314382    
  0.15362987069059453    0.13382141653504154    0.11010693495592448    0.08958952525512728    0.07533007552999894    
  0.06713523010813183    0.06330999738252466    0.06224914755533981    0.05741620315713661    0.05879691975412266    
  0.06360647007436004    0.07333832806924574    0.08960031584736702    0.11266853688000954    0.1392659585948553    
  0.1613925970575226    0.16999305320591518    0.16139258526945943    0.139265967359988    0.11266858142340208    
  0.08960030359081848    0.07333827380740274    0.06360647999609245    0.05879692925907486    0.05741620315713661    
  0.06224914840514376    0.0633100260971329    0.06713524096508039    0.07533008641585646    0.08958955443359662    
  0.11010694507896504    0.1338214596790491    0.15362992167357215    0.16139258928654343    0.15362990725005876    
  0.13382143128264448    0.11010693623827149    0.08958954062268046    0.07533008831709591    0.06713525346036255    
  0.06330999325458117    0.06224914840514376    0.07878794395813918    0.07873417305009538    0.07930233127349143    
  0.08255301015282136    0.09061677101277514    0.10386383982550768    0.12001131149675243    0.13382144167012963    
  0.13926587903524307    0.13382140710232812    0.12001129463555696    0.10386388527648645    0.09061676934029712    
  0.08255298322732241    0.07930235742329673    0.07873415270816642    0.07878794395813918    0.11266853781984197    
  0.11010695773730979    0.10386388366664896    0.09775611521370312    0.09530975287124974    0.09775608876023681    
  0.10386389732514642    0.11010695531155101    0.11266852803422939    0.11010696476540013    0.10386387721214142    
  0.09775611052512347    0.09530975633394335    0.09775607679984    0.10386387727595299    0.11010695821602602    
  0.11266853781984197    0.1708400151482253    0.16370654983711225    0.14543923587577962    0.12393431440874368    
  0.10623898863254187    0.09530972270444447    0.09061673944920776    0.08958954416536812    0.08960031480317729    
  0.08958954786638296    0.09061673890873229    0.0953097411482141    0.10623898765125142    0.12393427863055569    
  0.14543925022282495    0.16370653911230978    0.1708400151482253    0.2513167787456699    0.2385484805423339    
  0.20441111510346704    0.16163090692659723    0.12393431240614552    0.09775609197079219    0.08255298189638977    
  0.0753300929208579    0.07333829851406484    0.07533009496736853    0.08255297467788122    0.09775607948266937    
  0.12393434116617034    0.16163090845632688    0.2044110955994516    0.2385485107148751    0.2513167787456699    
  0.3265985081344189    0.3120910071088345    0.26761355020033156    0.20441114506280134    0.14543929997903357    
  0.10386387667019642    0.0793023876658589    0.06713524338394183    0.06360647039350437    0.06713524459039796    
  0.07930233625875563    0.10386390624691631    0.14543926434731097    0.20441113033173908    0.267613535849441    
  0.3120909798454452    0.3265985081344189    0.3620397405959172    0.3529117187761562    0.3120909769665162    
  0.2385484624139442    0.16370651925753146    0.11010694564018537    0.07873414419120918    0.06330999177918364    
  0.058796913974540364    0.0633099748244297    0.07873414928379237    0.11010696187199483    0.16370652472496205    
  0.23854848136628637    0.3120909562568215    0.35291172140490984    0.3620397405959172    0.36703411083638265    
  0.36203970760122817    0.3265985572722049    0.25131679994301254    0.17084005361161123    0.11266852913143395    
  0.07878795829903397    0.062249160452214826    0.05741620370714307    0.062249147724513385    0.07878794435855235    
  0.1126685928731628    0.17084005981998998    0.2513167546865359    0.32659851591781375    0.36203973996235583    
  0.36703411083638265    0.28160155622798005    0.26632834389966814    0.2244795179460048    0.17084006885326455    
  0.12312813915843349    0.08960029022165725    0.06951602928028522    0.05939914689101427    0.05641137349945609    
  0.05939914830055243    0.06951601298020493    0.0896003391398911    0.12312817584918472    0.17084001671022664    
  0.2244794943325524    0.2663283566620299    0.28160155622798005    0.2663283269206678    0.2517529511278154    
  0.21275955512885292    0.1637065001626328    0.12019556960378033    0.08958955017519611    0.07128926961889714    
  0.06210272079974929    0.05939913636480268    0.0621027519263555    0.07128924592424622    0.08958953171169723    
  0.1201955661634718    0.1637065270922081    0.21275957826832886    0.2517529438696452    0.2663283269206678    
  0.22447945568316718    0.2127595277470759    0.18242704654381597    0.14543930963518906    0.11310931110161226    
  0.09061673999879521    0.0775533888676138    0.0712892449116478    0.0695160197531581    0.07128925514233242    
  0.07755335442081157    0.09061677549942045    0.11310928036314309    0.14543922875986218    0.18242705410631824    
  0.21275955703336233    0.22447945568316718    0.1708400280495161    0.1637065116757501    0.145439302014862    
  0.12393432417343263    0.10623900435549893    0.09530972191711656    0.09061675334391091    0.08958953796761523    
  0.08960029879227044    0.08958953780486073    0.09061675157565435    0.09530975601228374    0.10623896329853617    
  0.12393430388206092    0.14543927608360027    0.16370651215383436    0.1708400280495161    0.12312813432995415    
  0.12019557254993173    0.11310927521720705    0.10623897552817042    0.10351785392713035    0.10623894561356678    
  0.11310925022565718    0.12019557908857313    0.12312813157482125    0.12019561264959237    0.11310925754354244    
  0.10623898179835929    0.10351784726716451    0.10623894983985493    0.11310925405699913    0.12019558377539229    
  0.12312813432995415    0.08960030975045989    0.0895895575243176    0.09061674931326753    0.09530971994950943    
  0.10623899888340484    0.12393431276279906    0.14543927524359823    0.16370654099018503    0.17084005961615722    
  0.16370654151746464    0.1454392868897826    0.12393430498637173    0.10623896953451333    0.09530973483357842    