#     DFTpy    
  CRYSTAL 
    
  PRIMVEC    
  3.0473793103448275    0.0    0.0    
  0.0    3.0473793103448275    0.0    
  0.0    0.0    3.0473793103448275    
  PRIMCOORD    
  2    1    
  Si    0.0    0.0    0.0    
  Si    1.5236896551724137    1.5236896551724137    1.5236896551724137    
  BEGIN_BLOCK_DATAGRID_3D    
  3d_datagrid_density    
  BEGIN_DATAGRID_3D#0    
  13    13    13    
  0.0    0.0    0.0    
  3.0473793103448275    0.0    0.0    
  0.0    3.0473793103448275    0.0    
  0.0    0.0    3.0473793103448275    
  0.05443991078147353    0.10749948004446246    0.28437307055372363    0.3855641317718641    0.304788794579943    
  0.21705703721665018    0.18771773847773454    0.2170570523294506    0.3047887896548207    0.38556415716460174    
  0.28437312491196165    0.10749950073803018    0.05443991078147353    0.10749946275837137    0.1700092788829751    
  0.3310352738352788    0.3873920030584579    0.2982832404517547    0.21548269696304415    0.18792528701799222    
  0.21548272559314607    0.2982831996435527    0.3873920097669848    0.33103521270155656    0.17000932637079547    
  0.10749946275837137    0.28437307850848403    0.3310352474974849    0.399644065138062    0.3696844716874022    
  0.2788732083823701    0.21109642447291171    0.18839742563836787    0.21109640855785203    0.2788732096768442    
  0.3696844508824428    0.3996440340521272    0.33103526104270437    0.28437307850848403    0.3855641296836732    
  0.3873920040376632    0.3696844752228358    0.31372696994684396    0.24890275798645448    0.20420431593992935    
  0.18863795659871296    0.20420433058824333    0.2489027403436707    0.3137269980866971    0.3696844495006756    
  0.38739201054737765    0.3855641296836732    0.3047887825007202    0.2982832483581781    0.2788731750233379    
  0.24890274849430385    0.21826868734172666    0.19645775619612302    0.18839743993182165    0.1964577371615613    
  0.21826873446092712    0.24890274187331657    0.2788731943264512    0.2982832084847965    0.3047887825007202    
  0.21705707649563263    0.21548269418024396    0.21109641932602924    0.2042043387560316    0.19645777525005845    
  0.190337154746451    0.18792525044944547    0.19033716334093434    0.19645777861314548    0.20420432686278758    
  0.211096407314805    0.21548268895679107    0.21705707649563263    0.1877177500918168    0.18792527740458617    
  0.18839740507341923    0.18863795480459644    0.18839744101473652    0.18792524915537112    0.1877177489785208    
  0.187925255129878    0.1883974227894131    0.18863795206796935    0.18839743564735303    0.187925269804188    
  0.1877177500918168    0.21705705120126217    0.21548271603909508    0.21109640482174863    0.2042043192658339    
  0.1964577458484555    0.19033715177807403    0.18792528300297373    0.19033717762671123    0.1964577712471582    
  0.20420434356254688    0.2110963995044659    0.2154827232129672    0.21705705120126217    0.3047887675543931    
  0.298283188618024    0.2788732081394295    0.2489027246536841    0.21826873931846716    0.19645775079514347    
  0.1883974243809545    0.19645775843493185    0.21826877104918962    0.24890271251308987    0.2788731726874845    
  0.2982832330878637    0.3047887675543931    0.3855641355343669    0.3873919855114453    0.36968446729409815    
  0.3137270194976886    0.24890276380884663    0.2042043251526543    0.18863796478307698    0.2042043149414917    
  0.24890275524461314    0.31372700784901947    0.36968442845245125    0.3873920273677256    0.3855641355343669    
  0.2843730783774263    0.33103530085640864    0.3996440268027633    0.3696844583594802    0.278873175379071    
  0.2110963932298628    0.18839743521560162    0.21109641462613132    0.27887316731601286    0.36968449839074935    
  0.3996440259907104    0.33103528259788295    0.2843730783774263    0.10749948393188684    0.17000929408545137    
  0.3310352727671069    0.3873919990657017    0.29828324537879175    0.2154827171238305    0.1879252811680379    
  0.21548269914849522    0.2982832037689197    0.38739199548148756    0.3310352412534397    0.17000928005038796    
  0.10749948393188684    0.05443991078147353    0.10749948004446246    0.28437307055372363    0.3855641317718641    
  0.304788794579943    0.21705703721665018    0.18771773847773454    0.2170570523294506    0.3047887896548207    
  0.38556415716460174    0.28437312491196165    0.10749950073803018    0.05443991078147353    0.1074994809416575    
  0.17000931552301451    0.3310352435303866    0.38739195203213384    0.2982832207904749    0.215482670391591    
  0.1879252779011906    0.21548266550671344    0.29828319319304686    0.38739195581714025    0.3310352834156459    
  0.17000929316594965    0.1074994809416575    0.17000926098232705    0.23335863791973332    0.36696789772952376    
  0.3867819497218503    0.2940977376621656    0.216214023392155    0.19033717089055907    0.2162140579301182    
  0.2940977205910076    0.38678196563088524    0.36696787708764694    0.23335864209500687    0.17000926098232705    
  0.3310352679261193    0.36696789893517284    0.40963327902738944    0.367428675534598    0.2807280572968047    
  0.2176668155826841    0.19645775470296964    0.21766684052091365    0.2807280266549017    0.3674286768988394    
  0.4096332829774527    0.3669679085121221    0.3310352679261193    0.38739197591804125    0.38678197641793655    
  0.3674286708588497    0.31658062221724476    0.2587432443571318    0.21837485110641647    0.2042043460378284    
  0.21837486034103315    0.25874320855566424    0.31658065357665843    0.3674286573071489    0.386781971278727    
  0.38739197591804125    0.29828317590274306    0.2940977373486499    0.28072802159444266    0.2587432228893842    
  0.23513004045785585    0.21766682228225018    0.21109641201546628    0.21766680837705876    0.23513007718578205    
  0.2587432433541568    0.28072801035054173    0.2940977362509637    0.29828317590274306    0.2154827082229085    
  0.21621400278012615    0.21766684862373586    0.21837488835256366    0.21766684946921672    0.21621402558588398    
  0.2154826950797358    0.21621404874237463    0.2176668289069751    0.2183748546388572    0.21766682989712957    
  0.2162140313313401    0.2154827082229085    0.1879252765862151    0.19033716741507234    0.19645774185883166    
  0.2042043123828981    0.21109642012082752    0.2154826802113092    0.2170570879176557    0.21548268015579283    
  0.21109641325094228    0.2042043021432378    0.1964577494188939    0.19033716620115904    0.1879252765862151    
  0.21548267052817172    0.21621405732174775    0.21766685452717494    0.21837484297092008    0.21766685478785722    
  0.21621404469330677    0.215482697966242    0.2162140413842623    0.21766682228556267    0.2183748784214502    
  0.21766681596678236    0.2162140687229431    0.21548267052817172    0.2982831908107738    0.29409769279594067    
  0.2807280287390012    0.2587432331782775    0.2351300720213312    0.21766681500380108    0.2110964054474989    
  0.2176668339080503    0.23513009267053928    0.25874320528903266    0.2807280021775222    0.2940977122499851    
  0.2982831908107738    0.38739197440602396    0.3867819964737427    0.3674286266779071    0.31658065751292735    
  0.2587432500933534    0.218374855458056    0.20420433902151996    0.21837484348115732    0.2587432384995687    
  0.3165806812455187    0.3674286280788964    0.3867820331400651    0.38739197440602396    0.3310352528084187    
  0.3669679320975246    0.4096332572752101    0.3674286376548803    0.28072801386649376    0.2176668075507017    
  0.19645776062869635    0.21766683320599514    0.28072802538325375    0.3674287136839305    0.4096332733077234    
  0.36696792231144937    0.3310352528084187    0.17000929154181119    0.23335864649902155    0.36696790548131486    
  0.3867820008643113    0.2940977409295901    0.21621403175109732    0.19033717310012305    0.21621403564839925    
  0.29409773924169774    0.38678196524122516    0.36696788505026295    0.23335861426446572    0.17000929154181119    
  0.1074994809416575    0.17000931552301451    0.3310352435303866    0.38739195203213384    0.2982832207904749    
  0.215482670391591    0.1879252779011906    0.21548266550671344    0.29828319319304686    0.38739195581714025    
  0.3310352834156459    0.17000929316594965    0.1074994809416575    0.28437308575006764    0.33103529063078224    
  0.39964402473086685    0.3696844322963767    0.2788732260709567    0.2110963553175686    0.18839743611947735    
  0.21109637985875682    0.27887318086183865    0.36968443914516746    0.39964406230276006    0.3310352739623289    
  0.28437308575006764    0.33103523569582366    0.3669679034469917    0.4096332934646836    0.3674286449568749    
  0.2807280224908546    0.21766681110385558    0.1964577613532282    0.21766684753349488    0.280728032837292    
  0.36742866351153314    0.40963324985418886    0.3669679358770729    0.33103523569582366    0.39964405817214316    
  0.4096332719009746    0.4051603572936    0.352913883243094    0.2840402820460353    0.2351300663170296    
  0.21826872911116393    0.23513006669455036    0.2840402721949949    0.3529138720740165    0.40516033608739926    
  0.4096333040323317    0.39964405817214316    0.36968447486333966    0.3674286548905794    0.35291391528790794    
  0.3214697974068839    0.28546803781964614    0.2587432122788058    0.24890275109267615    0.25874320326665257    
  0.2854680394263339    0.3214698085240052    0.35291386755977217    0.3674286577213829    0.36968447486333966    
  0.27887317230964787    0.28072802646809275    0.2840402686061493    0.2854680172790974    0.2840402459150662    
  0.2807280305843192    0.2788732047840908    0.28072801250081253    0.2840402613368728    0.2854680206106596    
  0.2840402779685901    0.28072804885471203    0.27887317230964787    0.21109638996631863    0.2176668141601625    
  0.2351300752335003    0.25874324305122953    0.2807280168244175    0.29409770002840213    0.2982831993351124    
  0.29409774560058977    0.2807280307774076    0.25874320520501326    0.2351300537257175    0.21766682332466916    
  0.21109638996631863    0.18839742199557624    0.19645776355775463    0.21826868604924976    0.24890272503012895    
  0.2788732276593895    0.29828319344238474    0.30478880644820205    0.2982831734269552    0.2788731875260091    
  0.24890271163421557    0.21826873134019723    0.1964577515815139    0.18839742199557624    0.21109638835344954    
  0.2176668451509639    0.23513005100245613    0.25874320185279365    0.2807280026810978    0.29409770713475647    
  0.2982832164622236    0.29409772091017133    0.28072801516423884    0.25874324802396537    0.2351300558729371    
  0.2176668505812439    0.21109638835344954    0.2788731680383323    0.28072800736505116    0.2840403147670189    
  0.2854680294865512    0.284040282195081    0.280728013537316    0.27887320624187595    0.2807280005950214    
  0.2840402908562061    0.2854679732122192    0.2840402555886363    0.2807280064718654    0.2788731680383323    
  0.3696844572744092    0.3674286507204585    0.3529138779488415    0.32146979855603386    0.2854680283283559    
  0.25874322377263353    0.24890274938676127    0.25874320903764386    0.2854680269662151    0.3214698271110131    
  0.35291384498439066    0.36742873150199856    0.3696844572744092    0.399644028976644    0.40963333536258056    
  0.4051603006975991    0.352913845448795    0.28404025728966664    0.23513004634046428    0.2182687237563419    
  0.23513005255007438    0.2840402620844075    0.35291391888344337    0.40516033688391045    0.40963330072764176    
  0.399644028976644    0.33103527186734805    0.3669678828967958    0.40963326999915556    0.3674286959587232    
  0.2807280043509103    0.21766683974906065    0.19645776897959263    0.2176668214707457    0.2807280206590346    
  0.36742865810092956    0.4096332612335858    0.36696786573888995    0.33103527186734805    0.28437308575006764    
  0.33103529063078224    0.39964402473086685    0.3696844322963767    0.2788732260709567    0.2110963553175686    
  0.18839743611947735    0.21109637985875682    0.27887318086183865    0.36968443914516746    0.39964406230276006    
  0.3310352739623289    0.28437308575006764    0.385564138192714    0.3873919905865248    0.3696844516661524    
  0.31372697272652555    0.24890274132160461    0.2042043062747292    0.18863794347248358    0.20420432917439102    
  0.24890275278568616    0.31372698309825237    0.3696845161551525    0.38739202445640447    0.385564138192714    
  0.3873919603726807    0.38678195981904884    0.3674286845480733    0.3165806405170239    0.2587432569619892    
  0.2183748556325824    0.2042043506263842    0.21837488427833499    0.25874321360113683    0.3165806271928661    
  0.36742865652325307    0.3867820444639905    0.3873919603726807    0.3696844577219029    0.3674286857218819    
  0.3529139019571707    0.32146981839757394    0.28546803643433305    0.25874323921130166    0.24890277203547215    
  0.25874322090664487    0.28546804552906124    0.32146979359915573    0.3529138671883049    0.36742867849312316    
  0.3696844577219029    0.3137269667560052    0.316580655114341    0.3214698322660708    0.3234877648151038    
  0.32146982799820994    0.31658061687004385    0.3137269932498708    0.31658065228580484    0.32146980623669635    
  0.3234878046363874    0.3214698004042213    0.316580642865194    0.3137269667560052    0.24890274637121998    
  0.25874325738551246    0.28546800658779115    0.3214697992771776    0.35291388083409625    0.3674286633084642    
  0.3696844898807888    0.36742864856267915    0.35291387500597365    0.32146981938276986    0.28546803646142305    
  0.2587432345627816    0.24890274637121998    0.204204325523615    0.21837485764791953    0.25874324132337373    
  0.3165806740976793    0.3674286703942643    0.38678197461343083    0.38739199220677395    0.38678201273641316    
  0.36742869366432507    0.3165806236071848    0.2587432387961297    0.21837486772687764    0.204204325523615    
  0.18863797012499484    0.20420433764084056    0.2489027271621701    0.3137269936468736    0.3696844750284386    
  0.38739197799974195    0.38556415681842804    0.3873919760106656    0.3696844593384233    0.3137269805988317    
  0.24890274539199084    0.20420433968542956    0.18863797012499484    0.2042043128529337    0.21837488621998213    
  0.25874322243610687    0.3165806123318173    0.36742866734039886    0.38678199519063655    0.3873920293430246    
  0.3867820281121216    0.3674286736415896    0.31658064708192346    0.2587432225282487    0.2183749060905962    
  0.2042043128529337    0.2489027348398262    0.25874321111306925    0.28546804267068127    0.3214698100760262    
  0.3529139146521949    0.3674286460728444    0.36968448585446456    0.36742867670656937    0.3529139528987072    
  0.3214697780611784    0.2854679957395843    0.25874325011680166    0.2489027348398262    0.31372697172348735    
  0.3165806310060387    0.3214697943645556    0.3234877962450913    0.3214698510483959    0.3165806358852824    
  0.3137269925568504    0.3165806217913423    0.3214698142696172    0.32348781346203653    0.3214697592129428    
  0.3165806789706013    0.31372697172348735    0.3696844363551154    0.36742872429575896    0.3529138719902265    
  0.3214697874779661    0.2854680077589879    0.2587432018870517    0.24890273984821443    0.25874325612259313    
  0.2854680102723722    0.32146982654484096    0.35291389007065727    0.3674286988952856    0.3696844363551154    
  0.38739200784484246    0.38678200464654594    0.3674286902333842    0.31658064363973465    0.2587432615651469    
  0.21837488342226766    0.20420434877383487    0.21837487835439587    0.2587432360652413    0.31658062187740243    
  0.36742866175927336    0.38678194657793574    0.38739200784484246    0.385564138192714    0.3873919905865248    
  0.3696844516661524    0.31372697272652555    0.24890274132160461    0.2042043062747292    0.18863794347248358    
  0.20420432917439102    0.24890275278568616    0.31372698309825237    0.3696845161551525    0.38739202445640447    
  0.385564138192714    0.3047887763636204    0.29828323435227955    0.2788731847494687    0.24890269490417471    
  0.21826873957031867    0.19645773104501574    0.18839742448342237    0.19645773683275505    0.21826871881970267    
  0.24890271286621288    0.27887321323622183    0.2982832044653392    0.3047887763636204    0.29828319212639354    
  0.2940977234665398    0.28072801794125735    0.2587432032098491    0.23513008808168315    0.2176668173598661    
  0.21109641917450167    0.2176668391057149    0.2351300692768935    0.25874320496018677    0.28072799055320474    
  0.29409773602230577    0.29828319212639354    0.278873193667194    0.28072803327682505    0.2840402728918454    
  0.285468019155111    0.28404029617921883    0.280728010828756    0.27887317862403205    0.28072802556744686    
  0.2840402769926462    0.28546799286782065    0.28404025225592067    0.2807280146203411    0.278873193667194    
  0.2489027238552862    0.25874321394485517    0.28546801456170884    0.32146979927669694    0.3529138967011577    
  0.3674286541666546    0.36968449527666863    0.3674286822286615    0.3529138750117715    0.32146981503695865    
  0.28546801632058477    0.2587432174851087    0.2489027238552862    0.2182687060095606    0.23513008582363795    
  0.2840402623139628    0.35291388888645586    0.40516031094175226    0.4096332627162622    0.39964406263906116    
  0.4096332628098964    0.4051603662211902    0.3529139110950138    0.2840402626902701    0.23513008321441103    
  0.2182687060095606    0.19645776295271167    0.2176668048443554    0.2807280365363906    0.3674287040394649    
  0.4096332829882213    0.3669678888799971    0.3310352316085177    0.36696791152701697    0.4096332872471851    
  0.3674286289149787    0.2807280128606234    0.2176668219723085    0.19645776295271167    0.18839741733756898    
  0.21109641934639287    0.27887318220687796    0.3696844391115644    0.3996440627073662    0.3310352407759692    
  0.28437312133751064    0.33103523155202325    0.399644032899224    0.36968440593255186    0.2788731839254804    
  0.21109641290870634    0.18839741733756898    0.19645773252997184    0.2176668711056294    0.28072802880674574    
  0.36742863346693416    0.40963327632058366    0.3669679084643043    0.33103526987304727    0.366967912261925    
  0.40963326515828163    0.3674287114801676    0.2807279979841704    0.21766684976556686    0.19645773252997184    
  0.21826871472194306    0.23513006144547197    0.28404028601279063    0.3529138876876964    0.4051603825237116    
  0.4096332489888446    0.3996440687364411    0.4096332835497719    0.4051603870659423    0.35291385488132904    
  0.2840402535358366    0.2351300658040608    0.21826871472194306    0.24890272147827064    0.2587432256468679    
  0.28546799115328975    0.3214698143277119    0.35291391327898647    0.36742865951418907    0.36968447621058326    
  0.3674286597312296    0.35291389283126157    0.3214698183012941    0.28546800659303373    0.258743252794584    
  0.24890272147827064    0.27887318781796616    0.2807280486221206    0.2840402521075391    0.28546798629639897    
  0.28404026882130773    0.28072800745307935    0.2788731911924648    0.28072800254227126    0.2840402675059512    
  0.28546804693577515    0.2840402733953432    0.2807280266072746    0.27887318781796616    0.29828320887733184    
  0.2940977057342949    0.28072801969210853    0.25874325322498987    0.23513007791187018    0.21766682306815188    
  0.2110964313539886    0.21766682879526691    0.23513007424466012    0.2587432167986781    0.2807280063019241    
  0.29409770060657114    0.29828320887733184    0.3047887763636204    0.29828323435227955    0.2788731847494687    
  0.24890269490417471    0.21826873957031867    0.19645773104501574    0.18839742448342237    0.19645773683275505    
  0.21826871881970267    0.24890271286621288    0.27887321323622183    0.2982832044653392    0.3047887763636204    
  0.21705706990216447    0.21548272380897143    0.2110963889526099    0.20420429497133505    0.1964577733790232    
  0.1903371258396511    0.18792528449873136    0.19033713108943212    0.19645774797144286    0.2042043189907672    
  0.21109642318403282    0.21548271527992494    0.21705706990216447    0.2154826852353467    0.21621405524409246    
  0.21766684337084188    0.2183748589667892    0.21766683702575118    0.21621403201862685    0.21548270272135375    
  0.21621405542930885    0.21766684433064742    0.2183748710664698    0.21766681925351603    0.21621407133280957    
  0.2154826852353467    0.21109640170920116    0.2176668434053482    0.2351300658208756    0.2587432356892326    
  0.28072802187707757    0.29409771365047827    0.29828319187160746    0.29409771983949046    0.2807280276951203    
  0.2587431946767737    0.23513006415951296    0.21766685107767073    0.21109640170920116    0.20420433059806462    
  0.2183748601464153    0.25874323405803    0.31658064453219575    0.36742868823543723    0.38678196997253755    
  0.38739201490541036    0.38678195319356384    0.3674286928420444    0.3165806413391087    0.2587432321194906    
  0.21837487493726704    0.20420433059806462    0.1964577484091309    0.21766685107111514    0.2807279980719854    
  0.3674286657197026    0.40963323203213725    0.3669678992831869    0.33103528037997254    0.36696787094677813    
  0.4096332549745381    0.3674286708058909    0.2807280080850995    0.2176668630238144    0.1964577484091309    
  0.19033715246051022    0.21621401345711055    0.2940977320420685    0.3867819945944131    0.3669679085932088    
  0.23335862466226887    0.17000927576466898    0.2333586503915179    0.3669679159019835    0.3867819603923918    
  0.29409770418725667    0.21621403475342071    0.19033715246051022    0.1879252715340888    0.2154826900413004    
  0.29828318087891886    0.38739198746716175    0.3310352875318981    0.17000928250742958    0.1074994802478665    
  0.17000927206834368    0.33103524870541046    0.38739194640086916    0.2982832149380767    0.2154827061756519    
  0.1879252715340888    0.19033715708573    0.21621405192281734    0.2940977228994772    0.38678196498308764    
  0.36696787367454164    0.23335863945601135    0.17000929334492818    0.23335863879669405    0.36696789245069195    
  0.38678199223826776    0.29409771330785345    0.21621406327720677    0.19033715708573    0.19645773173877348    
  0.21766681871948143    0.2807280249769905    0.3674286714460381    0.40963328082880435    0.36696787604756126    
  0.33103528424897244    0.3669678763347498    0.4096332807257054    0.36742859934257943    0.28072800051095015    
  0.21766683489379712    0.19645773173877348    0.20420433570839375    0.21837487760477403    0.2587432077060496    
  0.3165806397463362    0.3674286793663165    0.3867819728615487    0.38739200351595565    0.38678193813692735    
  0.3674286774828465    0.31658068743760587    0.25874320014718527    0.21837489933744378    0.20420433570839375    
  0.21109640433937757    0.21766687274650928    0.2351300503212828    0.2587431813799722    0.28072800523240277    
  0.2940976895608152    0.29828320501714783    0.2940976982904534    0.280727987370208    0.258743240004917    
  0.23513005262029632    0.2176668549376513    0.21109640433937757    0.21548269918689256    0.21621402718194083    
  0.21766682664138712    0.21837489278930705    0.21766684421816862    0.2162140533583634    0.21548271423586482    
  0.21621403231352915    0.2176668270218692    0.21837486481073484    0.21766682338839252    0.21621400536444355    
  0.21548269918689256    0.21705706990216447    0.21548272380897143    0.2110963889526099    0.20420429497133505    
  0.1964577733790232    0.1903371258396511    0.18792528449873136    0.19033713108943212    0.19645774797144286    
  0.2042043189907672    0.21109642318403282    0.21548271527992494    0.21705706990216447    0.18771771977325075    
  0.18792526682784635    0.18839740555595655    0.1886379352549519    0.18839742289684683    0.1879252470053214    
  0.18771774308332642    0.18792525246405423    0.18839742149581515    0.18863794642689333    0.18839744617724938    
  0.18792529538198385    0.18771771977325075    0.18792524635884683    0.1903371405877753    0.19645776454255623    
  0.20420433152947146    0.21109642896515027    0.21548269919933727    0.21705707732813787    0.2154827271401803    
  0.2110963946123034    0.20420433869942314    0.1964577271847711    0.19033719821344525    0.18792524635884683    
  0.18839742039549712    0.19645775215388403    0.2182687329900051    0.24890274211361615    0.2788731947771723    
  0.29828322926295486    0.30478880066977826    0.298283223069876    0.278873209129758    0.24890272370381394    
  0.21826870530003795    0.19645775876363175    0.18839742039549712    0.1886379350728469    0.20420433552722908    
  0.24890274327694706    0.3137269741514695    0.36968448632032247    0.38739196184278335    0.3855641767765944    
  0.3873919815819292    0.3696844691010141    0.3137269997865054    0.24890273315834024    0.20420433973417937    
  0.1886379350728469    0.18839741007121835    0.21109643678162632    0.2788731714124293    0.36968447373539953    
  0.39964399702640135    0.331035257053488    0.2843731176140755    0.33103524163314835    0.399644059719319    
  0.36968447388753467    0.27887319595951626    0.21109641317335343    0.18839741007121835    0.18792527918660434    
  0.21548269800927747    0.29828321965449883    0.3873920039523671    0.33103528970324875    0.170009291403933    
  0.10749946982646236    0.17000930229377118    0.3310352911049797    0.3873919833482821    0.29828320794184415    
  0.21548269479002394    0.18792527918660434    0.187717752836917    0.21705707679204192    0.30478876586438275    
  0.38556417180352287    0.28437311605863    0.10749946784953607    0.05443992461630954    0.10749946851645831    
  0.2843730985917938    0.3855641644622499    0.30478881043186984    0.2170570621126921    0.187717752836917    
  0.1879252585479487    0.2154827151288368    0.298283205263667    0.38739197541071174    0.3310352376492976    
  0.17000928962348436    0.10749949071914036    0.17000931479893056    0.33103527746179534    0.38739201576417887    
  0.298283195190557    0.2154827219456897    0.1879252585479487    0.1883973992397501    0.21109639464435898    
  0.278873208292132    0.3696844556836731    0.39964406536894537    0.33103525318523086    0.284373098709143    
  0.33103525860094773    0.39964410018773605    0.3696844329143842    0.27887316821461844    0.21109642883504587    
  0.1883973992397501    0.18863793683558008    0.20420432470768404    0.24890273732832416    0.3137270151326268    
  0.36968450390693663    0.3873919772621307    0.38556418668942705    0.38739196925213126    0.36968448926183356    
  0.3137270061597983    0.24890270893450436    0.20420435635010947    0.18863793683558008    0.18839740333766555    
  0.19645779207146624    0.2182687174000379    0.24890272012826298    0.2788731713290192    0.29828319104342954    
  0.30478880084759413    0.29828322012319525    0.2788731638708935    0.24890275838549136    0.21826871705028825    
  0.19645777567629977    0.18839740333766555    0.18792527811714071    0.19033716196045905    0.19645777026607403    
  0.20420434399199394    0.21109643222607324    0.215482720972544    0.21705708207532431    0.21548269842615964    
  0.2110964021435509    0.20420433308667302    0.19645775319097336    0.19033713531526    0.18792527811714071    
  0.18771771977325075    0.18792526682784635    0.18839740555595655    0.1886379352549519    0.18839742289684683    
  0.1879252470053214    0.18771774308332642    0.18792525246405423    0.18839742149581515    0.18863794642689333    
  0.18839744617724938    0.18792529538198385    0.18771771977325075    0.21705707481578554    0.2154827265619308    
  0.21109639217443174    0.20420430341596116    0.19645777087446542    0.19033713085583875    0.18792527821557023    
  0.19033712331168712    0.19645774239964578    0.20420430802273792    0.21109642399825312    0.21548269349997493    
  0.21705707481578554    0.2154826722112595    0.2162140510727848    0.217666838557413    0.21837484917397343    
  0.21766685352491888    0.21621402924833982    0.21548271599897098    0.21621405676415997    0.2176668323220401    
  0.21837485426493586    0.21766682197464304    0.21621405984503891    0.2154826722112595    0.21109641314383146    
  0.21766683717380114    0.23513005993647226    0.25874322387092596    0.2807280429080165    0.29409769586089834    
  0.29828319916908896    0.29409772767087516    0.28072802736463337    0.2587432297907711    0.23513006072010598    
  0.21766684607902445    0.21109641314383146    0.20420431783418058    0.21837486653655577    0.2587432173386279    
  0.31658061190198966    0.36742867849265215    0.3867819467682819    0.3873920054573835    0.38678197742115594    
  0.36742865920318424    0.3165806596953515    0.25874321672950795    0.21837485837280524    0.20420431783418058    
  0.1964577342688183    0.21766685125112822    0.28072801055119473    0.3674286560432709    0.40963325085773866    
  0.36696787409341686    0.3310352729720339    0.3669678742403988    0.4096333049874132    0.3674286900429743    
  0.28072801216291876    0.21766686164243362    0.1964577342688183    0.19033716040574747    0.21621400807853108    
  0.2940977344790335    0.38678200351624975    0.36696791951729285    0.23335861959299697    0.17000928660139084    
  0.23335863949965663    0.3669678925576313    0.386781956544561    0.29409770570428484    0.2162140305145841    
  0.19033716040574747    0.18792527746666657    0.21548271320854806    0.2982831869554486    0.38739197898821626    
  0.33103527963226353    0.17000927518661488    0.10749949278154697    0.17000926992954057    0.3310352775769813    