#     DFTpy    
  CRYSTAL 
    
  PRIMVEC    
  2.9392826487199826    -1.6148991999999998e-10    3.0609249103448273e-10    
  -1.6148991999999998e-10    2.939282648549189    1.4749016275862068e-10    
  5.593454344827587e-10    2.695644689655173e-10    5.384822777609428    
  PRIMCOORD    
  4    1    
  Si    1.4696413243039916    1.4696413250833846    1.654725074304808    
  Si    5.449809220190125e-10    -5.043725794269159e-10    1.0376863126897888    
  Si    8.358726389981358e-11    3.8092174423077573e-10    4.3471364618653245    
  Si    1.4696413247446234    1.469641323966894    3.730097706812514    
  BEGIN_BLOCK_DATAGRID_3D    
  3d_datagrid_density    
  BEGIN_DATAGRID_3D#0    
  13    13    23    
  0.0    0.0    0.0    
  2.9392826487199826    -1.6148991999999998e-10    3.0609249103448273e-10    
  -1.6148991999999998e-10    2.939282648549189    1.4749016275862068e-10    
  5.593454344827587e-10    2.695644689655173e-10    5.384822777609428    
  0.7588472290268827    0.6922855153663663    0.5329674456443259    0.36090312830526805    0.23339001872015608    
  0.16338888917458044    0.14187827243266476    0.16338890814144302    0.23338997974946124    0.36090312937209634    
  0.532967479981671    0.6922854732486213    0.7588472290268827    0.6922855818340503    0.6345535644509954    
  0.4946369591608992    0.34128296354054205    0.22636726663661233    0.16228970659744202    0.1422903429204214    
  0.16228971798119277    0.22636722795445566    0.34128301926942817    0.49463709440696074    0.6345534302391362    
  0.6922855818340503    0.5329674562240442    0.49463712458786074    0.3999080550045002    0.29238158339931436    
  0.20826387142088945    0.15889440424885276    0.14279364243277565    0.15889443980312082    0.20826385330165315    
  0.29238156358575074    0.399908107783589    0.4946369433082306    0.5329674562240442    0.3609031379131698    
  0.34128299779642574    0.2923815305814519    0.23403389584726858    0.1846880857390217    0.1535351380171942    
  0.14287747667047648    0.153535215271768    0.18468804965038607    0.2340338976160314    0.2923814994038625    
  0.341282991080852    0.3609031379131698    0.23338997849135104    0.22636724878543818    0.20826384213193994    
  0.18468807701111242    0.1625276971009924    0.14756646102567625    0.14231443056704993    0.14756650592613463    
  0.16252764882264545    0.18468806954996325    0.20826388805482332    0.22636723062933495    0.23338997849135104    
  0.16338888743487118    0.162289744424834    0.15889445200489363    0.15353518997815951    0.14756650464428483    
  0.14291586734507636    0.14117908638641    0.14291584890067208    0.14756649815434186    0.15353514583234046    
  0.15889443209990436    0.16228971730185332    0.16338888743487118    0.141878291854619    0.1422903209007599    
  0.1427935919207527    0.14287748838924136    0.14231442357196217    0.14117906977819888    0.14058347077522784    
  0.14117908718367456    0.1423143544246753    0.14287751363050907    0.1427936183991251    0.1422903243534384    
  0.141878291854619    0.16338892426863075    0.16228973910154398    0.15889442719362526    0.1535351749193511    
  0.14756651618309774    0.14291585811852403    0.14117908504111631    0.14291588495875998    0.14756643838848005    
  0.15353517129358452    0.15889443876678147    0.1622896995189662    0.16338892426863075    0.23338999272971847    
  0.2263672615290538    0.20826382882870498    0.18468810824442897    0.16252772574922889    0.14756648078969542    
  0.1423143874657085    0.14756649597525912    0.16252770808611508    0.18468808746176102    0.20826382451761496    
  0.2263671700983341    0.23338999272971847    0.36090312980854244    0.3412829828150894    0.2923815412633845    
  0.23403390758957693    0.18468807190382888    0.1535351603139481    0.14287750593910262    0.15353522045129472    
  0.18468806130779059    0.2340338819089172    0.292381538427508    0.34128299657311734    0.36090312980854244    
  0.5329676100488261    0.49463710694800117    0.39990807291635583    0.29238154738713057    0.2082638747990343    
  0.15889444716233406    0.14279370213965312    0.1588944623862666    0.20826381952930423    0.2923815763443096    
  0.39990811209884125    0.4946369746701844    0.5329676100488261    0.6922855932421422    0.63455353102382    
  0.4946370225725449    0.341282935217349    0.22636721233134677    0.16228969880140182    0.14229031054320893    
  0.1622896832268749    0.22636720711543554    0.3412829863942489    0.4946369791090858    0.6345534341275295    
  0.6922855932421422    0.7588472290268827    0.6922855153663663    0.5329674456443259    0.36090312830526805    
  0.23339001872015608    0.16338888917458044    0.14187827243266476    0.16338890814144302    0.23338997974946124    
  0.36090312937209634    0.532967479981671    0.6922854732486213    0.7588472290268827    0.6814663255473401    
  0.6414943004537972    0.5251980572511239    0.37265055259446717    0.24702691691629255    0.1752150695776273    
  0.15295968246451108    0.17521506892912522    0.24702688469500314    0.37265055835643374    0.5251981252932925    
  0.6414943748090423    0.6814663255473401    0.6414943693202566    0.6029223349177806    0.4941613835903448    
  0.3551103097278236    0.24107383464778118    0.17513538081542793    0.15441927824811075    0.1751353704718603    
  0.24107376387562598    0.35511035880075237    0.49416146318089366    0.6029222110274789    0.6414943693202566    
  0.5251980760049528    0.49416146164662694    0.41163581791344955    0.30983793232047663    0.2252714470560024    
  0.17425944871015334    0.15760422107244093    0.1742594624665739    0.2252713941694156    0.30983786779422134    
  0.41163588679110297    0.4941613134056418    0.5251980760049528    0.37265055224006294    0.3551103440478766    
  0.3098378256664754    0.25352567458765907    0.20396511764337322    0.17183682683832388    0.1607883997847566    
  0.17183692077945334    0.20396511489603722    0.253525692882124    0.3098378093469527    0.3551103349726334    
  0.37265055224006294    0.2470268976087111    0.24107381991358767    0.2252713561047515    0.20396512852688184    
  0.18303288926581276    0.1681143530313201    0.16271413444562755    0.16811440871785077    0.183032870834286    
  0.2039650984124008    0.2252714402393917    0.2410738047722867    0.2470268976087111    0.17521506497587686    
  0.1751354034649952    0.1742594493979583    0.17183687369690212    0.16811436119970338    0.16460618151596582    
  0.16319605214710006    0.16460620447199112    0.16811439746120052    0.17183683278281436    0.1742594465823786    
  0.17513537268439822    0.17521506497587686    0.15295969715272686    0.1544192474233246    0.15760414000081838    
  0.16078838659111558    0.16271411519266168    0.1631960136256813    0.1632222139228627    0.16319604699066803    
  0.16271409081810237    0.16078840104645375    0.15760417172344623    0.15441924867087886    0.15295969715272686    
  0.17521507021409358    0.17513539312457505    0.17425946779415288    0.1718368534586613    0.16811434665269503    
  0.16460619392381487    0.16319602290154114    0.16460623621037954    0.16811435011775414    0.17183687329003056    
  0.17425948290534785    0.17513537787506636    0.17521507021409358    0.24702688147108437    0.24107385060973427    
  0.22527139237091617    0.2039651478176124    0.18303292199059648    0.1681143650545747    0.16271409704377562    
  0.16811438574087964    0.18303288122374617    0.2039651354038388    0.22527139211397207    0.2410737311749669    
  0.24702688147108437    0.37265052915246405    0.35511032148178395    0.309837843809078    0.25352564815921635    
  0.20396512432464392    0.17183686557094485    0.16078840940442402    0.17183688064389352    0.20396507993120022    
  0.25352567680720794    0.3098378538554053    0.35511033599395897    0.37265052915246405    0.5251982326338165    
  0.49416144721494826    0.41163584030933686    0.309837822159563    0.2252714568989037    0.174259446004215    
  0.15760423408666271    0.17425948910218073    0.22527138982104153    0.30983788749835783    0.411635881608584    
  0.4941613276298476    0.5251982326338165    0.6414943848604712    0.6029223231020139    0.49416138307142227    
  0.3551103055059908    0.24107375861729452    0.17513533664827952    0.1544192487982079    0.1751353231326359    
  0.2410737827043175    0.35511029624247453    0.4941613420876783    0.60292221661883    0.6414943848604712    
  0.6814663255473401    0.6414943004537972    0.5251980572511239    0.37265055259446717    0.24702691691629255    
  0.1752150695776273    0.15295968246451108    0.17521506892912522    0.24702688469500314    0.37265055835643374    
  0.5251981252932925    0.6414943748090423    0.6814663255473401    0.41070373580229325    0.4409151203485307    
  0.46438282505452666    0.3956635195716119    0.2862614053463664    0.2108615375100801    0.18632329714052642    
  0.2108615685642771    0.2862614144064776    0.3956635028609301    0.46438286470612206    0.4409151001679382    
  0.41070373580229325    0.4409151790212179    0.46026971825206736    0.4628705202766816    0.3879462031700035    
  0.284540331555569    0.2141137890800763    0.1910671976520418    0.21411381189833273    0.2845402852420599    
  0.38794626077915007    0.46287062954581576    0.46026969824530445    0.4409151790212179    0.46438285557702086    
  0.4628706232395252    0.43352394766618785    0.3600543907580798    0.2775453655555592    0.22171834902039894    
  0.20309435450656    0.22171835620440486    0.2775453050052305    0.3600543258940908    0.43352397257311065    
  0.46287048899982425    0.46438285557702086    0.39566353007403166    0.38794623778451537    0.36005427760638115    
  0.3134680928384853    0.26434998166864293    0.22948644854418374    0.21726235477553987    0.22948653606769207    
  0.26434996222276047    0.3134680789312022    0.36005428226422165    0.3879462317558386    0.39566353007403166    
  0.2862614319791319    0.2845403156805144    0.2775452980517779    0.26434996904719066    0.24799498689614713    
  0.23401609474872526    0.2284511370803076    0.23401617055744384    0.24799494997534133    0.26434998104842194    
  0.2775453835225982    0.28454028567924844    0.2862614319791319    0.21086153537468674    0.21411382819482538    
  0.2217183792067673    0.22948648977637015    0.23401611061796138    0.23495007155664777    0.23477856693123897    
  0.23495007239513688    0.23401614627843095    0.2294864586684996    0.22171838275969785    0.2141137735839898    
  0.21086153537468674    0.1863232837434187    0.1910671771216331    0.20309429076197744    0.2172622862116946    
  0.2284511218910759    0.23477853020603756    0.23681484714889897    0.23477855208400353    0.22845104726857138    
  0.2172623241036228    0.20309428172014807    0.1910671531462367    0.1863232837434187    0.2108615470431521    
  0.21411381237362234    0.2217183704198931    0.22948648732690116    0.234016132388167    0.2349500673733802    
  0.2347785540226997    0.23495010940303515    0.23401612053176846    0.22948649076772834    0.22171838730577625    
  0.21411381273252056    0.2108615470431521    0.2862614146930989    0.2845403293902327    0.2775453121392889    
  0.26434999425078287    0.24799497451250097    0.2340161621892673    0.22845108151121246    0.23401616861769103    
  0.24799497282009478    0.2643499515863391    0.2775453465007074    0.284540255969977    0.2862614146930989    
  0.3956634485675738    0.38794624107105635    0.36005431145383415    0.31346805246641357    0.2643499813222614    
  0.22948648921013498    0.21726231219210768    0.2294865114498559    0.26434994150649777    0.3134680990529911    
  0.36005429609123263    0.38794621869235674    0.3956634485675738    0.46438298117722715    0.46287057531685855    
  0.4335240050196968    0.3600543097141693    0.277545375117571    0.22171837353804    0.20309438758094184    
  0.22171843093268992    0.27754530837736824    0.36005435337613956    0.4335239861272751    0.46287053242104303    
  0.46438298117722715    0.4409151180700106    0.4602697202934579    0.46287057215546357    0.38794620713708183    
  0.2845402887948151    0.21411378645178403    0.19106718203946413    0.21411376425651962    0.2845402995276672    
  0.38794619915020845    0.4628704795672175    0.4602696374867171    0.4409151180700106    0.41070373580229325    
  0.4409151203485307    0.46438282505452666    0.3956635195716119    0.2862614053463664    0.2108615375100801    
  0.18632329714052642    0.2108615685642771    0.2862614144064776    0.3956635028609301    0.46438286470612206    
  0.4409151001679382    0.41070373580229325    0.1383614671148044    0.1985679516676114    0.3482303543751565    
  0.4144910085316567    0.3452174916248448    0.2673077837044884    0.2394195525871224    0.26730784727956985    
  0.34521744717429054    0.41449101583481557    0.34823043783734586    0.19856791736540574    0.1383614671148044    
  0.1985679998445631    0.25841103193073245    0.3873142782121659    0.42559692026002216    0.3515594080844617    
  0.2766271899987393    0.24997689375437343    0.2766272340382037    0.35155932899526476    0.4255969723215227    
  0.3873143765007633    0.25841100683801677    0.1985679998445631    0.34823042853969316    0.3873143571627456    
  0.44719657966274423    0.4339301145458046    0.3624050061679472    0.30049591595820735    0.2785789434128003    
  0.3004959430950623    0.3624049398607792    0.43393005061622936    0.44719663612701865    0.38731424309143425    
  0.34823042853969316    0.4144910616024582    0.4255969886936521    0.43392996907178744    0.41043945072214866    
  0.36614559451277395    0.32813498432054905    0.31396132575016833    0.32813501823099306    0.36614556028977935    
  0.4104394793082445    0.43393001343250504    0.42559698812652985    0.4144910616024582    0.34521752644528425    
  0.3515594031317935    0.3624049277035965    0.3661455462843886    0.359420857147411    0.3468127300717027    
  0.34022422090006627    0.34681281187168794    0.359420854008286    0.3661455709104933    0.3624049863438263    
  0.35155933332767514    0.34521752644528425    0.2673078069609003    0.2766273037232508    0.300495974027881    
  0.3281350185520559    0.34681272447463324    0.35118033365574375    0.3499572887672535    0.3511803419739683    
  0.3468127367242732    0.3281349607330427    0.3004959726363926    0.27662724116403103    0.2673078069609003    
  0.2394195145624742    0.24997686131623137    0.278578892312566    0.31396128723138217    0.34022423763896564    
  0.34995722515424305    0.35071545755305417    0.3499573017764306    0.3402241174315537    0.3139612935511012    
  0.2785789097822486    0.24997683970938878    0.2394195145624742    0.26730785286001824    0.2766272417864682    
  0.3004959346811171    0.3281349714810177    0.3468127180770211    0.35118035583733337    0.3499572601845217    
  0.35118036870300623    0.34681273059073087    0.32813497088860855    0.3004959881468796    0.2766272208844059    
  0.26730785286001824    0.34521751316415356    0.35155941683282793    0.36240492231140853    0.3661456053442935    
  0.35942090548179695    0.3468127643212361    0.34022416720815896    0.3468128116650855    0.35942090534023474    
  0.3661455674037887    0.36240495503082665    0.35155937225068895    0.34521751316415356    0.4144910297983684    
  0.42559694061530257    0.4339299777840815    0.41043946557864736    0.36614558729665303    0.32813500361649406    
  0.3139612955124547    0.32813504709770064    0.3661455516489676    0.410439484336898    0.4339300293186467    
  0.4255969667347354    0.4144910297983684    0.3482304705705525    0.38731431367791286    0.4471965194535159    
  0.43393003802769553    0.36240498869532534    0.3004959385714458    0.2785789936377302    0.300495990497189    
  0.36240493058854417    0.433930032645948    0.44719657056278916    0.38731429833128095    0.3482304705705525    
  0.19856796662163342    0.2584110594145004    0.38731431438924085    0.4255969509028524    0.35155939378546697    
  0.27662721045846983    0.24997686245256134    0.2766272046242201    0.3515593932743281    0.4255969404522418    
  0.38731427033159155    0.25841101200744565    0.19856796662163342    0.1383614671148044    0.1985679516676114    
  0.3482303543751565    0.4144910085316567    0.3452174916248448    0.2673077837044884    0.2394195525871224    
  0.26730784727956985    0.34521744717429054    0.41449101583481557    0.34823043783734586    0.19856791736540574    
  0.1383614671148044    0.052157744160377134    0.10182663865258201    0.28321388954155835    0.4409677744787909    
  0.40909256488919743    0.32963318587577617    0.29889521952970605    0.3296332044907624    0.4090925260537612    
  0.44096780018984766    0.28321391691247927    0.10182664639176889    0.052157744160377134    0.10182667519033685    
  0.16345699791053397    0.34500856619872183    0.4693437855612786    0.4250936214479984    0.34736447697408657    
  0.317684245667595    0.347364492994333    0.42509354018330237    0.4693438598088057    0.34500862835982127    
  0.1634569506702077    0.10182667519033685    0.28321390473912694    0.34500863548854    0.4710266795455477    
  0.5161742733707421    0.46017678018039077    0.3942398626891449    0.3692395445265191    0.39423990342490917    
  0.4601766650209409    0.5161741569552667    0.4710266868796553    0.3450085367822387    0.28321390473912694    
  0.4409677933955588    0.4693438188948461    0.5161741101472789    0.5232308152264639    0.48830275332829204    
  0.4458449073904109    0.42774989397429153    0.44584501138519445    0.48830292431670513    0.5232308254310027    
  0.5161741346552915    0.46934385077797536    0.4409677933955588    0.40909257754807943    0.42509359722203927    
  0.46017672059964304    0.48830277222042107    0.4886319696328242    0.46271844827426883    0.44587976437168153    
  0.4627185322269849    0.4886317826424206    0.4883028070144388    0.4601768615758518    0.4250935448676438    
  0.40909257754807943    0.32963317084567517    0.3473645680846195    0.3942399022267114    0.4458449799411989    
  0.4627184838950311    0.43394935249117533    0.4115960154491519    0.43394935818445074    0.4627184485857998    
  0.44584498504532755    0.39423990497983075    0.3473644959433277    0.32963317084567517    0.2988952077220118    
  0.31768422241535704    0.36923947947617053    0.4277499129928521    0.44587974979532446    0.4115959121596867    
  0.3859700718490956    0.41159604247975445    0.44587961767121365    0.427749853751385    0.369239518881569    
  0.31768419565703254    0.2988952077220118    0.3296332310045374    0.34736450904752125    0.39423989551683347    
  0.4458449831045027    0.46271846824612367    0.4339493547845503    0.41159599832305804    0.43394938513872555    
  0.4627184715201771    0.44584495046462147    0.3942399132946182    0.3473644734420897    0.3296332310045374    
  0.4090925917092893    0.42509364043643055    0.4601767379365786    0.48830287382146936    0.4886319956442159    
  0.4627185063474852    0.44587969401979366    0.46271850207759785    0.488631949822083    0.4883027521629776    
  0.46017682311246066    0.42509354969843144    0.4090925917092893    0.4409678174349854    0.46934384213860647    
  0.516174035126086    0.5232307394595593    0.48830282012977716    0.4458449355735069    0.4277498776283094    
  0.44584503081239707    0.48830279086806033    0.5232308583135011    0.5161740543570884    0.46934388135353156    
  0.4409678174349854    0.2832140053078663    0.34500859853549226    0.4710266786337373    0.5161741274105802    
  0.4601768116485987    0.3942398347181781    0.3692396205669124    0.3942399556107962    0.4601766790125719    
  0.5161741778114146    0.4710266534699305    0.34500857662660017    0.2832140053078663    0.101826676290719    
  0.16345702747191426    0.3450085577124235    0.4693438278714863    0.4250935376913761    0.34736449695109656    
  0.3176842064286867    0.3473645119287675    0.42509358611891795    0.46934382656275264    0.345008593995575    
  0.1634569632546549    0.101826676290719    0.052157744160377134    0.10182663865258201    0.28321388954155835    
  0.4409677744787909    0.40909256488919743    0.32963318587577617    0.29889521952970605    0.3296332044907624    
  0.4090925260537612    0.44096780018984766    0.28321391691247927    0.10182664639176889    0.052157744160377134    
  0.07652580871828213    0.13496022687371212    0.3279298845013769    0.4833894941846669    0.45038612673911826    
  0.370657852355618    0.33961037453968257    0.37065791208788884    0.4503861357523841    0.4833895244743339    
  0.32792989945196765    0.13496022923311132    0.07652580871828213    0.13496027203197664    0.20363971091826288    
  0.3930342353248453    0.5168536881070325    0.47383282350310824    0.39648687825552736    0.36650628763811427    
  0.39648690681854903    0.473832717667914    0.5168537146605187    0.39303429361754294    0.20363966285734889    
  0.13496027203197664    0.3279299436781729    0.39303431479901774    0.5258922943211738    0.5798395815541485    
  0.5301182172157172    0.46434033017529086    0.4381746107266417    0.46434038578496567    0.5301180625310931    
  0.5798394787511331    0.5258922581684262    0.39303418522932454    0.3279299436781729    0.48338950220639604    
  0.5168537032501999    0.5798394004080405    0.6061633155196688    0.5762015844607267    0.5221609065922315    
  0.49573795224349426    0.5221611341170546    0.5762015799880471    0.606163322592129    0.5798394373025847    
  0.5168536449196159    0.48338950220639604    0.45038616755618904    0.4738328605155751    0.5301181116748801    
  0.5762015288407355    0.5566635300045054    0.47733027020248553    0.43267503450196143    0.47733037128352934    
  0.5566633532101328    0.5762015606687644    0.5301180962469959    0.4738327262219361    0.45038616755618904    
  0.37065784318085465    0.3964869798796405    0.46434038231272956    0.5221610637919978    0.4773301904548832    
  0.3500507547104754    0.28744145882126204    0.35005073954379734    0.4773302975593989    0.5221609755520574    
  0.46434035491769404    0.3964868778174455    0.37065784318085465    0.3396103893611754    0.36650616850722884    
  0.4381745252733023    0.49573788995462587    0.432675022612047    0.28744136894037936    0.22219745297724183    
  0.28744147464186764    0.4326749661601799    0.49573787070422026    0.43817453513826227    0.3665062244216283    
  0.3396103893611754    0.3706579118084736    0.3964868903709532    0.46434035715022054    0.5221610165955982    
  0.47733023385096623    0.3500507269134774    0.2874414412573031    0.35005077676095375    0.4773302806493938    
  0.5221610675147075    0.4643404364628537    0.3964869215987985    0.3706579118084736    0.45038618309825595    
  0.47383283625135625    0.5301180476522589    0.5762016745444247    0.556663508999789    0.4773302660262364    
  0.4326749733009977    0.47733036902213327    0.556663560337869    0.5762015157348789    0.5301181335172873    
  0.47383281281278067    0.45038618309825595    0.48338956845366265    0.5168537113378106    0.5798394630692113    
  0.60616328457297    0.576201545227683    0.5221609405687899    0.49573789949862834    0.5221610653628475    
  0.5762015484541685    0.6061633203243233    0.5798394105212175    0.5168536958151293    0.48338956845366265    
  0.327929996349377    0.39303427079941566    0.5258922810702056    0.5798395437739667    0.5301181662366315    
  0.4643402908877296    0.43817465962173197    0.46434036845077087    0.5301179807867583    0.5798394894155486    
  0.525892287716249    0.3930341956456323    0.327929996349377    0.13496028977059527    0.20363971840960346    
  0.39303419867712847    0.5168536951528956    0.47383278151764124    0.3964869191364901    0.36650624534706217    
  0.3964869081640129    0.4738328183457266    0.5168537274568041    0.3930342087906532    0.2036396776998518    
  0.13496028977059527    0.07652580871828213    0.13496022687371212    0.3279298845013769    0.4833894941846669    
  0.45038612673911826    0.370657852355618    0.33961037453968257    0.37065791208788884    0.4503861357523841    
  0.4833895244743339    0.32792989945196765    0.13496022923311132    0.07652580871828213    0.22219503273874897    
  0.28744405395471423    0.43267185427860716    0.4957411695545227    0.43817143464375735    0.3665091267318576    
  0.33960755971945794    0.366509191778348    0.4381714161498936    0.4957411962837782    0.43267187097022053    
  0.2874440673368418    0.22219503273874897    0.2874441210470019    0.35004794006541273    0.4773334915798598    
  0.52215770236514    0.4643435831759066    0.3964838561229482    0.3706608472265442    0.3964838900882962    
  0.46434348852828594    0.5221577105311178    0.47733351794497847    0.350047865475943    0.2874441210470019    
  0.4326718961594244    0.4773335621495988    0.5566601011992077    0.576205124092991    0.530114785047575    
  0.47383591911203904    0.45038295017421187    0.47383607653054916    0.5301147535705469    0.5762051356484017    
  0.5566600826350865    0.47733340587075873    0.4326718961594244    0.4957411789337407    0.522157659641806    
  0.5762050111906307    0.6061597521013515    0.5798430066765176    0.5168502768715134    0.4833928201264169    
  0.516850486683822    0.5798429128717022    0.6061597863990109    0.5762049785427188    0.522157653667298    
  0.4957411789337407    0.4381714903143231    0.4643436159178296    0.5301147917813395    0.5798428709914195    
  0.5258889409523098    0.393037197982057    0.32792718336689347    0.3930372791266735    0.5258888011302153    
  0.5798429591742217    0.5301147904502457    0.46434355860942866    0.4381714903143231    0.3665090925353234    
  0.3964839783263397    0.47383606090594715    0.5168504729794583    0.39303711820040377    0.20363736285035386    
  0.13496228343078037    0.20363736107048896    0.39303722965090093    0.5168504295412437    0.4738360080065478    
  0.39648389581961496    0.3665090925353234    0.33960756240641865    0.3706607608967825    0.4503829800486982    
  0.4833927726763095    0.3279271659116243    0.13496224076671412    0.07652419866123827    0.13496229345452979    
  0.3279270841227621    0.4833927787764465    0.4503829851876977    0.370660801556506    0.33960756240641865    
  0.3665091828713302    0.3964838694109064    0.47383599596135606    0.5168503892065748    0.3930372083779393    
  0.2036373357574553    0.13496227239879158    0.20363736675753819    0.3930372165552677    0.51685037572165    
  0.4738360762371605    0.39648391138993655    0.3665091828713302    0.43817147151875324    0.4643435975076904    
  0.530114731621836    0.579843031457143    0.5258889892317369    0.3930371878338548    0.3279271343935043    
  0.39303725858291355    0.5258890247674674    0.5798429103395457    0.5301147549496572    0.4643435941272829    
  0.43817147151875324    0.49574116979804034    0.5221576806135322    0.5762049646861314    0.6061597845134633    
  0.5798429047767512    0.5168503182529773    0.48339272539561123    0.5168504320296975    0.5798428882752368    
  0.606159829368824    0.5762049034000288    0.5221577188573859    0.49574116979804034    0.4326720058608875    
  0.4773335204041733    0.5566600883711448    0.5762050246257509    0.530114775538234    0.4738359577798525    
  0.4503830909856234    0.47383598942501887    0.5301146583040063    0.5762049918222797    0.5566600959403761    
  0.4773334187709743    0.4326720058608875    0.28744415950731567    0.3500479682900704    0.4773334861231176    
  0.522157717784844    0.4643435241515547    0.3964838997296612    0.3706608147658357    0.39648388425088577    
  0.4643436043296733    0.5221577164908792    0.4773334198405222    0.35004788329485464    0.28744415950731567    
  0.22219503273874897    0.28744405395471423    0.43267185427860716    0.4957411695545227    0.43817143464375735    
  0.3665091267318576    0.33960755971945794    0.366509191778348    0.4381714161498936    0.4957411962837782    
  0.43267187097022053    0.2874440673368418    0.22219503273874897    0.38597309006918057    0.4115928810388701    
  0.44588274531504335    0.4277468117168195    0.36924239196513264    0.31768147200447305    0.2988978914459126    
  0.3176814825837597    0.3692423701844698    0.4277468134882496    0.44588282137616314    0.4115929137539972    
  0.38597309006918057    0.4115929879366039    0.4339525034566881    0.4627153058577253    0.4458480714893328    
  0.39423693385006314    0.34736734748967996    0.3296304519504612    0.34736735614850434    0.39423686086975257    
  0.44584806828560286    0.46271542215303385    0.433952425059453    0.4115929879366039    0.44588278482689747    
  0.46271540132137323    0.48863516687561576    0.48829971371447556    0.4601799965041116    0.42509043960528203    
  0.4090956377718591    0.42509053561547444    0.4601798640506343    0.4882996068614518    0.4886351399217864    
  0.46271524848965384    0.44588278482689747    0.4277467979657323    0.4458480212465437    0.4882995438865919    
  0.5232341291125429    0.5161707376516778    0.4693470327252346    0.4409646879753439    0.4693471220572158    
  0.5161709237150693    0.5232340513467123    0.4882995504419439    0.4458480685291434    0.4277467979657323    
  0.3692424614900258    0.3942369313890477    0.4601799040622814    0.5161707709308889    0.47102992861768544    
  0.34500572087617315    0.2832166286550115    0.3450057861060341    0.4710297411534159    0.5161708333869729    
  0.46017999146408645    0.39423691484598605    0.3692424614900258    0.3176814578085979    0.3473673859871102    
  0.4250905275464628    0.4693471071376494    0.3450057366690183    0.16345911939814672    0.10182486359264523    
  0.16345913371193177    0.34500570643244477    0.46934704678459965    0.425090500106705    0.34736732062708614    