#     DFTpy    
  CRYSTAL 
    
  PRIMVEC    
  3.4948965517241404    0.0    0.0    
  0.0    3.4948965517241404    0.0    
  0.0    0.0    3.4948965517241404    
  PRIMCOORD    
  2    1    
  Si    0.0    0.0    0.0    
  Si    1.7474482758620706    1.7474482758620706    1.7474482758620706    
  BEGIN_BLOCK_DATAGRID_3D    
  3d_datagrid_density    
  BEGIN_DATAGRID_3D#0    
  37    37    37    
  0.0    0.0    0.0    
  3.4948965647601713    0.0    0.0    
  0.0    3.4948965647601713    0.0    
  0.0    0.0    3.4948965647601713    
  0.05841724892684076    0.06562334311880373    0.08911752391022398    0.13256230012027018    0.19565882079349245    
  0.26795723105111047    0.32978404986646714    0.36284203278066035    0.3612404998212962    0.33250757784302787    
  0.2898709256417849    0.24461200201819377    0.20335005885845522    0.16890151218294328    0.14190536115487534    
  0.12197727877005592    0.10839649428928866    0.10051277723184797    0.09792739263521881    0.10051277723184797    
  0.10839649428928866    0.12197727877005585    0.14190536115487534    0.16890151218294328    0.20335005885845522    
  0.24461200201819372    0.2898709256417849    0.33250757784302787    0.3612404998212962    0.36284203278066035    
  0.32978404986646714    0.26795723105111047    0.19565882079349245    0.13256230012027023    0.08911752391022398    
  0.06562334311880376    0.05841724892684076    0.06562334311880376    0.07316930018928797    0.09749389057687641    
  0.14166457424370738    0.20453057845259498    0.27510843184834327    0.33407561724503493    0.36418564865686825    
  0.3604817833868079    0.33075579375289244    0.28795565077204016    0.2429529305818791    0.20207644443049205    
  0.16799808763005014    0.14130130100024216    0.12158894384653401    0.10814712466632564    0.10033917096029737    
  0.09777763924008777    0.1003391709602974    0.10814712466632564    0.12158894384653397    0.14130130100024219    
  0.16799808763005014    0.20207644443049205    0.24295293058187906    0.28795565077204016    0.33075579375289244    
  0.3604817833868079    0.36418564865686825    0.33407561724503493    0.2751084318483433    0.20453057845259498    
  0.14166457424370738    0.09749389057687641    0.073169300189288    0.06562334311880376    0.08911752391022397    
  0.09749389057687644    0.12371652911557984    0.1691070359315221    0.23024551312822783    0.29500060990104426    
  0.34535823911075564    0.36706919716088593    0.3576108585407222    0.3253068691461757    0.28221748730395096    
  0.23804996058643035    0.19833409710053002    0.16535041404783057    0.13953382189334984    0.12045514151496453    
  0.10742230584600138    0.09983808757106814    0.09734718488513668    0.09983808757106813    0.10742230584600138    
  0.12045514151496449    0.13953382189334984    0.16535041404783055    0.19833409710053002    0.23804996058643024    
  0.28221748730395096    0.3253068691461757    0.3576108585407222    0.36706919716088593    0.34535823911075564    
  0.29500060990104426    0.2302455131282278    0.1691070359315221    0.12371652911557982    0.09749389057687644    
  0.08911752391022397    0.13256230012027012    0.1416645742437074    0.1691070359315221    0.21365852221050724    
  0.26912954230065506    0.3227332039949568    0.35914313308901    0.3684684497855272    0.35115480565160756    
  0.3157391556580284    0.27273579812787785    0.2301352682362161    0.19235293908903234    0.16113848495969074    
  0.13673065896395561    0.11866493096838605    0.1062885910926207    0.09906598804425625    0.09668984758971957    
  0.09906598804425626    0.10628859109262069    0.11866493096838605    0.13673065896395561    0.16113848495969074    
  0.19235293908903234    0.23013526823621608    0.27273579812787785    0.3157391556580284    0.35115480565160756    
  0.3684684497855271    0.35914313308901    0.3227332039949568    0.26912954230065506    0.21365852221050724    
  0.16910703593152213    0.1416645742437074    0.13256230012027012    0.19565882079349242    0.20453057845259498    
  0.2302455131282278    0.26912954230065506    0.3130905203728645    0.3502162089445244    0.3691573220624174    
  0.36466139001281733    0.33954877044089676    0.3017776045392682    0.2597849953749725    0.21961395487459714    
  0.18449662163055913    0.15563823332627344    0.13308540217265064    0.11635289244903037    0.10484663501208731    
  0.09810831638757231    0.09588706139182215    0.09810831638757231    0.10484663501208731    0.11635289244903034    
  0.13308540217265064    0.15563823332627344    0.18449662163055913    0.21961395487459712    0.2597849953749725    
  0.3017776045392682    0.33954877044089676    0.3646613900128173    0.3691573220624174    0.3502162089445245    
  0.31309052037286456    0.26912954230065506    0.2302455131282278    0.20453057845259498    0.19565882079349242    
  0.2679572310511104    0.27510843184834327    0.29500060990104426    0.3227332039949568    0.35021620894452443    
  0.36810856907321327    0.3694737917455739    0.35280010753421814    0.3219962275434488    0.28364364568575473    
  0.2439250409129356    0.2070570370928838    0.17523125999766262    0.14919128900323614    0.12883443406094447    
  0.11368261438931546    0.10321852991497528    0.09706829655809386    0.09503695326670238    0.09706829655809386    
  0.10321852991497525    0.11368261438931546    0.12883443406094452    0.14919128900323614    0.17523125999766262    
  0.2070570370928838    0.2439250409129356    0.28364364568575473    0.3219962275434488    0.35280010753421814    
  0.3694737917455739    0.36810856907321327    0.3502162089445245    0.3227332039949568    0.29500060990104426    
  0.2751084318483433    0.2679572310511104    0.32978404986646703    0.33407561724503493    0.3453582391107555    
  0.35914313308901    0.36915732206241747    0.36947379174557377    0.35689835535476533    0.3321303179618625    
  0.2989406050200526    0.262169114630453    0.22598702077535107    0.19315653030993765    0.16508204282012526    
  0.14217131189656892    0.12423336707728384    0.11083028987026039    0.101534713348252    0.09605450806062675    
  0.09424184861418301    0.0960545080606267    0.101534713348252    0.11083028987026036    0.12423336707728384    
  0.14217131189656892    0.16508204282012526    0.19315653030993762    0.22598702077535107    0.262169114630453    
  0.2989406050200526    0.3321303179618625    0.35689835535476533    0.36947379174557377    0.36915732206241747    
  0.3591431330890101    0.3453582391107555    0.33407561724503493    0.32978404986646703    0.36284203278066035    
  0.3641856486568683    0.36706919716088593    0.3684684497855271    0.3646613900128174    0.3528001075342182    
  0.33213031796186254    0.30418161691012613    0.2719350734363328    0.2386405289172357    0.20696230869837126    
  0.1786522196948352    0.15458350068912652    0.13495075019058073    0.11953588196431457    0.10797064820497115    
  0.09992233505739265    0.0951691184357625    0.09359613391738193    0.09516911843576246    0.09992233505739267    
  0.10797064820497108    0.11953588196431457    0.13495075019058073    0.15458350068912652    0.1786522196948352    
  0.20696230869837126    0.2386405289172357    0.2719350734363328    0.3041816169101261    0.33213031796186254    
  0.3528001075342182    0.3646613900128174    0.3684684497855272    0.367069197160886    0.36418564865686825    
  0.36284203278066035    0.3612404998212962    0.36048178338680803    0.3576108585407222    0.3511548056516076    
  0.3395487704408967    0.32199622754344887    0.2989406050200526    0.2719350734363328    0.24309502636501865    
  0.2145099079864129    0.18785929167053017    0.16425351130560759    0.14423118105880037    0.12787033364598765    
  0.11497491336681118    0.10526437407763525    0.09849477134794193    0.0944975141270381    0.09317572687891396    
  0.09449751412703809    0.09849477134794193    0.10526437407763523    0.11497491336681118    0.12787033364598765    
  0.14423118105880037    0.16425351130560759    0.18785929167053017    0.2145099079864129    0.24309502636501865    
  0.2719350734363328    0.2989406050200526    0.32199622754344887    0.3395487704408967    0.3511548056516076    
  0.3576108585407222    0.360481783386808    0.3612404998212962    0.3325075778430278    0.33075579375289244    
  0.3253068691461757    0.31573915565802835    0.3017776045392682    0.2836436456857548    0.262169114630453    
  0.2386405289172357    0.2145099079864129    0.19113025695154814    0.16958045080845896    0.15057302042439413    
  0.13444146489808675    0.12121397376968744    0.11074600412727202    0.1028456065434797    0.09734133284349994    
  0.09409946110048482    0.09302980980472803    0.09409946110048478    0.09734133284349994    0.10284560654347966    
  0.11074600412727202    0.12121397376968744    0.13444146489808675    0.1505730204243941    0.16958045080845896    
  0.19113025695154817    0.2145099079864129    0.2386405289172357    0.262169114630453    0.28364364568575473    
  0.3017776045392682    0.3157391556580284    0.3253068691461757    0.3307557937528924    0.3325075778430278    
  0.28987092564178485    0.2879556507720401    0.28221748730395096    0.2727357981278778    0.2597849953749725    
  0.24392504091293554    0.22598702077535107    0.20696230869837118    0.18785929167053017    0.1695804508084589    
  0.15283339653598613    0.13807813713307726    0.12552537411052214    0.1151932246878312    0.10699501504896664    
  0.10081063814905018    0.09651792760774668    0.09400242958035761    0.09317541524216232    0.0940024295803576    
  0.09651792760774668    0.10081063814905014    0.10699501504896664    0.11519322468783126    0.12552537411052214    
  0.13807813713307726    0.15283339653598613    0.1695804508084589    0.18785929167053017    0.20696230869837118    
  0.22598702077535107    0.24392504091293554    0.2597849953749725    0.2727357981278778    0.28221748730395096    
  0.2879556507720401    0.28987092564178485    0.24461200201819377    0.2429529305818791    0.23804996058643035    
  0.23013526823621616    0.21961395487459714    0.2070570370928839    0.19315653030993768    0.1786522196948352    
  0.1642535113056076    0.15057302042439416    0.1380781371330773    0.127067529631801    0.11768171236457707    
  0.10994453813114898    0.10381308330993634    0.09921091172905233    0.09604115221867174    0.09419834651248189    
  0.09359551784552103    0.09419834651248186    0.09604115221867174    0.09921091172905225    0.10381308330993634    
  0.10994453813114898    0.11768171236457707    0.12706752963180099    0.1380781371330773    0.15057302042439416    
  0.1642535113056076    0.1786522196948352    0.19315653030993768    0.20705703709288392    0.21961395487459714    
  0.23013526823621616    0.2380499605864303    0.2429529305818791    0.24461200201819377    0.20335005885845522    
  0.20207644443049208    0.19833409710053    0.19235293908903237    0.1844966216305592    0.17523125999766262    
  0.16508204282012529    0.1545835006891265    0.14423118105880037    0.13444146489808675    0.12552537411052214    
  0.11768171236457707    0.1110103708930168    0.10553749098975207    0.10123861914756056    0.09805201542729805    
  0.09588769179884195    0.09464467176663559    0.09424094332695862    0.09464467176663559    0.09588769179884195    
  0.09805201542729804    0.10123861914756056    0.10553749098975207    0.1110103708930168    0.11768171236457707    
  0.12552537411052214    0.13444146489808675    0.14423118105880037    0.1545835006891265    0.16508204282012529    
  0.17523125999766262    0.1844966216305592    0.19235293908903237    0.19833409710053    0.20207644443049208    
  0.20335005885845522    0.16890151218294333    0.1679980876300502    0.16535041404783057    0.16113848495969077    
  0.15563823332627344    0.14919128900323617    0.14217131189656892    0.13495075019058064    0.12787033364598765    
  0.12121397376968744    0.1151932246878312    0.10994453813114892    0.10553749098975207    0.10198694637083733    
  0.09926278857461879    0.09729764964281554    0.09599889332739123    0.09526961833895775    0.09503578289855837    
  0.09526961833895771    0.09599889332739123    0.0972976496428155    0.09926278857461879    0.10198694637083733    
  0.10553749098975207    0.10994453813114898    0.1151932246878312    0.12121397376968744    0.12787033364598765    
  0.13495075019058062    0.14217131189656892    0.14919128900323617    0.15563823332627344    0.16113848495969077    
  0.16535041404783057    0.16799808763005014    0.16890151218294333    0.14190536115487534    0.14130130100024219    
  0.13953382189334987    0.13673065896395561    0.13308540217265064    0.12883443406094447    0.12423336707728379    
  0.1195358819643145    0.11497491336681118    0.11074600412727202    0.10699501504896673    0.10381308330993634    
  0.10123861914756056    0.09926278857461882    0.09783600571679563    0.0968772340749421    0.09628943581724146    
  0.09598070432174839    0.09588565915975412    0.09598070432174839    0.09628943581724146    0.0968772340749421    
  0.09783600571679563    0.09926278857461886    0.10123861914756056    0.10381308330993634    0.10699501504896673    
  0.11074600412727202    0.11497491336681118    0.1195358819643145    0.12423336707728379    0.12883443406094444    
  0.13308540217265064    0.13673065896395561    0.13953382189334987    0.14130130100024219    0.14190536115487534    
  0.12197727877005592    0.12158894384653404    0.12045514151496453    0.11866493096838603    0.11635289244903031    
  0.1136826143893155    0.1108302898702604    0.10797064820497106    0.1052643740776353    0.10284560654347973    
  0.10081063814905018    0.09921091172905225    0.09805201542729808    0.0972976496428155    0.09687723407494207    
  0.09669762920968138    0.09665950594321801    0.09667592387515957    0.09668825503593671    0.09667592387515957    
  0.09665950594321797    0.09669762920968139    0.09687723407494207    0.09729764964281554    0.09805201542729808    
  0.09921091172905219    0.10081063814905018    0.10284560654347973    0.1052643740776353    0.10797064820497108    
  0.1108302898702604    0.11368261438931548    0.11635289244903031    0.11866493096838607    0.12045514151496453    
  0.12158894384653401    0.12197727877005592    0.10839649428928855    0.10814712466632562    0.10742230584600135    
  0.10628859109262066    0.10484663501208723    0.10321852991497525    0.10153471334825195    0.09992233505739263    
  0.09849477134794196    0.09734133284349994    0.09651792760774668    0.09604115221867172    0.09588769179884189    
  0.0959988933273912    0.09628943581724143    0.09665950594321804    0.09700975798122158    0.09725674613847861    
  0.09734545059719053    0.09725674613847861    0.09700975798122158    0.096659505943218    0.09628943581724143    
  0.09599889332739125    0.09588769179884189    0.09604115221867174    0.09651792760774668    0.09734133284349994    
  0.09849477134794196    0.09992233505739265    0.10153471334825195    0.10321852991497525    0.10484663501208723    
  0.10628859109262066    0.10742230584600135    0.1081471246663256    0.10839649428928855    0.10051277723184796    
  0.10033917096029743    0.09983808757106814    0.09906598804425622    0.09810831638757225    0.0970682965580939    
  0.09605450806062671    0.09516911843576241    0.09449751412703807    0.09409946110048478    0.0940024295803576    
  0.09419834651248186    0.09464467176663555    0.09526961833895765    0.09598070432174834    0.09667592387515961    
  0.09725674613847857    0.09764135143525077    0.09777581738259074    0.0976413514352508    0.09725674613847861    
  0.09667592387515964    0.09598070432174834    0.09526961833895765    0.09464467176663555    0.09419834651248184    
  0.0940024295803576    0.09409946110048478    0.09449751412703807    0.09516911843576241    0.0960545080606267    
  0.0970682965580939    0.09810831638757224    0.09906598804425622    0.09983808757106816    0.10033917096029743    
  0.10051277723184796    0.0979273926352188    0.09777763924008782    0.09734718488513672    0.09668984758971962    
  0.09588706139182213    0.09503695326670233    0.09424184861418297    0.09359613391738189    0.09317572687891391    
  0.09302980980472808    0.09317541524216229    0.09359551784552105    0.09424094332695868    0.09503578289855834    
  0.09588565915975407    0.0966882550359367    0.09734545059719049    0.09777581738259071    0.09792554113499184    
  0.09777581738259071    0.09734545059719049    0.09668825503593673    0.09588565915975407    0.09503578289855837    
  0.09424094332695868    0.09359551784552105    0.09317541524216229    0.09302980980472803    0.09317572687891391    
  0.09359613391738188    0.09424184861418297    0.09503695326670235    0.09588706139182213    0.09668984758971962    
  0.09734718488513672    0.09777763924008782    0.0979273926352188    0.10051277723184794    0.10033917096029742    
  0.09983808757106813    0.09906598804425625    0.09810831638757224    0.09706829655809392    0.09605450806062668    
  0.0951691184357624    0.09449751412703804    0.09409946110048478    0.0940024295803576    0.09419834651248189    
  0.09464467176663557    0.09526961833895772    0.09598070432174839    0.09667592387515964    0.09725674613847862    
  0.0976413514352508    0.0977758173825907    0.0976413514352508    0.09725674613847862    0.0966759238751596    
  0.09598070432174834    0.09526961833895772    0.09464467176663557    0.09419834651248189    0.0940024295803576    
  0.09409946110048478    0.09449751412703804    0.0951691184357624    0.09605450806062668    0.09706829655809393    
  0.09810831638757224    0.09906598804425623    0.09983808757106813    0.1003391709602974    0.10051277723184794    
  0.10839649428928855    0.10814712466632562    0.10742230584600135    0.10628859109262066    0.10484663501208723    
  0.10321852991497525    0.10153471334825195    0.09992233505739263    0.09849477134794196    0.09734133284349994    
  0.09651792760774668    0.09604115221867177    0.09588769179884189    0.0959988933273912    0.09628943581724143    
  0.09665950594321804    0.09700975798122158    0.09725674613847861    0.09734545059719053    0.09725674613847861    
  0.09700975798122158    0.096659505943218    0.09628943581724143    0.09599889332739125    0.09588769179884189    
  0.09604115221867174    0.09651792760774668    0.09734133284349994    0.09849477134794196    0.09992233505739263    
  0.10153471334825195    0.10321852991497525    0.10484663501208723    0.10628859109262066    0.10742230584600135    
  0.10814712466632562    0.10839649428928855    0.12197727877005587    0.12158894384653401    0.12045514151496456    
  0.11866493096838607    0.11635289244903034    0.11368261438931548    0.11083028987026036    0.10797064820497108    
  0.1052643740776353    0.10284560654347973    0.10081063814905018    0.09921091172905225    0.09805201542729808    
  0.0972976496428155    0.09687723407494207    0.09669762920968142    0.096659505943218    0.0966759238751596    
  0.09668825503593671    0.0966759238751596    0.096659505943218    0.0966976292096814    0.09687723407494207    
  0.0972976496428155    0.09805201542729808    0.09921091172905225    0.10081063814905018    0.10284560654347973    
  0.1052643740776353    0.10797064820497108    0.11083028987026036    0.11368261438931548    0.11635289244903034    
  0.1186649309683861    0.12045514151496456    0.12158894384653401    0.12197727877005587    0.14190536115487534    
  0.14130130100024219    0.13953382189334987    0.13673065896395561    0.13308540217265064    0.12883443406094447    
  0.12423336707728379    0.1195358819643145    0.11497491336681118    0.11074600412727202    0.10699501504896673    
  0.10381308330993634    0.10123861914756056    0.09926278857461882    0.09783600571679563    0.0968772340749421    
  0.09628943581724146    0.0959807043217484    0.09588565915975412    0.09598070432174839    0.09628943581724146    
  0.0968772340749421    0.09783600571679563    0.09926278857461886    0.10123861914756052    0.10381308330993634    
  0.10699501504896673    0.11074600412727202    0.11497491336681118    0.1195358819643145    0.12423336707728379    
  0.12883443406094444    0.1330854021726506    0.13673065896395561    0.13953382189334987    0.14130130100024219    
  0.14190536115487534    0.16890151218294328    0.16799808763005014    0.16535041404783055    0.16113848495969071    
  0.15563823332627344    0.14919128900323614    0.14217131189656898    0.1349507501905807    0.12787033364598768    
  0.12121397376968747    0.11519322468783123    0.10994453813114898    0.10553749098975207    0.10198694637083737    
  0.09926278857461879    0.09729764964281554    0.09599889332739123    0.09526961833895772    0.09503578289855841    
  0.09526961833895768    0.0959988933273913    0.0972976496428155    0.09926278857461879    0.10198694637083737    
  0.10553749098975207    0.10994453813114892    0.11519322468783123    0.12121397376968748    0.12787033364598768    
  0.13495075019058073    0.14217131189656898    0.14919128900323614    0.15563823332627344    0.16113848495969077    
  0.16535041404783057    0.16799808763005014    0.16890151218294328    0.20335005885845522    0.20207644443049208    
  0.19833409710053    0.19235293908903234    0.1844966216305592    0.17523125999766262    0.16508204282012529    
  0.1545835006891265    0.14423118105880037    0.13444146489808675    0.12552537411052214    0.11768171236457707    
  0.1110103708930168    0.10553749098975207    0.10123861914756056    0.09805201542729805    0.09588769179884195    
  0.09464467176663559    0.09424094332695862    0.09464467176663559    0.09588769179884195    0.09805201542729804    
  0.10123861914756056    0.10553749098975207    0.1110103708930168    0.11768171236457707    0.12552537411052214    
  0.13444146489808675    0.14423118105880037    0.1545835006891265    0.16508204282012529    0.17523125999766262    
  0.1844966216305592    0.19235293908903237    0.19833409710053    0.20207644443049208    0.20335005885845522    
  0.24461200201819377    0.2429529305818791    0.23804996058643035    0.23013526823621616    0.21961395487459714    
  0.20705703709288387    0.19315653030993762    0.1786522196948352    0.16425351130560759    0.15057302042439416    
  0.1380781371330773    0.12706752963180099    0.11768171236457713    0.10994453813114902    0.10381308330993634    
  0.09921091172905229    0.09604115221867177    0.09419834651248193    0.09359551784552105    0.09419834651248193    
  0.09604115221867174    0.09921091172905233    0.10381308330993634    0.10994453813114902    0.11768171236457713    
  0.12706752963180099    0.1380781371330773    0.15057302042439416    0.16425351130560759    0.17865221969483516    
  0.19315653030993762    0.20705703709288384    0.21961395487459714    0.23013526823621616    0.23804996058643035    
  0.2429529305818791    0.24461200201819377    0.28987092564178485    0.2879556507720401    0.28221748730395096    
  0.2727357981278778    0.2597849953749725    0.24392504091293554    0.22598702077535107    0.20696230869837118    
  0.18785929167053017    0.1695804508084589    0.15283339653598613    0.13807813713307726    0.12552537411052214    
  0.1151932246878312    0.10699501504896664    0.10081063814905018    0.09651792760774668    0.09400242958035761    
  0.09317541524216232    0.0940024295803576    0.09651792760774668    0.10081063814905014    0.10699501504896664    
  0.11519322468783126    0.12552537411052214    0.13807813713307726    0.15283339653598613    0.1695804508084589    
  0.18785929167053017    0.20696230869837118    0.22598702077535107    0.24392504091293554    0.2597849953749725    
  0.2727357981278778    0.28221748730395096    0.2879556507720401    0.28987092564178485    0.3325075778430278    
  0.33075579375289244    0.3253068691461757    0.31573915565802835    0.3017776045392682    0.2836436456857548    
  0.262169114630453    0.2386405289172357    0.2145099079864129    0.19113025695154814    0.16958045080845896    
  0.15057302042439413    0.13444146489808675    0.12121397376968748    0.11074600412727202    0.1028456065434797    
  0.09734133284349994    0.09409946110048482    0.09302980980472808    0.09409946110048478    0.09734133284349994    
  0.10284560654347966    0.11074600412727202    0.12121397376968748    0.13444146489808675    0.15057302042439413    
  0.16958045080845896    0.19113025695154817    0.2145099079864129    0.2386405289172357    0.262169114630453    
  0.2836436456857548    0.3017776045392682    0.3157391556580284    0.3253068691461757    0.3307557937528924    
  0.3325075778430278    0.3612404998212962    0.36048178338680803    0.3576108585407222    0.3511548056516076    
  0.3395487704408967    0.32199622754344887    0.2989406050200526    0.2719350734363328    0.24309502636501865    
  0.2145099079864129    0.18785929167053017    0.16425351130560759    0.14423118105880037    0.12787033364598765    
  0.11497491336681118    0.10526437407763525    0.09849477134794193    0.0944975141270381    0.09317572687891396    
  0.09449751412703809    0.09849477134794193    0.10526437407763523    0.11497491336681118    0.12787033364598765    
  0.14423118105880037    0.16425351130560759    0.18785929167053017    0.2145099079864129    0.24309502636501865    
  0.2719350734363328    0.2989406050200526    0.32199622754344887    0.3395487704408967    0.3511548056516076    
  0.3576108585407222    0.360481783386808    0.3612404998212962    0.3628420327806603    0.3641856486568683    
  0.36706919716088593    0.3684684497855271    0.3646613900128174    0.3528001075342182    0.3321303179618625    
  0.3041816169101261    0.2719350734363328    0.2386405289172357    0.2069623086983712    0.17865221969483516    
  0.1545835006891265    0.1349507501905807    0.1195358819643146    0.10797064820497108    0.09992233505739266    
  0.09516911843576245    0.09359613391738188    0.09516911843576241    0.09992233505739266    0.10797064820497103    
  0.1195358819643146    0.13495075019058067    0.1545835006891265    0.17865221969483516    0.2069623086983712    
  0.2386405289172357    0.2719350734363328    0.3041816169101261    0.3321303179618625    0.3528001075342182    
  0.3646613900128174    0.3684684497855272    0.36706919716088593    0.36418564865686825    0.3628420327806603    
  0.32978404986646703    0.33407561724503493    0.3453582391107555    0.35914313308901    0.36915732206241747    
  0.36947379174557377    0.35689835535476533    0.3321303179618625    0.2989406050200526    0.262169114630453    
  0.22598702077535107    0.19315653030993765    0.16508204282012526    0.14217131189656892    0.12423336707728379    
  0.1108302898702604    0.101534713348252    0.09605450806062675    0.09424184861418301    0.0960545080606267    
  0.101534713348252    0.11083028987026036    0.12423336707728384    0.14217131189656892    0.16508204282012526    
  0.19315653030993762    0.22598702077535107    0.262169114630453    0.2989406050200526    0.3321303179618625    
  0.35689835535476533    0.36947379174557377    0.36915732206241747    0.3591431330890101    0.3453582391107555    
  0.33407561724503493    0.32978404986646703    0.26795723105111047    0.2751084318483433    0.2950006099010443    
  0.3227332039949568    0.35021620894452454    0.3681085690732134    0.36947379174557377    0.35280010753421814    
  0.32199622754344887    0.2836436456857547    0.24392504091293554    0.2070570370928838    0.17523125999766262    
  0.14919128900323614    0.12883443406094452    0.1136826143893155    0.10321852991497525    0.09706829655809393    
  0.09503695326670232    0.0970682965580939    0.10321852991497525    0.11368261438931548    0.1288344340609445    
  0.14919128900323614    0.17523125999766262    0.2070570370928838    0.24392504091293554    0.2836436456857547    
  0.32199622754344887    0.35280010753421814    0.36947379174557377    0.3681085690732133    0.35021620894452454    
  0.3227332039949568    0.29500060990104426    0.2751084318483433    0.26795723105111047    0.19565882079349242    
  0.20453057845259498    0.2302455131282278    0.26912954230065506    0.31309052037286456    0.3502162089445244    
  0.3691573220624174    0.36466139001281733    0.33954877044089676    0.3017776045392682    0.2597849953749725    
  0.21961395487459714    0.18449662163055913    0.15563823332627344    0.13308540217265064    0.11635289244903037    
  0.10484663501208731    0.09810831638757231    0.09588706139182215    0.09810831638757231    0.10484663501208731    
  0.11635289244903034    0.13308540217265064    0.15563823332627344    0.18449662163055913    0.21961395487459712    
  0.2597849953749725    0.3017776045392682    0.3395487704408967    0.3646613900128173    0.3691573220624174    
  0.3502162089445245    0.3130905203728645    0.26912954230065506    0.2302455131282278    0.20453057845259495    
  0.19565882079349242    0.13256230012027012    0.1416645742437074    0.16910703593152207    0.2136585222105072    
  0.26912954230065506    0.32273320399495675    0.3591431330890101    0.3684684497855272    0.3511548056516076    
  0.3157391556580284    0.27273579812787785    0.23013526823621616    0.19235293908903234    0.16113848495969074    
  0.13673065896395564    0.11866493096838607    0.10628859109262061    0.09906598804425622    0.09668984758971959    
  0.09906598804425622    0.10628859109262066    0.118664930968386    0.13673065896395561    0.16113848495969077    
  0.19235293908903234    0.23013526823621608    0.27273579812787785    0.3157391556580284    0.3511548056516076    
  0.3684684497855272    0.3591431330890101    0.3227332039949568    0.26912954230065506    0.21365852221050724    
  0.1691070359315221    0.1416645742437074    0.13256230012027012    0.08911752391022397    0.09749389057687644    