#     DFTpy    
  CRYSTAL 
    
  PRIMVEC    
  3.11131034482759    0.0    0.0    
  0.0    3.11131034482759    0.0    
  0.0    0.0    3.11131034482759    
  PRIMCOORD    
  2    1    
  Si    0.0    0.0    0.0    
  Si    1.5556551724137904    1.5556551724137904    1.5556551724137904    
  BEGIN_BLOCK_DATAGRID_3D    
  3d_datagrid_density    
  BEGIN_DATAGRID_3D#0    
  31    31    31    
  0.0    0.0    0.0    
  3.1113103564328375    0.0    0.0    
  0.0    3.1113103564328375    0.0    
  0.0    0.0    3.1113103564328375    
  0.054988228559574026    0.06309095441534172    0.08994870801268141    0.14036021081224942    0.21311554893500836    
  0.29311613699106903    0.35533548605830934    0.3810066384531337    0.36936958686676286    0.3337197792648089    
  0.28973327682978617    0.24820792431289507    0.2144646951824772    0.19038253593973584    0.17617737738956035    
  0.17150922673027805    0.17617737738956038    0.1903825359397359    0.2144646951824772    0.248207924312895    
  0.2897332768297861    0.3337197792648089    0.36936958686676286    0.3810066384531337    0.35533548605830934    
  0.29311613699106903    0.21311554893500836    0.14036021081224948    0.08994870801268137    0.06309095441534172    
  0.054988228559574026    0.0630909544153417    0.07166660201512282    0.09967539905525628    0.15105955463873427    
  0.22342011132291814    0.30107633625670704    0.3597572042111197    0.3821998532029123    0.36862985456093567    
  0.33233264335358004    0.2884516233809984    0.24729397271640555    0.21391875396314344    0.1901105249950382    
  0.17606631423349944    0.17145050151408323    0.17606631423349947    0.19011052499503825    0.21391875396314344    
  0.24729397271640555    0.2884516233809984    0.33233264335358004    0.36862985456093567    0.38219985320291233    
  0.3597572042111197    0.301076336256707    0.22342011132291814    0.15105955463873427    0.09967539905525623    
  0.07166660201512284    0.0630909544153417    0.08994870801268134    0.0996753990552562    0.13028688356240775    
  0.18322576029660065    0.25301491732312376    0.32291464762342076    0.37116522171651445    0.3846231140089522    
  0.36592212658469897    0.3280665676749253    0.2846433882721006    0.24461070578612926    0.212323936532251    
  0.18931763128707838    0.17574217926917463    0.17127836306849803    0.17574217926917463    0.1893176312870784    
  0.212323936532251    0.24461070578612923    0.2846433882721006    0.32806656767492537    0.3659221265846989    
  0.38462311400895227    0.37116522171651445    0.3229146476234207    0.25301491732312376    0.18322576029660065    
  0.13028688356240775    0.0996753990552562    0.08994870801268134    0.14036021081224942    0.1510595546387343    
  0.18322576029660065    0.2347561688549035    0.29670211054511825    0.3523452340768691    0.3844027454061403    
  0.38524880377184034    0.3600179553937688    0.3206717229819672    0.2784076463443122    0.24030930882431023    
  0.2097924978649979    0.18806669028654083    0.17523257138346265    0.17100781841071985    0.17523257138346263    
  0.18806669028654088    0.2097924978649979    0.24030930882431015    0.2784076463443122    0.3206717229819672    
  0.3600179553937688    0.38524880377184034    0.3844027454061403    0.3523452340768691    0.29670211054511825    
  0.2347561688549035    0.18322576029660065    0.1510595546387343    0.14036021081224942    0.2131155489350083    
  0.2234201113229181    0.25301491732312376    0.29670211054511825    0.3436814835327159    0.37948008866791255    
  0.39256288344363993    0.38045126021139386    0.3495885775656442    0.3099399634227108    0.26990138794428814    
  0.23458793734157873    0.2064713820731836    0.18644572454599978    0.17458444492247358    0.17067131042988198    
  0.1745844449224736    0.18644572454599984    0.2064713820731836    0.23458793734157868    0.26990138794428814    
  0.30993996342271085    0.3495885775656442    0.3804512602113938    0.39256288344363993    0.37948008866791255    
  0.3436814835327159    0.29670211054511825    0.25301491732312376    0.2234201113229181    0.2131155489350083    
  0.29311613699106903    0.30107633625670693    0.32291464762342076    0.3523452340768691    0.3794800886679126    
  0.39397182630464805    0.38975736361919416    0.3677132434808771    0.3339820691899114    0.29596095082320767    
  0.2593863368231214    0.2276786354984149    0.2025222090537627    0.1845567001961537    0.17386346291022148    
  0.17032263949240306    0.17386346291022145    0.18455670019615372    0.2025222090537627    0.22767863549841486    
  0.25938633682312146    0.29596095082320767    0.33398206918991136    0.3677132434808771    0.38975736361919416    
  0.39397182630464805    0.3794800886679126    0.3523452340768691    0.32291464762342076    0.30107633625670693    
  0.29311613699106903    0.3553354860583093    0.3597572042111197    0.37116522171651445    0.3844027454061403    
  0.39256288344363993    0.3897573636191942    0.37379813795719846    0.3468535702674795    0.31371071741984274    
  0.2793139290741806    0.24731240145107433    0.21988280548477418    0.19813080936776525    0.18251313883283898    
  0.17314846773349657    0.1700312504459173    0.1731484677334965    0.18251313883283904    0.19813080936776525    
  0.21988280548477415    0.2473124014510744    0.2793139290741806    0.31371071741984263    0.3468535702674795    
  0.37379813795719846    0.38975736361919416    0.39256288344363993    0.3844027454061403    0.3711652217165145    
  0.3597572042111196    0.3553354860583093    0.38100663845313365    0.3821998532029123    0.3846231140089522    
  0.38524880377184034    0.38045126021139386    0.3677132434808771    0.3468535702674795    0.31998226084339676    
  0.2903505393947073    0.2610555958357932    0.2343531626076055    0.21160596058182637    0.193523579304127    
  0.18043853787991054    0.17251797010046566    0.16986451904948305    0.1725179701004656    0.18043853787991054    
  0.193523579304127    0.2116059605818263    0.23435316260760555    0.2610555958357932    0.29035053939470723    
  0.3199822608433967    0.3468535702674795    0.3677132434808771    0.3804512602113938    0.38524880377184034    
  0.3846231140089522    0.3821998532029123    0.38100663845313365    0.36936958686676286    0.36862985456093567    
  0.365922126584699    0.36001795539376885    0.3495885775656443    0.3339820691899114    0.3137107174198427    
  0.29035053939470734    0.26596792029220306    0.24248637756370495    0.22132048464858592    0.20332667636977905    
  0.18895353845758253    0.17845285289355386    0.1720303794538943    0.16986442497894452    0.17203037945389427    
  0.17845285289355392    0.18895353845758253    0.20332667636977902    0.22132048464858597    0.2424863775637049    
  0.26596792029220306    0.29035053939470734    0.3137107174198427    0.3339820691899114    0.34958857756564427    
  0.36001795539376885    0.365922126584699    0.3686298545609356    0.36936958686676286    0.33371977926480884    
  0.33233264335358004    0.32806656767492537    0.3206717229819673    0.3099399634227109    0.2959609508232076    
  0.2793139290741807    0.26105559583579313    0.2424863775637049    0.22482749892723955    0.20898490788131655    
  0.19549786281990697    0.18465188170799798    0.17664883953689606    0.17170708348022318    0.1700309723177461    
  0.17170708348022318    0.17664883953689617    0.18465188170799798    0.19549786281990694    0.20898490788131663    
  0.22482749892723955    0.2424863775637049    0.2610555958357931    0.2793139290741807    0.29596095082320767    
  0.3099399634227109    0.3206717229819672    0.32806656767492537    0.33233264335358    0.33371977926480884    
  0.2897332768297862    0.2884516233809984    0.2846433882721006    0.2784076463443122    0.26990138794428814    
  0.25938633682312146    0.2473124014510744    0.23435316260760555    0.22132048464858592    0.20898490788131663    
  0.1979173223848003    0.18845375529952205    0.1807847085626329    0.1750775390548319    0.17152973407293973    
  0.17032218871921362    0.1715297340729397    0.17507753905483195    0.1807847085626329    0.188453755299522    
  0.19791732238480036    0.20898490788131657    0.22132048464858597    0.2343531626076055    0.2473124014510744    
  0.25938633682312146    0.26990138794428814    0.2784076463443122    0.2846433882721006    0.2884516233809984    
  0.2897332768297862    0.24820792431289512    0.2472939727164056    0.24461070578612926    0.24030930882431023    
  0.23458793734157873    0.2276786354984149    0.21988280548477418    0.21160596058182637    0.20332667636977902    
  0.19549786281990705    0.18845375529952205    0.1823955594637693    0.17745353397721259    0.17375757395054217    
  0.17145484987927226    0.17067070487908007    0.17145484987927226    0.17375757395054225    0.17745353397721259    
  0.1823955594637693    0.18845375529952205    0.19549786281990703    0.20332667636977902    0.21160596058182635    
  0.21988280548477418    0.2276786354984149    0.23458793734157873    0.24030930882431023    0.24461070578612926    
  0.24729397271640555    0.24820792431289512    0.21446469518247713    0.2139187539631434    0.21232393653225096    
  0.20979249786499785    0.20647138207318355    0.20252220905376264    0.1981308093677653    0.193523579304127    
  0.18895353845758242    0.18465188170799798    0.18078470856263285    0.17745353397721247    0.17473224108306007    
  0.17269898036915393    0.17143601415740403    0.17100708316944463    0.171436014157404    0.172698980369154    
  0.17473224108306007    0.17745353397721242    0.1807847085626329    0.18465188170799796    0.18895353845758253    
  0.193523579304127    0.1981308093677653    0.20252220905376267    0.20647138207318358    0.20979249786499785    
  0.212323936532251    0.21391875396314344    0.21446469518247713    0.19038253593973584    0.1901105249950382    
  0.18931763128707838    0.18806669028654088    0.18644572454599978    0.18455670019615367    0.18251313883283904    
  0.1804385378799105    0.17845285289355378    0.1766488395368961    0.17507753905483184    0.17375757395054217    
  0.17269898036915396    0.17191889278791178    0.17143939011876216    0.17127753087818745    0.1714393901187622    
  0.17191889278791184    0.17269898036915396    0.17375757395054212    0.1750775390548319    0.1766488395368961    
  0.1784528528935538    0.18043853787991046    0.18251313883283904    0.18455670019615372    0.18644572454599986    
  0.18806669028654088    0.18931763128707838    0.19011052499503822    0.19038253593973584    0.17617737738956027    
  0.1760663142334994    0.1757421792691746    0.17523257138346265    0.17458444492247358    0.17386346291022142    
  0.17314846773349657    0.1725179701004656    0.17203037945389432    0.17170708348022318    0.17152973407293967    
  0.1714548498792722    0.171436014157404    0.17143939011876222    0.17144653895702983    0.1714496103105719    
  0.17144653895702985    0.1714393901187622    0.17143601415740398    0.1714548498792722    0.17152973407293973    
  0.1717070834802232    0.17203037945389435    0.1725179701004656    0.17314846773349657    0.17386346291022145    
  0.1745844449224736    0.17523257138346265    0.1757421792691746    0.17606631423349942    0.17617737738956027    
  0.17150922673027802    0.17145050151408325    0.17127836306849797    0.17100781841071988    0.17067131042988196    
  0.17032263949240306    0.17003125044591733    0.16986451904948308    0.16986442497894455    0.1700309723177461    
  0.1703221887192135    0.1706707048790801    0.17100708316944474    0.17127753087818745    0.1714496103105719    
  0.1715083158918164    0.1714496103105719    0.17127753087818745    0.17100708316944474    0.17067070487908007    
  0.17032218871921356    0.1700309723177461    0.1698644249789445    0.16986451904948305    0.17003125044591733    
  0.1703226394924031    0.17067131042988196    0.17100781841071988    0.17127836306849795    0.17145050151408328    
  0.17150922673027802    0.17617737738956027    0.17606631423349942    0.17574217926917463    0.17523257138346265    
  0.17458444492247363    0.17386346291022142    0.17314846773349657    0.17251797010046563    0.17203037945389424    
  0.17170708348022318    0.17152973407293964    0.1714548498792722    0.17143601415740398    0.17143939011876214    
  0.17144653895702977    0.1714496103105719    0.17144653895702985    0.1714393901187622    0.17143601415740398    
  0.1714548498792722    0.17152973407293967    0.17170708348022318    0.17203037945389427    0.1725179701004656    
  0.17314846773349657    0.17386346291022142    0.17458444492247363    0.17523257138346265    0.17574217926917463    
  0.17606631423349942    0.17617737738956027    0.1903825359397358    0.1901105249950382    0.1893176312870784    
  0.18806669028654086    0.18644572454599986    0.18455670019615367    0.18251313883283904    0.1804385378799105    
  0.17845285289355378    0.1766488395368961    0.1750775390548319    0.17375757395054217    0.17269898036915401    
  0.17191889278791175    0.1714393901187622    0.17127753087818745    0.1714393901187622    0.17191889278791175    
  0.17269898036915401    0.17375757395054212    0.17507753905483192    0.17664883953689609    0.1784528528935538    
  0.18043853787991052    0.18251313883283904    0.18455670019615367    0.1864457245459999    0.18806669028654083    
  0.1893176312870784    0.1901105249950382    0.1903825359397358    0.21446469518247713    0.2139187539631434    
  0.21232393653225096    0.20979249786499785    0.20647138207318355    0.20252220905376264    0.1981308093677653    
  0.193523579304127    0.18895353845758242    0.18465188170799798    0.18078470856263285    0.17745353397721247    
  0.17473224108306007    0.17269898036915393    0.17143601415740403    0.17100708316944463    0.171436014157404    
  0.172698980369154    0.17473224108306007    0.17745353397721242    0.1807847085626329    0.18465188170799796    
  0.18895353845758253    0.193523579304127    0.1981308093677653    0.20252220905376267    0.20647138207318358    
  0.20979249786499785    0.212323936532251    0.21391875396314344    0.21446469518247713    0.24820792431289512    
  0.24729397271640555    0.24461070578612926    0.24030930882431029    0.23458793734157873    0.2276786354984149    
  0.21988280548477424    0.21160596058182637    0.203326676369779    0.19549786281990705    0.18845375529952202    
  0.1823955594637693    0.1774535339772126    0.17375757395054217    0.17145484987927226    0.17067070487908007    
  0.17145484987927226    0.17375757395054223    0.1774535339772126    0.18239555946376926    0.18845375529952205    
  0.19549786281990703    0.20332667636977902    0.21160596058182635    0.21988280548477424    0.22767863549841497    
  0.23458793734157876    0.24030930882431023    0.24461070578612926    0.24729397271640555    0.24820792431289512    
  0.28973327682978617    0.2884516233809984    0.2846433882721006    0.27840764634431225    0.26990138794428814    
  0.25938633682312146    0.2473124014510744    0.23435316260760555    0.22132048464858592    0.20898490788131657    
  0.19791732238480028    0.188453755299522    0.18078470856263296    0.1750775390548319    0.17152973407293967    
  0.1703221887192136    0.17152973407293967    0.175077539054832    0.1807847085626329    0.1884537552995219    
  0.19791732238480036    0.20898490788131657    0.22132048464858592    0.2343531626076055    0.2473124014510744    
  0.25938633682312146    0.26990138794428814    0.27840764634431225    0.2846433882721007    0.2884516233809984    
  0.28973327682978617    0.3337197792648089    0.3323326433535801    0.3280665676749253    0.3206717229819672    
  0.30993996342271085    0.29596095082320767    0.2793139290741806    0.2610555958357932    0.2424863775637049    
  0.2248274989272396    0.20898490788131655    0.19549786281990694    0.18465188170799796    0.17664883953689606    
  0.17170708348022315    0.17003097231774614    0.17170708348022318    0.17664883953689609    0.18465188170799796    
  0.19549786281990694    0.20898490788131657    0.22482749892723955    0.2424863775637049    0.26105559583579313    
  0.2793139290741806    0.29596095082320767    0.30993996342271085    0.3206717229819672    0.3280665676749253    
  0.33233264335358    0.3337197792648089    0.36936958686676286    0.36862985456093567    0.36592212658469897    
  0.36001795539376885    0.34958857756564427    0.33398206918991136    0.31371071741984274    0.29035053939470734    
  0.26596792029220306    0.2424863775637049    0.22132048464858592    0.20332667636977902    0.18895353845758253    
  0.17845285289355384    0.1720303794538943    0.16986442497894455    0.1720303794538942    0.17845285289355392    
  0.18895353845758253    0.203326676369779    0.22132048464858597    0.2424863775637049    0.26596792029220306    
  0.2903505393947073    0.31371071741984274    0.33398206918991136    0.34958857756564427    0.36001795539376885    
  0.365922126584699    0.3686298545609356    0.36936958686676286    0.38100663845313365    0.3821998532029123    
  0.38462311400895227    0.3852488037718403    0.38045126021139386    0.36771324348087703    0.3468535702674795    
  0.3199822608433967    0.29035053939470723    0.26105559583579313    0.2343531626076055    0.21160596058182637    
  0.19352357930412697    0.18043853787991052    0.17251797010046563    0.16986451904948305    0.17251797010046563    
  0.18043853787991054    0.19352357930412697    0.2116059605818263    0.2343531626076056    0.2610555958357931    
  0.29035053939470723    0.3199822608433967    0.3468535702674795    0.36771324348087703    0.38045126021139386    
  0.3852488037718403    0.38462311400895227    0.3821998532029123    0.38100663845313365    0.3553354860583093    
  0.3597572042111197    0.37116522171651445    0.3844027454061403    0.39256288344363993    0.3897573636191942    
  0.37379813795719846    0.3468535702674795    0.31371071741984274    0.2793139290741806    0.24731240145107433    
  0.21988280548477418    0.19813080936776525    0.18251313883283898    0.17314846773349657    0.1700312504459173    
  0.1731484677334965    0.18251313883283904    0.19813080936776525    0.21988280548477415    0.2473124014510744    
  0.2793139290741806    0.31371071741984263    0.3468535702674795    0.37379813795719846    0.38975736361919416    
  0.39256288344363993    0.3844027454061403    0.3711652217165145    0.3597572042111196    0.3553354860583093    
  0.29311613699106903    0.301076336256707    0.32291464762342076    0.3523452340768691    0.37948008866791266    
  0.39397182630464805    0.3897573636191943    0.36771324348087714    0.3339820691899114    0.29596095082320767    
  0.2593863368231214    0.2276786354984149    0.2025222090537627    0.1845567001961537    0.17386346291022148    
  0.170322639492403    0.17386346291022145    0.18455670019615378    0.2025222090537627    0.22767863549841486    
  0.2593863368231214    0.29596095082320767    0.3339820691899114    0.36771324348087714    0.3897573636191943    
  0.39397182630464805    0.37948008866791255    0.35234523407686913    0.32291464762342076    0.301076336256707    
  0.29311613699106903    0.21311554893500828    0.2234201113229181    0.25301491732312376    0.2967021105451182    
  0.3436814835327159    0.37948008866791255    0.39256288344363993    0.38045126021139386    0.3495885775656442    
  0.3099399634227108    0.2699013879442881    0.23458793734157873    0.2064713820731836    0.1864457245459998    
  0.17458444492247363    0.17067131042988198    0.17458444492247363    0.18644572454599984    0.2064713820731836    
  0.23458793734157868    0.26990138794428814    0.3099399634227108    0.3495885775656442    0.3804512602113938    
  0.39256288344363993    0.37948008866791255    0.3436814835327158    0.2967021105451182    0.25301491732312376    
  0.2234201113229181    0.21311554893500828    0.14036021081224942    0.15105955463873436    0.18322576029660065    
  0.23475616885490352    0.2967021105451183    0.3523452340768691    0.3844027454061403    0.38524880377184034    
  0.3600179553937688    0.32067172298196717    0.2784076463443122    0.24030930882431023    0.20979249786499787    
  0.1880666902865408    0.17523257138346265    0.17100781841071983    0.17523257138346268    0.18806669028654088    
  0.20979249786499787    0.24030930882431015    0.2784076463443122    0.32067172298196717    0.3600179553937688    
  0.38524880377184034    0.3844027454061403    0.3523452340768691    0.29670211054511825    0.23475616885490352    
  0.18322576029660065    0.15105955463873436    0.14036021081224942    0.08994870801268141    0.09967539905525616    
  0.13028688356240775    0.18322576029660065    0.25301491732312376    0.32291464762342076    0.3711652217165144    
  0.38462311400895216    0.365922126584699    0.3280665676749253    0.28464338827210056    0.24461070578612926    
  0.21232393653225096    0.18931763128707838    0.17574217926917463    0.17127836306849806    0.17574217926917463    
  0.1893176312870784    0.21232393653225096    0.24461070578612923    0.2846433882721006    0.32806656767492537    
  0.36592212658469897    0.3846231140089522    0.3711652217165144    0.32291464762342076    0.25301491732312376    
  0.18322576029660065    0.13028688356240772    0.0996753990552562    0.08994870801268141    0.0630909544153417    
  0.07166660201512284    0.09967539905525628    0.15105955463873427    0.2234201113229182    0.30107633625670704    
  0.3597572042111197    0.3821998532029123    0.36862985456093567    0.33233264335358    0.2884516233809984    
  0.24729397271640555    0.21391875396314344    0.19011052499503817    0.17606631423349944    0.17145050151408317    
  0.17606631423349944    0.19011052499503828    0.21391875396314344    0.24729397271640552    0.28845162338099845    
  0.33233264335358004    0.36862985456093567    0.3821998532029123    0.3597572042111197    0.301076336256707    
  0.2234201113229182    0.1510595546387343    0.09967539905525628    0.07166660201512284    0.0630909544153417    
  0.054988228559574026    0.06309095441534172    0.08994870801268141    0.14036021081224942    0.21311554893500836    
  0.29311613699106903    0.35533548605830934    0.3810066384531337    0.36936958686676286    0.3337197792648089    
  0.28973327682978617    0.24820792431289507    0.2144646951824772    0.19038253593973584    0.17617737738956035    
  0.17150922673027805    0.17617737738956038    0.1903825359397359    0.2144646951824772    0.248207924312895    
  0.2897332768297861    0.3337197792648089    0.36936958686676286    0.3810066384531337    0.35533548605830934    
  0.29311613699106903    0.21311554893500836    0.14036021081224948    0.08994870801268137    0.06309095441534172    
  0.054988228559574026    0.06309095441534163    0.07166660201512277    0.09967539905525623    0.15105955463873427    
  0.22342011132291814    0.30107633625670704    0.3597572042111197    0.38219985320291233    0.36862985456093567    
  0.33233264335358    0.28845162338099845    0.2472939727164056    0.2139187539631435    0.1901105249950382    
  0.17606631423349947    0.17145050151408325    0.17606631423349947    0.19011052499503825    0.2139187539631435    
  0.24729397271640555    0.28845162338099845    0.33233264335358004    0.36862985456093567    0.38219985320291233    
  0.3597572042111197    0.301076336256707    0.2234201113229181    0.15105955463873427    0.09967539905525619    
  0.07166660201512279    0.06309095441534163    0.07166660201512277    0.0806724912614029    0.10969346021475028    
  0.16182104096111094    0.23354712665250477    0.30872906998258576    0.3638987027064431    0.38323234289398406    
  0.36784583220376743    0.3309697071664247    0.2872211504498381    0.24643772818189952    0.21343057013610148    
  0.18989522389031308    0.1760111661453063    0.17144741035710362    0.17601116614530632    0.18989522389031313    
  0.21343057013610148    0.2464377281818995    0.2872211504498381    0.33096970716642476    0.36784583220376743    
  0.3832323428939841    0.3638987027064431    0.3087290699825857    0.23354712665250477    0.16182104096111094    
  0.10969346021475027    0.0806724912614029    0.07166660201512277    0.09967539905525616    0.10969346021475021    
  0.140892781813505    0.1939309046244444    0.2624722347981174    0.329624117146086    0.37451132207868154    
  0.3852255375046732    0.3650368671260875    0.32678877441557264    0.28356934143140394    0.24392707094717572    
  0.21200751681740318    0.18927062753012683    0.17585282993231288    0.17144020228462079    0.17585282993231288    
  0.18927062753012688    0.21200751681740312    0.24392707094717567    0.28356934143140394    0.3267887744155727    
  0.3650368671260875    0.38522553750467325    0.37451132207868154    0.32962411714608597    0.2624722347981174    
  0.1939309046244444    0.14089278181350504    0.10969346021475021    0.09967539905525616    0.15105955463873424    
  0.16182104096111097    0.19393090462444443    0.24470444604392427    0.3047329812338332    0.3574985117634357    
  0.3865948000416303    0.38529767314008284    0.3590558368588886    0.31956975288981115    0.27760026513292674    
  0.23990966979899753    0.20975583290021024    0.1882927432553589    0.17561180450561142    0.171436729528381    
  0.1756118045056114    0.18829274325535897    0.20975583290021024    0.2399096697989975    0.27760026513292674    
  0.31956975288981115    0.3590558368588886    0.38529767314008284    0.3865948000416303    0.3574985117634357    
  0.3047329812338332    0.24470444604392427    0.1939309046244444    0.16182104096111094    0.15105955463873424    
  0.2234201113229181    0.23354712665250477    0.2624722347981173    0.3047329812338332    0.3494874817848893    
  0.3826906613757476    0.39352210954540867    0.38002011952938947    0.34866736869516946    0.3091317082415638    
  0.26946950500016187    0.2345730471771176    0.20680929095227998    0.18703572374959115    0.17532103950430813    
  0.1714554359640925    0.17532103950430816    0.18703572374959118    0.20680929095227998    0.23457304717711758    
  0.26946950500016187    0.3091317082415638    0.34866736869516946    0.38002011952938947    0.39352210954540867    
  0.3826906613757476    0.34948748178488936    0.3047329812338332    0.2624722347981173    0.2335471266525047    
  0.2234201113229181    0.301076336256707    0.30872906998258565    0.329624117146086    0.3574985117634357    
  0.3826906613757476    0.39530316878305555    0.3897295272049478    0.36704440449809034    0.33327798791135066    
  0.2955682956965207    0.25942320176956113    0.2281286804292229    0.20330835105400016    0.18558081205562724    
  0.17502601127536505    0.17153016531374732    0.17502601127536505    0.1855808120556273    0.20330835105400016    
  0.2281286804292228    0.25942320176956113    0.2955682956965207    0.33327798791135066    0.3670444044980903    
  0.3897295272049478    0.39530316878305555    0.3826906613757476    0.3574985117634357    0.329624117146086    
  0.30872906998258565    0.301076336256707    0.3597572042111197    0.3638987027064431    0.37451132207868154    
  0.3865948000416303    0.39352210954540867    0.3897295272049478    0.37324612550949393    0.3462538404189072    
  0.3133944822849576    0.27943071969642236    0.24787956310045658    0.22084791786115907    0.19941135111617464    
  0.18401635376841544    0.17478197638739468    0.1717073408604041    0.17478197638739465    0.1840163537684155    
  0.19941135111617464    0.220847917861159    0.24787956310045664    0.27943071969642236    0.31339448228495753    
  0.3462538404189072    0.37324612550949393    0.3897295272049478    0.39352210954540867    0.3865948000416303    
  0.37451132207868154    0.363898702706443    0.3597572042111197    0.38219985320291233    0.38323234289398406    
  0.3852255375046732    0.3852976731400828    0.38002011952938947    0.3670444044980904    0.3462538404189072    
  0.31970482576066944    0.2905322703464969    0.26172458667876575    0.23547014502707225    0.21310071968179276    
  0.19531405625132955    0.1824389155276239    0.17464279765841595    0.1720304503134639    0.17464279765841592    
  0.1824389155276239    0.19531405625132955    0.21310071968179264    0.23547014502707228    0.26172458667876575    
  0.2905322703464969    0.3197048257606694    0.3462538404189072    0.3670444044980903    0.38002011952938947    
  0.3852976731400828    0.3852255375046732    0.38323234289398406    0.38219985320291233    0.36862985456093567    
  0.36784583220376743    0.36503686712608757    0.35905583685888864    0.34866736869516957    0.33327798791135066    
  0.3133944822849576    0.29053227034649703    0.26667904888184313    0.2436963604951172    0.2229656073795386    
  0.20533150985701243    0.19124015638867098    0.18094243597285917    0.1746427003704564    0.17251784952339821    
  0.1746427003704564    0.18094243597285922    0.19124015638867095    0.20533150985701237    0.2229656073795387    
  0.2436963604951172    0.26667904888184313    0.29053227034649703    0.3133944822849576    0.33327798791135066    
  0.34866736869516957    0.35905583685888864    0.36503686712608757    0.36784583220376743    0.36862985456093567    
  0.33233264335358    0.3309697071664247    0.32678877441557264    0.3195697528898112    0.3091317082415639    
  0.29556829569652066    0.27943071969642236    0.2617245866787657    0.24369636049511717    0.22652804906776525    
  0.21110680231467716    0.19796791714913659    0.18739801009214319    0.17959799764116893    0.17478168910274838    
  0.17314815949088302    0.17478168910274838    0.17959799764116904    0.18739801009214319    0.19796791714913653    
  0.21110680231467724    0.22652804906776525    0.24369636049511717    0.26172458667876564    0.27943071969642236    
  0.2955682956965207    0.3091317082415639    0.3195697528898112    0.3267887744155727    0.3309697071664247    