#     DFTpy    
  CRYSTAL 
    
  PRIMVEC    
  4.198137931034481    0.0    0.0    
  0.0    4.198137931034481    0.0    
  0.0    0.0    4.198137931034481    
  PRIMCOORD    
  2    1    
  Si    0.0    0.0    0.0    
  Si    2.0990689655172403    2.0990689655172403    2.0990689655172403    
  BEGIN_BLOCK_DATAGRID_3D    
  3d_datagrid_density    
  BEGIN_DATAGRID_3D#0    
  41    41    41    
  0.0    0.0    0.0    
  4.198137946693615    0.0    0.0    
  0.0    4.198137946693615    0.0    
  0.0    0.0    4.198137946693615    
  0.061818794024521125    0.07049773754799188    0.09894849132814677    0.15115349573876638    0.22370205413072855    
  0.2984998572117088    0.3493009662580177    0.3596840625909093    0.3330326906073182    0.2853484325869874    
  0.23248436803341693    0.18396439862619302    0.14357970841569617    0.11185633316537216    0.0878433325015545    
  0.07012577916541808    0.05736990787399587    0.04851629078061165    0.042768423416597486    0.03955364867603502    
  0.03852139302452165    0.039553648676035    0.04276842341659752    0.04851629078061163    0.05736990787399587    
  0.07012577916541804    0.08784333250155443    0.11185633316537211    0.14357970841569617    0.18396439862619302    
  0.23248436803341693    0.2853484325869874    0.3330326906073182    0.3596840625909093    0.34930096625801765    
  0.2984998572117088    0.22370205413072852    0.15115349573876627    0.09894849132814675    0.07049773754799186    
  0.061818794024521125    0.07049773754799182    0.07961681576145253    0.10906793429542627    0.161860382880562    
  0.23335840263155083    0.30508222665018797    0.35186984488321665    0.3589562070572547    0.33058188513248327    
  0.28252765539169045    0.2300050820165749    0.1820409625823741    0.14218699001407342    0.11088957287847642    
  0.08718906851863226    0.06968990071671016    0.0570838192283214    0.048331358732948956    0.0426482547310041    
  0.03946923227090315    0.038448329394562226    0.03946923227090313    0.04264825473100414    0.04833135873294893    
  0.0570838192283214    0.06968990071671011    0.0871890685186322    0.11088957287847637    0.14218699001407342    
  0.18204096258237412    0.2300050820165749    0.2825276553916904    0.33058188513248327    0.3589562070572546    
  0.35186984488321665    0.30508222665018797    0.23335840263155083    0.16186038288056195    0.10906793429542627    
  0.07961681576145248    0.07049773754799182    0.09894849132814676    0.10906793429542617    0.1405357809645267    
  0.1935990152659873    0.2605648681346861    0.32252806135212075    0.3577079026798329    0.35576616992861476    
  0.3229295829312198    0.2741219871572919    0.22272703877318897    0.17642187622917388    0.1381216889907867    
  0.10806524997364085    0.08527522960260749    0.06841390235598664    0.05624638667841708    0.04779016982130592    
  0.042296333387708884    0.039221507922969134    0.03823363299093841    0.03922150792296911    0.04229633338770892    
  0.04779016982130589    0.05624638667841708    0.06841390235598657    0.08527522960260742    0.10806524997364081    
  0.13812168899078667    0.17642187622917388    0.22272703877318892    0.2741219871572919    0.3229295829312198    
  0.35576616992861476    0.3577079026798329    0.3225280613521208    0.2605648681346861    0.19359901526598725    
  0.14053578096452665    0.10906793429542623    0.09894849132814676    0.15115349573876632    0.161860382880562    
  0.1935990152659873    0.2429185274570072    0.2990132215043293    0.34406662398093624    0.36183723551121977    
  0.3476334845799325    0.30944182239987034    0.2603728155796645    0.21112250611415728    0.1675383592842792    
  0.131704859062525    0.10360106856477752    0.08224368095679445    0.06639050602895342    0.05491933634303762    
  0.04693376454228499    0.041739587869448556    0.038828998608990486    0.037893037221270125    0.03882899860899048    
  0.0417395878694486    0.04693376454228496    0.05491933634303762    0.06639050602895337    0.0822436809567944    
  0.10360106856477745    0.131704859062525    0.16753835928427924    0.21112250611415728    0.26037281557966446    
  0.30944182239987034    0.3476334845799325    0.36183723551121977    0.34406662398093624    0.2990132215043293    
  0.24291852745700715    0.19359901526598727    0.161860382880562    0.15115349573876632    0.22370205413072855    
  0.23335840263155083    0.26056486813468605    0.29901322150432935    0.3368740356591172    0.3598188550710137    
  0.35814091828895717    0.33200953100317376    0.28978710591036244    0.24186627907574404    0.19595427417050496    
  0.15604494391534626    0.12342024376235428    0.09782839244648851    0.07831412728048354    0.06376594064800586    
  0.0532016710231965    0.04582968154323195    0.04102473064561338    0.038326494444583734    0.03745748068565584    
  0.03832649444458373    0.04102473064561339    0.045829681543231915    0.0532016710231965    0.06376594064800581    
  0.07831412728048348    0.09782839244648846    0.12342024376235426    0.15604494391534626    0.19595427417050496    
  0.24186627907574398    0.28978710591036244    0.33200953100317376    0.35814091828895717    0.3598188550710137    
  0.3368740356591173    0.2990132215043293    0.26056486813468605    0.23335840263155083    0.22370205413072855    
  0.2984998572117088    0.30508222665018797    0.32252806135212075    0.34406662398093624    0.3598188550710137    
  0.3605534180413869    0.342265111924222    0.30785685047485156    0.26453499521165014    0.21965042932882115    
  0.1782307399684841    0.14274655415792323    0.11385361752153692    0.09115088272227782    0.07375864070145251    
  0.060724584849921104    0.051220152420137985    0.04456630131720392    0.04021559142117872    0.03776443793040546    
  0.036973230512528044    0.03776443793040547    0.040215591421178754    0.0445663013172039    0.051220152420137985    
  0.06072458484992107    0.07375864070145247    0.09115088272227778    0.11385361752153692    0.1427465541579232    
  0.1782307399684841    0.21965042932882115    0.26453499521165014    0.30785685047485156    0.34226511192422193    
  0.3605534180413869    0.3598188550710137    0.34406662398093624    0.32252806135212075    0.3050822266501879    
  0.2984998572117088    0.34930096625801765    0.3518698448832166    0.3577079026798329    0.36183723551121977    
  0.35814091828895717    0.34226511192422204    0.31384725142593217    0.2764296387833975    0.23530467541000036    
  0.19518665323120785    0.15911794245084232    0.1285143890757413    0.10362453627266963    0.08399484886172075    
  0.06886764665993772    0.057465506351024716    0.04911248732234646    0.04324053894539251    0.039383954632363154    
  0.03720163018356478    0.03649519895763371    0.03720163018356478    0.039383954632363175    0.043240538945392495    
  0.04911248732234646    0.05746550635102468    0.06886764665993769    0.0839948488617207    0.10362453627266963    
  0.12851438907574128    0.15911794245084232    0.19518665323120785    0.23530467541000036    0.2764296387833975    
  0.31384725142593217    0.34226511192422204    0.35814091828895717    0.36183723551121977    0.3577079026798328    
  0.35186984488321665    0.34930096625801765    0.3596840625909093    0.3589562070572547    0.35576616992861476    
  0.34763348457993254    0.33200953100317376    0.30785685047485156    0.2764296387833975    0.24076181067127497    
  0.20436670353451264    0.17011634125352737    0.13979791583501414    0.11418785505266692    0.0933159327100985    
  0.07675997055048135    0.06391524123326602    0.054176857001106735    0.04700760677637842    0.04194224431182843    
  0.03859663074269378    0.036693655770013565    0.03607574976066748    0.03669365577001355    0.03859663074269379    
  0.0419422443118284    0.04700760677637842    0.0541768570011067    0.06391524123326599    0.07675997055048132    
  0.09331593271009847    0.11418785505266689    0.13979791583501414    0.17011634125352737    0.20436670353451264    
  0.24076181067127497    0.2764296387833975    0.3078568504748516    0.33200953100317376    0.3476334845799325    
  0.35576616992861476    0.3589562070572547    0.3596840625909093    0.33303269060731827    0.3305818851324834    
  0.3229295829312198    0.3094418223998704    0.28978710591036244    0.26453499521165014    0.23530467541000047    
  0.20436670353451267    0.17399274277581256    0.1459485336180127    0.12130189861678757    0.10047547013368235    
  0.08341420978058829    0.06978254416318125    0.05913455392349526    0.05101759441728443    0.04501146573204497    
  0.04074270289415956    0.03790524724669809    0.03628292385936303    0.035754695467061996    0.03628292385936302    
  0.037905247246698116    0.04074270289415954    0.04501146573204497    0.05101759441728439    0.059134553923495224    
  0.06978254416318125    0.08341420978058825    0.10047547013368231    0.12130189861678757    0.1459485336180127    
  0.17399274277581256    0.20436670353451267    0.23530467541000047    0.26453499521165014    0.28978710591036244    
  0.3094418223998704    0.3229295829312198    0.3305818851324833    0.33303269060731827    0.2853484325869874    
  0.28252765539169034    0.2741219871572919    0.26037281557966446    0.24186627907574404    0.21965042932882115    
  0.19518665323120787    0.17011634125352737    0.1459485336180127    0.1238157597690884    0.10438148031619914    
  0.08788754938489163    0.07427617442424497    0.06331825854353426    0.054706885766153374    0.048110282137521554    
  0.043202804534556584    0.03969203274210332    0.03734364066626321    0.03599524322719235    0.03555542454973457    
  0.03599524322719234    0.03734364066626323    0.03969203274210331    0.043202804534556584    0.04811028213752152    
  0.054706885766153374    0.06331825854353426    0.07427617442424493    0.0878875493848916    0.10438148031619914    
  0.1238157597690884    0.1459485336180127    0.17011634125352737    0.1951866532312078    0.21965042932882115    
  0.24186627907574398    0.26037281557966446    0.2741219871572919    0.2825276553916904    0.2853484325869874    
  0.23248436803341702    0.2300050820165749    0.22272703877318897    0.21112250611415728    0.19595427417050496    
  0.17823073996848413    0.15911794245084238    0.13979791583501414    0.12130189861678763    0.10438148031619918    
  0.08946908921997161    0.0767259131598783    0.06612820501267254    0.05754043846202405    0.050758652944397194    
  0.04553986572873109    0.041634994938665314    0.03882289639273719    0.03693174643080608    0.03584314046637184    
  0.0354879037712537    0.035843140466371846    0.036931746430806114    0.03882289639273716    0.041634994938665314    
  0.04553986572873109    0.050758652944397166    0.05754043846202405    0.06612820501267251    0.07672591315987826    
  0.0894690892199716    0.10438148031619915    0.12130189861678763    0.13979791583501414    0.15911794245084232    
  0.17823073996848413    0.19595427417050496    0.21112250611415728    0.22272703877318897    0.2300050820165749    
  0.23248436803341702    0.18396439862619302    0.18204096258237412    0.1764218762291738    0.1675383592842792    
  0.15604494391534623    0.14274655415792323    0.1285143890757413    0.11418785505266692    0.10047547013368234    
  0.08788754938489163    0.07672591315987826    0.06712170406953763    0.05908596895238833    0.052544843418627425    
  0.04736009589721481    0.04335282712806767    0.04033755398182174    0.03815385186473528    0.03668015550824934    
  0.035831314005118464    0.03555450956325731    0.03583131400511848    0.03668015550824937    0.038153851864735244    
  0.04033755398182174    0.04335282712806765    0.04736009589721481    0.05254484341862739    0.05908596895238832    
  0.06712170406953763    0.07672591315987824    0.08788754938489161    0.10047547013368234    0.11418785505266692    
  0.1285143890757413    0.14274655415792323    0.15604494391534626    0.16753835928427924    0.17642187622917382    
  0.18204096258237415    0.18396439862619302    0.1435797084156962    0.14218699001407342    0.13812168899078675    
  0.1317048590625251    0.12342024376235428    0.11385361752153696    0.1036245362726697    0.09331593271009847    
  0.08341420978058826    0.07427617442424499    0.06612820501267255    0.05908596895238833    0.05317689551018551    
  0.048357086653056255    0.04452766179842708    0.04155834832616681    0.039316414807961275    0.03768908200104738    
  0.03659057965483456    0.03595867185297391    0.03575288343956689    0.03595867185297391    0.03659057965483459    
  0.03768908200104738    0.039316414807961275    0.04155834832616681    0.04452766179842703    0.048357086653056235    
  0.05317689551018549    0.059085968952388344    0.06612820501267254    0.07427617442424495    0.08341420978058826    
  0.0933159327100985    0.10362453627266968    0.11385361752153696    0.12342024376235428    0.13170485906252505    
  0.13812168899078672    0.14218699001407348    0.1435797084156962    0.11185633316537216    0.11088957287847635    
  0.10806524997364078    0.1036010685647775    0.09782839244648847    0.09115088272227778    0.08399484886172076    
  0.07675997055048131    0.0697825441631812    0.06331825854353426    0.05754043846202403    0.05254484341862741    
  0.048357086653056235    0.0449446244183875    0.042234797633521205    0.04013605978193703    0.03855680071549341    
  0.03741710568783414    0.03665273292975131    0.0362152100061714    0.03607307630188202    0.0362152100061714    
  0.03665273292975135    0.03741710568783414    0.03855680071549341    0.04013605978193703    0.042234797633521164    
  0.04494462441838748    0.04835708665305621    0.05254484341862742    0.05754043846202403    0.06331825854353426    
  0.0697825441631812    0.07675997055048132    0.08399484886172069    0.0911508827222778    0.09782839244648846    
  0.10360106856477745    0.10806524997364075    0.11088957287847635    0.11185633316537216    0.0878433325015545    
  0.0871890685186322    0.08527522960260746    0.08224368095679437    0.07831412728048345    0.07375864070145251    
  0.06886764665993769    0.063915241233266    0.05913455392349526    0.05470688576615339    0.050758652944397166    
  0.047360095897214786    0.04452766179842703    0.042234797633521205    0.040429238576988706    0.039048717209603526    
  0.03802982139344895    0.03731205600599824    0.03684175233146113    0.03657702575706145    0.03649171783534684    
  0.03657702575706145    0.03684175233146115    0.03731205600599822    0.03802982139344895    0.039048717209603456    
  0.040429238576988664    0.042234797633521184    0.044527661798427015    0.0473600958972148    0.05075865294439717    
  0.05470688576615336    0.05913455392349526    0.063915241233266    0.06886764665993768    0.0737586407014525    
  0.07831412728048345    0.08224368095679435    0.08527522960260742    0.08718906851863224    0.0878433325015545    
  0.07012577916541805    0.06968990071671011    0.06841390235598659    0.0663905060289534    0.06376594064800584    
  0.060724584849921055    0.05746550635102466    0.05417685700110668    0.051017594417284366    0.04811028213752152    
  0.04553986572873102    0.04335282712806763    0.04155834832616675    0.040136059781937    0.039048717209603484    
  0.038252182514978916    0.037698633680622845    0.03733734657371908    0.03711920440611396    0.03700456366274809    
  0.03696901537882985    0.03700456366274811    0.037119204406114006    0.03733734657371906    0.037698633680622845    
  0.038252182514978916    0.039048717209603484    0.04013605978193698    0.04155834832616681    0.043352827128067616    
  0.04553986572873102    0.048110282137521526    0.051017594417284366    0.054176857001106686    0.057465506351024626    
  0.060724584849921104    0.06376594064800584    0.06639050602895338    0.06841390235598659    0.06968990071671018    
  0.07012577916541805    0.05736990787399586    0.05708381922832138    0.05624638667841707    0.054919336343037604    
  0.0532016710231965    0.05122015242013799    0.049112487322346444    0.0470076067763784    0.045011465732045    
  0.043202804534556626    0.0416349949386653    0.04033755398182172    0.039316414807961254    0.03855680071549341    
  0.03802982139344893    0.03769863368062282    0.03752079434791886    0.03744938521577572    0.03743764110252628    
  0.037446851800994066    0.03745262682723222    0.037446851800994066    0.03743764110252631    0.03744938521577567    
  0.03752079434791886    0.03769863368062282    0.03802982139344893    0.03855680071549341    0.039316414807961275    
  0.04033755398182172    0.0416349949386653    0.04320280453455663    0.045011465732045    0.04700760677637841    
  0.04911248732234642    0.051220152420137985    0.05320167102319647    0.054919336343037604    0.05624638667841708    
  0.057083819228321446    0.05736990787399586    0.048516290780611676    0.0483313587329489    0.047790169821305885    
  0.04693376454228494    0.04582968154323193    0.04456630131720387    0.04324053894539246    0.04194224431182837    
  0.04074270289415954    0.03969203274210328    0.038822896392737144    0.038153851864735244    0.037689082001047335    
  0.037417105687834115    0.03731205600599824    0.03733734657371913    0.03744938521577564    0.037601121891065035    
  0.037747200284862226    0.0378505615405651    0.0378876614189433    0.0378505615405651    0.037747200284862226    
  0.037601121891064994    0.03744938521577564    0.03733734657371913    0.03731205600599822    0.037417105687834164    
  0.03768908200104738    0.038153851864735265    0.03882289639273712    0.03969203274210328    0.04074270289415954    
  0.04194224431182841    0.04324053894539244    0.04456630131720389    0.04582968154323188    0.04693376454228494    
  0.04779016982130588    0.04833135873294894    0.048516290780611676    0.04276842341659752    0.042648254731004115    
  0.042296333387708905    0.041739587869448584    0.04102473064561342    0.040215591421178795    0.03938395463236318    
  0.03859663074269378    0.03790524724669813    0.03734364066626323    0.036931746430806114    0.0366801555082494    
  0.03659057965483456    0.03665273292975131    0.036841752331461225    0.037119204406114055    0.03743764110252638    
  0.03774720028486227    0.03800276309469438    0.038169896998777125    0.03822787064667502    0.038169896998777146    
  0.03800276309469445    0.037747200284862246    0.03743764110252638    0.03711920440611403    0.036841752331461225    
  0.03665273292975133    0.03659057965483456    0.0366801555082494    0.0369317464308061    0.037343640666263216    
  0.03790524724669813    0.03859663074269381    0.03938395463236316    0.04021559142117876    0.041024730645613385    
  0.04173958786944861    0.04229633338770892    0.04264825473100414    0.04276842341659752    0.03955364867603504    
  0.039469232270903126    0.039221507922969114    0.038828998608990466    0.038326494444583734    0.03776443793040547    
  0.03720163018356481    0.0366936557700135    0.03628292385936304    0.035995243227192365    0.03584314046637184    
  0.035831314005118464    0.03595867185297387    0.03621521000617142    0.03657702575706147    0.03700456366274806    
  0.037446851800994115    0.0378505615405651    0.03816989699877708    0.03837291543643597    0.038442329667734886    
  0.03837291543643597    0.03816989699877717    0.0378505615405651    0.037446851800994115    0.03700456366274813    
  0.03657702575706145    0.03621521000617145    0.03595867185297389    0.035831314005118464    0.03584314046637181    
  0.03599524322719234    0.03628292385936304    0.036693655770013565    0.0372016301835648    0.037764437930405466    
  0.03832649444458368    0.038828998608990486    0.03922150792296913    0.03946923227090313    0.03955364867603504    
  0.03852139302452172    0.038448329394562275    0.03823363299093843    0.037893037221270166    0.03745748068565588    
  0.03697323051252808    0.03649519895763372    0.03607574976066747    0.035754695467061996    0.03555542454973459    
  0.035487903771253736    0.03555450956325734    0.03575288343956694    0.03607307630188202    0.03649171783534691    
  0.03696901537882985    0.03745262682723227    0.03788766141894339    0.038227870646675065    0.038442329667734906    
  0.03851531327156874    0.038442329667734906    0.03822787064667502    0.03788766141894337    0.03745262682723227    
  0.03696901537882982    0.03649171783534684    0.036073076301882064    0.035752883439566986    0.035554509563257355    
  0.0354879037712537    0.035555424549734586    0.035754695467061996    0.03607574976066748    0.0364951989576337    
  0.03697323051252806    0.03745748068565583    0.037893037221270166    0.03823363299093844    0.03844832939456228    
  0.03852139302452172    0.03955364867603506    0.03946923227090315    0.03922150792296914    0.038828998608990486    
  0.03832649444458372    0.03776443793040547    0.037201630183564816    0.036693655770013524    0.036282923859363055    
  0.03599524322719235    0.035843140466371846    0.035831314005118464    0.03595867185297387    0.0362152100061714    
  0.03657702575706147    0.03700456366274813    0.037446851800994094    0.0378505615405651    0.03816989699877708    
  0.03837291543643594    0.038442329667734886    0.03837291543643594    0.03816989699877708    0.03785056154056508    
  0.037446851800994094    0.03700456366274811    0.03657702575706145    0.0362152100061714    0.03595867185297389    
  0.03583131400511844    0.035843140466371826    0.03599524322719234    0.036282923859363055    0.036693655770013545    
  0.0372016301835648    0.0377644379304055    0.038326494444583685    0.03882899860899049    0.03922150792296913    
  0.03946923227090317    0.03955364867603506    0.042768423416597506    0.04264825473100415    0.04229633338770894    
  0.0417395878694486    0.041024730645613426    0.04021559142117877    0.03938395463236316    0.03859663074269379    
  0.03790524724669813    0.03734364066626325    0.036931746430806114    0.03668015550824942    0.03659057965483456    
  0.03665273292975135    0.036841752331461225    0.037119204406114006    0.037437641102526356    0.037747200284862246    
  0.0380027630946944    0.038169896998777125    0.038227870646674995    0.0381698969987771    0.0380027630946944    
  0.0377472002848622    0.037437641102526356    0.037119204406114006    0.036841752331461176    0.03665273292975128    
  0.03659057965483456    0.03668015550824942    0.0369317464308061    0.03734364066626324    0.03790524724669813    
  0.038596630742693816    0.03938395463236314    0.04021559142117876    0.041024730645613385    0.0417395878694486    
  0.042296333387708926    0.04264825473100416    0.042768423416597506    0.04851629078061166    0.0483313587329489    
  0.04779016982130588    0.04693376454228494    0.04582968154323193    0.04456630131720387    0.04324053894539246    
  0.04194224431182837    0.040742702894159544    0.039692032742103284    0.038822896392737144    0.038153851864735244    
  0.03768908200104738    0.037417105687834164    0.03731205600599822    0.03733734657371908    0.03744938521577564    
  0.037601121891065015    0.037747200284862226    0.037850561540565146    0.03788766141894332    0.0378505615405651    
  0.037747200284862246    0.037601121891064966    0.03744938521577564    0.03733734657371911    0.03731205600599819    
  0.03741710568783414    0.03768908200104738    0.038153851864735244    0.03882289639273714    0.039692032742103284    
  0.040742702894159544    0.04194224431182839    0.04324053894539244    0.044566301317203905    0.0458296815432319    
  0.04693376454228493    0.0477901698213059    0.04833135873294893    0.04851629078061166    0.05736990787399586    
  0.05708381922832138    0.05624638667841707    0.054919336343037604    0.0532016710231965    0.05122015242013799    
  0.049112487322346444    0.0470076067763784    0.045011465732045    0.043202804534556626    0.0416349949386653    
  0.04033755398182172    0.039316414807961254    0.03855680071549341    0.03802982139344893    0.03769863368062282    
  0.03752079434791886    0.03744938521577572    0.03743764110252628    0.037446851800994066    0.03745262682723222    
  0.037446851800994066    0.03743764110252631    0.03744938521577567    0.03752079434791886    0.03769863368062282    
  0.03802982139344893    0.03855680071549341    0.039316414807961275    0.04033755398182172    0.0416349949386653    
  0.04320280453455663    0.045011465732045    0.04700760677637841    0.04911248732234642    0.051220152420137985    
  0.05320167102319647    0.054919336343037604    0.05624638667841708    0.057083819228321446    0.05736990787399586    
  0.0701257791654181    0.06968990071671011    0.06841390235598659    0.06639050602895337    0.06376594064800582    
  0.06072458484992107    0.05746550635102464    0.05417685700110668    0.05101759441728438    0.04811028213752149    
  0.04553986572873101    0.0433528271280676    0.04155834832616676    0.040136059781936934    0.039048717209603484    
  0.03825218251497894    0.037698633680622796    0.03733734657371911    0.03711920440611396    0.03700456366274809    
  0.03696901537882982    0.03700456366274809    0.037119204406113986    0.03733734657371904    0.037698633680622796    
  0.038252182514978916    0.039048717209603484    0.040136059781937    0.0415583483261668    0.04335282712806763    
  0.045539865728731    0.048110282137521485    0.05101759441728438    0.054176857001106686    0.05746550635102461    
  0.06072458484992108    0.06376594064800581    0.06639050602895338    0.06841390235598656    0.06968990071671016    
  0.0701257791654181    0.08784333250155449    0.08718906851863219    0.08527522960260743    0.08224368095679434    
  0.07831412728048347    0.07375864070145251    0.06886764665993769    0.06391524123326599    0.05913455392349523    
  0.05470688576615335    0.05075865294439716    0.047360095897214766    0.04452766179842704    0.042234797633521164    
  0.040429238576988706    0.039048717209603526    0.03802982139344898    0.03731205600599822    0.03684175233146115    
  0.03657702575706147    0.03649171783534679    0.03657702575706145    0.036841752331461176    0.03731205600599819    
  0.03802982139344898    0.039048717209603526    0.040429238576988685    0.042234797633521205    0.04452766179842704    
  0.047360095897214766    0.05075865294439715    0.05470688576615334    0.05913455392349523    0.06391524123326599    
  0.06886764665993765    0.07375864070145248    0.07831412728048345    0.08224368095679437    0.08527522960260744    
  0.08718906851863222    0.08784333250155449    0.11185633316537216    0.11088957287847633    0.10806524997364081    
  0.10360106856477745    0.09782839244648847    0.0911508827222778    0.08399484886172073    0.07675997055048131    
  0.06978254416318122    0.06331825854353426    0.05754043846202404    0.05254484341862741    0.04835708665305621    
  0.044944624418387515    0.04223479763352123    0.040136059781937    0.03855680071549341    0.03741710568783414    
  0.03665273292975128    0.03621521000617142    0.03607307630188202    0.03621521000617142    0.03665273292975133    
  0.037417105687834115    0.03855680071549341    0.04013605978193703    0.042234797633521205    0.044944624418387466    
  0.048357086653056235    0.05254484341862741    0.05754043846202405    0.06331825854353423    0.06978254416318122    
  0.07675997055048132    0.08399484886172069    0.09115088272227778    0.09782839244648846    0.10360106856477744    
  0.10806524997364081    0.11088957287847635    0.11185633316537216    0.14357970841569617    0.14218699001407342    
  0.13812168899078672    0.13170485906252502    0.12342024376235428    0.11385361752153694    0.10362453627266968    
  0.09331593271009848    0.08341420978058826    0.07427617442424496    0.06612820501267251    0.05908596895238831    
  0.05317689551018548    0.048357086653056235    0.0445276617984271    0.04155834832616683    0.03931641480796127    
  0.03768908200104743    0.03659057965483456    0.03595867185297391    0.03575288343956692    0.03595867185297396    
  0.03659057965483459    0.03768908200104745    0.03931641480796127    0.04155834832616681    0.04452766179842703    
  0.048357086653056235    0.05317689551018551    0.05908596895238833    0.06612820501267253    0.07427617442424493    
  0.08341420978058826    0.09331593271009848    0.10362453627266963    0.11385361752153694    0.12342024376235428    
  0.131704859062525    0.1381216889907867    0.14218699001407348    0.14357970841569617    0.18396439862619302    
  0.1820409625823741    0.17642187622917385    0.16753835928427924    0.15604494391534626    0.14274655415792323    
  0.12851438907574134    0.11418785505266689    0.10047547013368235    0.08788754938489161    0.07672591315987827    
  0.06712170406953769    0.05908596895238833    0.052544843418627425    0.04736009589721482    0.043352827128067664    
  0.040337553981821754    0.03815385186473529    0.0366801555082494    0.035831314005118464    0.035554509563257335    
  0.03583131400511849    0.03668015550824937    0.03815385186473528    0.040337553981821754    0.043352827128067636    
  0.04736009589721481    0.05254484341862739    0.05908596895238831    0.06712170406953764    0.07672591315987828    
  0.0878875493848916    0.10047547013368235    0.11418785505266689    0.1285143890757413    0.14274655415792326    
  0.15604494391534626    0.16753835928427924    0.17642187622917385    0.18204096258237415    0.18396439862619302    
  0.23248436803341693    0.2300050820165749    0.22272703877318897    0.21112250611415728    0.19595427417050496    
  0.17823073996848413    0.15911794245084235    0.13979791583501414    0.12130189861678757    0.10438148031619916    
  0.08946908921997161    0.07672591315987827    0.06612820501267254    0.057540438462024064    0.0507586529443972    