#     DFTpy    
  CRYSTAL 
    
  PRIMVEC    
  4.134206896551721    0.0    0.0    
  0.0    4.134206896551721    0.0    
  0.0    0.0    4.134206896551721    
  PRIMCOORD    
  2    1    
  Si    0.0    0.0    0.0    
  Si    2.0671034482758603    2.0671034482758603    2.0671034482758603    
  BEGIN_BLOCK_DATAGRID_3D    
  3d_datagrid_density    
  BEGIN_DATAGRID_3D#0    
  41    41    41    
  0.0    0.0    0.0    
  4.134206911972391    0.0    0.0    
  0.0    4.134206911972391    0.0    
  0.0    0.0    4.134206911972391    
  0.061566263592285134    0.069964933704761    0.09744990390614114    0.14792019497302586    0.21863596041784922    
  0.2930951501106954    0.3462165614113683    0.3608499970006524    0.3383750996093353    0.2933582190005789    
  0.2414986526759849    0.1928388893995931    0.15169970101559732    0.11897160155524578    0.09394207362702302    
  0.07532969899222118    0.06184679380637905    0.05243789469194996    0.04630369773646117    0.04286549230872259    
  0.041760991470328364    0.04286549230872256    0.04630369773646116    0.05243789469194994    0.06184679380637905    
  0.07532969899222121    0.093942073627023    0.11897160155524573    0.15169970101559738    0.19283888939959307    
  0.2414986526759849    0.293358219000579    0.3383750996093353    0.3608499970006524    0.3462165614113683    
  0.2930951501106955    0.21863596041784922    0.1479201949730258    0.0974499039061411    0.069964933704761    
  0.061566263592285134    0.0699649337047611    0.07877888800193632    0.10721809077315218    0.15829146020062426    
  0.2281137680973451    0.29975805289535284    0.34906921830332377    0.3604445309407526    0.3361584457486642    
  0.2906557692507847    0.2390520443930715    0.19089998435696817    0.15027102212847843    0.11796619317227632    
  0.09325560706971264    0.07487011557718798    0.06154391240399972    0.05224106404475078    0.046175140225514354    
  0.042775000698887976    0.04168268628775903    0.042775000698887955    0.04617514022551434    0.05224106404475075    
  0.06154391240399972    0.07487011557718799    0.09325560706971263    0.11796619317227626    0.15027102212847845    
  0.19089998435696814    0.2390520443930715    0.29065576925078473    0.3361584457486642    0.3604445309407526    
  0.34906921830332377    0.29975805289535296    0.22811376809734504    0.1582914602006242    0.10721809077315221    
  0.07877888800193632    0.0699649337047611    0.09744990390614107    0.10721809077315209    0.13762136432410754    
  0.1891286915626936    0.2549603515461972    0.3175867828064722    0.3557976571437492    0.3581772220951021    
  0.32913859860194056    0.28254840428610867    0.23183854824114447    0.18522030228936587    0.14609614231014423    
  0.11503032405397363    0.09125088440401066    0.07352760307295102    0.06065905641022989    0.05166579880434589    
  0.04579870432584986    0.0425090507847736    0.04145202253698882    0.04250905078477359    0.045798704325849836    
  0.051665798804345874    0.06065905641022989    0.07352760307295106    0.09125088440401062    0.1150303240539736    
  0.14609614231014428    0.18522030228936587    0.23183854824114447    0.28254840428610867    0.32913859860194056    
  0.3581772220951021    0.3557976571437492    0.3175867828064722    0.2549603515461972    0.18912869156269357    
  0.13762136432410751    0.10721809077315209    0.09744990390614107    0.14792019497302586    0.15829146020062418    
  0.18912869156269363    0.23744697067757212    0.29340580908061703    0.3401660066453063    0.3614862134655982    
  0.35143238837812013    0.316503771082689    0.26914364810924657    0.22025505986901425    0.17620036197673422    
  0.13949282830680393    0.11039102881090855    0.08808129849535828    0.07140375603233053    0.05925958475215203    
  0.05075644646233697    0.045202988570792066    0.042086650235277315    0.041084749712451005    0.042086650235277294    
  0.04520298857079203    0.050756446462336964    0.05925958475215203    0.07140375603233057    0.08808129849535827    
  0.11039102881090854    0.13949282830680393    0.17620036197673422    0.22025505986901425    0.26914364810924657    
  0.316503771082689    0.35143238837812013    0.3614862134655982    0.3401660066453064    0.29340580908061703    
  0.23744697067757206    0.18912869156269357    0.1582914602006242    0.14792019497302586    0.21863596041784925    
  0.228113768097345    0.25496035154619723    0.2934058090806171    0.3323691397572802    0.357942889959564    
  0.3599625329441501    0.3374362703594404    0.2977098144470788    0.250892665418031    0.20499795503508467    
  0.16447136109782232    0.13094408585863185    0.10438716550376824    0.08397381579742254    0.0686493026478764    
  0.057447272444320116    0.04958292266289485    0.044436916193485686    0.04154438990289774    0.04061336099536293    
  0.04154438990289774    0.04443691619348564    0.04958292266289486    0.057447272444320116    0.06864930264787644    
  0.08397381579742252    0.10438716550376821    0.1309440858586319    0.16447136109782234    0.20499795503508467    
  0.250892665418031    0.2977098144470788    0.33743627035944046    0.3599625329441501    0.35794288995956414    
  0.3323691397572802    0.2934058090806171    0.2549603515461972    0.228113768097345    0.21863596041784925    
  0.2930951501106955    0.29975805289535284    0.3175867828064722    0.3401660066453064    0.357942889959564    
  0.3616193743280869    0.346573077987322    0.3148601140703964    0.2731446654175882    0.22876096708005159    
  0.18704972638760295    0.15083709620744534    0.12104189933597956    0.09742723227274169    0.07920141673951087    
  0.06544736709032688    0.055348297702219794    0.04823496974275361    0.04356713338932169    0.040936030620225584    
  0.04008749234351637    0.04093603062022558    0.043567133389321666    0.04823496974275361    0.055348297702219794    
  0.06544736709032692    0.07920141673951085    0.09742723227274168    0.12104189933597959    0.15083709620744537    
  0.1870497263876029    0.22876096708005159    0.2731446654175882    0.3148601140703964    0.346573077987322    
  0.3616193743280869    0.357942889959564    0.3401660066453063    0.3175867828064721    0.29975805289535284    
  0.2930951501106955    0.3462165614113683    0.34906921830332377    0.3557976571437492    0.3614862134655983    
  0.35996253294415004    0.346573077987322    0.32045148299860804    0.2846673375215596    0.2443076572536028    
  0.20418236935228354    0.16758583638465585    0.13618760912039343    0.1104217940655313    0.08994644054515906    
  0.07405767513587871    0.06199816765619683    0.05310234245753514    0.046812927502828665    0.042669644020702925    
  0.04032473368899722    0.03956638406712833    0.04032473368899722    0.0426696440207029    0.04681292750282868    
  0.05310234245753514    0.06199816765619687    0.07405767513587869    0.08994644054515902    0.11042179406553132    
  0.1361876091203935    0.16758583638465582    0.20418236935228357    0.2443076572536028    0.2846673375215596    
  0.32045148299860804    0.34657307798732206    0.3599625329441501    0.36148621346559817    0.35579765714374917    
  0.3490692183033237    0.3462165614113683    0.3608499970006524    0.3604445309407527    0.35817722209510217    
  0.35143238837812013    0.3374362703594405    0.3148601140703964    0.2846673375215596    0.24969516651457063    
  0.21341590912110117    0.17880185545138996    0.14781126608383038    0.12138948313695996    0.09969057354036029    
  0.08236253071494287    0.06883039959309263    0.05850144032102887    0.050848471173814344    0.04541490164141196    
  0.04181751795076945    0.03977096535350605    0.039106821167365184    0.03977096535350604    0.041817517950769434    
  0.04541490164141198    0.050848471173814344    0.0585014403210289    0.0688303995930926    0.08236253071494283    
  0.09969057354036032    0.12138948313696    0.14781126608383036    0.17880185545138996    0.21341590912110117    
  0.24969516651457063    0.2846673375215596    0.31486011407039644    0.3374362703594405    0.35143238837812013    
  0.3581772220951021    0.3604445309407526    0.3608499970006524    0.3383750996093354    0.33615844574866427    
  0.3291385986019406    0.316503771082689    0.2977098144470788    0.2731446654175882    0.2443076572536028    
  0.21341590912110117    0.1827519205727526    0.1541495761374221    0.12878116055406633    0.10717612181639767    
  0.08935828771451747    0.07503378993389237    0.06377384078887248    0.05513589473859101    0.04870904782563968    
  0.044123850596413605    0.041069837613148155    0.03932212899253589    0.03875287681801762    0.03932212899253587    
  0.04106983761314814    0.04412385059641363    0.04870904782563968    0.05513589473859103    0.06377384078887245    
  0.0750337899338924    0.08935828771451747    0.10717612181639773    0.12878116055406633    0.15414957613742214    
  0.1827519205727526    0.21341590912110112    0.2443076572536028    0.2731446654175883    0.2977098144470788    
  0.316503771082689    0.3291385986019406    0.33615844574866427    0.3383750996093354    0.29335821900057896    
  0.29065576925078473    0.28254840428610867    0.26914364810924657    0.2508926654180311    0.22876096708005159    
  0.20418236935228362    0.17880185545138993    0.1541495761374221    0.1313989579708803    0.11127293714056644    
  0.09407575764016746    0.07979620125941328    0.06823074730194377    0.05908607670054534    0.05204103391453672    
  0.04677685229537477    0.04299953260886289    0.04046653470820709    0.039008405477807866    0.03853189601486007    
  0.03900840547780781    0.040466534708207075    0.042999532608862925    0.04677685229537477    0.05204103391453671    
  0.05908607670054528    0.06823074730194378    0.0797962012594133    0.09407575764016746    0.11127293714056644    
  0.1313989579708803    0.1541495761374221    0.17880185545138996    0.20418236935228362    0.22876096708005164    
  0.25089266541803107    0.26914364810924657    0.28254840428610867    0.29065576925078473    0.29335821900057896    
  0.2414986526759849    0.2390520443930715    0.23183854824114447    0.22025505986901425    0.20499795503508467    
  0.18704972638760292    0.16758583638465585    0.14781126608383038    0.12878116055406633    0.11127293714056641    
  0.09574933720402957    0.08240269869779993    0.07123524101467574    0.06213050719038363    0.05489892923253377    
  0.04930753171393535    0.04510950685442603    0.04207720705642453    0.0400296652243026    0.03884495635185303    
  0.03845685760314101    0.03884495635185303    0.04002966522430257    0.04207720705642453    0.04510950685442603    
  0.04930753171393537    0.05489892923253377    0.06213050719038359    0.07123524101467575    0.08240269869779994    
  0.09574933720402955    0.11127293714056644    0.12878116055406633    0.14781126608383038    0.16758583638465585    
  0.187049726387603    0.20499795503508467    0.22025505986901425    0.23183854824114447    0.2390520443930715    
  0.2414986526759849    0.19283888939959304    0.19089998435696814    0.1852203022893659    0.17620036197673417    
  0.16447136109782226    0.15083709620744537    0.13618760912039343    0.12138948313695998    0.10717612181639766    
  0.09407575764016742    0.08240269869779993    0.07230013273830829    0.06379441296508777    0.056829259948739115    
  0.05128130229935464    0.046978357188481513    0.043731584364220914    0.041371040588297485    0.03976764346424627    
  0.03883665015472401    0.038531286244680364    0.03883665015472395    0.039767643464246244    0.0413710405882975    
  0.043731584364220914    0.04697835718848154    0.051281302299354604    0.056829259948739094    0.06379441296508778    
  0.07230013273830832    0.0824026986977999    0.09407575764016744    0.10717612181639766    0.12138948313695996    
  0.13618760912039343    0.15083709620744537    0.16447136109782223    0.17620036197673422    0.18522030228936587    
  0.19089998435696814    0.19283888939959304    0.1516997010155974    0.15027102212847843    0.14609614231014428    
  0.13949282830680396    0.13094408585863185    0.12104189933597959    0.11042179406553135    0.09969057354036033    
  0.08935828771451747    0.07979620125941328    0.07123524101467577    0.0637944129650878    0.057511581545240956    
  0.052359022293854814    0.04825068778952887    0.045058537389929675    0.04264228408898341    0.04087909402170308    
  0.03967831071454384    0.038980508655683    0.038751668575395026    0.03898050865568298    0.03967831071454384    
  0.04087909402170313    0.04264228408898341    0.0450585373899297    0.048250687789528866    0.052359022293854814    
  0.05751158154524097    0.06379441296508781    0.07123524101467575    0.07979620125941331    0.08935828771451747    
  0.09969057354036032    0.11042179406553135    0.12104189933597961    0.13094408585863185    0.13949282830680393    
  0.1460961423101443    0.15027102212847843    0.1516997010155974    0.11897160155524576    0.11796619317227625    
  0.1150303240539736    0.11039102881090855    0.10438716550376824    0.09742723227274162    0.08994644054515899    
  0.0823625307149428    0.07503378993389238    0.06823074730194376    0.062130507190383585    0.05682925994873906    
  0.052359022293854765    0.04869933419582085    0.045786576016212346    0.04352849622956055    0.041825025133473887    
  0.04058762361830751    0.03974908667236922    0.03926381054074354    0.039105037370549434    0.03926381054074352    
  0.03974908667236915    0.04058762361830758    0.041825025133473887    0.04352849622956059    0.04578657601621229    
  0.04869933419582089    0.052359022293854765    0.05682925994873908    0.06213050719038357    0.06823074730194376    
  0.07503378993389238    0.0823625307149428    0.08994644054515899    0.09742723227274169    0.10438716550376821    
  0.11039102881090855    0.11503032405397363    0.11796619317227625    0.11897160155524576    0.09394207362702302    
  0.09325560706971264    0.09125088440401065    0.08808129849535823    0.08397381579742254    0.07920141673951084    
  0.07405767513587869    0.06883039959309258    0.06377384078887247    0.05908607670054528    0.05489892923253374    
  0.051281302299354584    0.04825068778952878    0.0457865760162123    0.04384225303131839    0.04235471250706773    
  0.041254043579073314    0.04047294754650849    0.03995505607260435    0.03965991564060817    0.03956405992643318    
  0.03965991564060817    0.03995505607260428    0.040472947546508514    0.041254043579073314    0.04235471250706771    
  0.04384225303131834    0.04578657601621231    0.04825068778952883    0.05128130229935459    0.05489892923253372    
  0.059086076700545324    0.06377384078887247    0.06883039959309259    0.0740576751358787    0.07920141673951084    
  0.08397381579742251    0.08808129849535822    0.09125088440401065    0.09325560706971264    0.09394207362702302    
  0.07532969899222117    0.074870115577188    0.07352760307295109    0.07140375603233054    0.06864930264787646    
  0.06544736709032693    0.0619981676561969    0.05850144032102887    0.055135894738591    0.0520410339145367    
  0.04930753171393539    0.04697835718848154    0.045058537389929654    0.04352849622956059    0.0423547125070678    
  0.041494130704184284    0.040894979123537976    0.04050037322559328    0.04025728160528041    0.04012612789130276    
  0.040084676446112626    0.04012612789130271    0.04025728160528036    0.04050037322559328    0.040894979123537976    
  0.04149413070418433    0.04235471250706775    0.04352849622956062    0.045058537389929675    0.04697835718848155    
  0.04930753171393539    0.05204103391453675    0.055135894738591    0.05850144032102887    0.0619981676561969    
  0.06544736709032692    0.06864930264787646    0.07140375603233055    0.07352760307295109    0.07487011557718799    
  0.07532969899222117    0.06184679380637903    0.061543912403999715    0.06065905641022993    0.05925958475215203    
  0.05744727244432008    0.05534829770221976    0.053102342457535145    0.05084847117381436    0.048709047825639645    
  0.04677685229537478    0.04510950685442602    0.043731584364220914    0.04264228408898339    0.041825025133473887    
  0.041254043579073356    0.040894979123537956    0.04070260739326267    0.04062316240943367    0.04060437255023341    
  0.040607119405185195    0.04061011651303827    0.04060711940518515    0.040604372550233366    0.0406231624094337    
  0.04070260739326267    0.040894979123537976    0.041254043579073314    0.041825025133473914    0.04264228408898339    
  0.043731584364220935    0.04510950685442601    0.0467768522953748    0.048709047825639645    0.05084847117381436    
  0.053102342457535145    0.05534829770221974    0.05744727244432008    0.059259584752152025    0.06065905641022993    
  0.06154391240399972    0.06184679380637903    0.05243789469194994    0.05224106404475075    0.051665798804345915    
  0.05075644646233693    0.04958292266289485    0.048234969742753625    0.04681292750282869    0.04541490164141191    
  0.044123850596413584    0.04299953260886292    0.042077207056424544    0.041371040588297485    0.04087909402170308    
  0.04058762361830754    0.04047294754650849    0.04050037322559324    0.04062316240943363    0.0407867736047736    
  0.04093966257389922    0.04104437233248094    0.041081154698283856    0.041044372332480844    0.04093966257389922    
  0.0407867736047736    0.04062316240943363    0.04050037322559328    0.040472947546508514    0.04058762361830756    
  0.04087909402170306    0.041371040588297506    0.04207720705642456    0.04299953260886294    0.044123850596413584    
  0.04541490164141192    0.04681292750282869    0.048234969742753604    0.04958292266289484    0.05075644646233692    
  0.05166579880434591    0.05224106404475074    0.05243789469194994    0.04630369773646119    0.04617514022551437    
  0.04579870432584989    0.04520298857079205    0.04443691619348568    0.04356713338932169    0.042669644020702925    
  0.04181751795076946    0.04106983761314814    0.040466534708207075    0.04002966522430259    0.03976764346424627    
  0.03967831071454384    0.03974908667236922    0.03995505607260442    0.04025728160528038    0.040604372550233386    
  0.04093966257389927    0.04121257542124938    0.041388025920092227    0.04144816815228241    0.041388025920092227    
  0.04121257542124935    0.04093966257389931    0.040604372550233386    0.04025728160528038    0.03995505607260435    
  0.0397490866723692    0.03967831071454386    0.03976764346424627    0.04002966522430257    0.04046653470820713    
  0.04106983761314814    0.04181751795076945    0.042669644020702925    0.043567133389321694    0.04443691619348567    
  0.04520298857079205    0.045798704325849905    0.04617514022551436    0.04630369773646119    0.042865492308722504    
  0.04277500069888789    0.04250905078477354    0.0420866502352772    0.04154438990289769    0.040936030620225536    
  0.04032473368899717    0.03977096535350601    0.03932212899253583    0.03900840547780779    0.038844956351852984    
  0.03883665015472395    0.038980508655682956    0.03926381054074352    0.039659915640608195    0.04012612789130269    
  0.040607119405185126    0.04104437233248091    0.04138802592009225    0.04160489869459764    0.041678673005132144    
  0.041604898694597596    0.04138802592009225    0.04104437233248089    0.040607119405185126    0.04012612789130273    
  0.03965991564060815    0.03926381054074354    0.038980508655682956    0.03883665015472398    0.038844956351852956    
  0.03900840547780781    0.03932212899253583    0.039770965353505994    0.04032473368899718    0.040936030620225515    
  0.041544389902897674    0.04208665023527721    0.04250905078477353    0.04277500069888788    0.042865492308722504    
  0.0417609914703284    0.04168268628775903    0.04145202253698887    0.04108474971245103    0.04061336099536291    
  0.04008749234351637    0.03956638406712833    0.039106821167365184    0.038752876818017604    0.038531896014860054    
  0.03845685760314103    0.03853128624468038    0.038751668575395054    0.039105037370549434    0.039564059926433255    
  0.040084676446112556    0.040610116513038294    0.041081154698283905    0.04144816815228238    0.04167867300513226    
  0.04175692473551664    0.04167867300513224    0.04144816815228236    0.041081154698283884    0.040610116513038294    
  0.040084676446112626    0.03956405992643321    0.039105037370549475    0.038751668575395026    0.038531286244680385    
  0.038456857603141    0.03853189601486009    0.038752876818017604    0.039106821167365184    0.039566384067128334    
  0.040087492343516364    0.04061336099536291    0.04108474971245101    0.04145202253698886    0.04168268628775903    
  0.0417609914703284    0.042865492308722525    0.042775000698887906    0.04250905078477356    0.04208665023527723    
  0.04154438990289769    0.04093603062022552    0.04032473368899718    0.039770965353505994    0.039322128992535836    
  0.03900840547780779    0.038844956351852984    0.03883665015472393    0.03898050865568293    0.039263810540743474    
  0.03965991564060824    0.04012612789130269    0.040607119405185105    0.04104437233248091    0.041388025920092296    
  0.04160489869459762    0.04167867300513217    0.04160489869459757    0.041388025920092227    0.04104437233248094    
  0.040607119405185105    0.04012612789130266    0.039659915640608195    0.03926381054074352    0.03898050865568291    
  0.038836650154724    0.038844956351852984    0.039008405477807824    0.039322128992535836    0.039770965353505994    
  0.040324733688997166    0.04093603062022552    0.041544389902897674    0.042086650235277204    0.04250905078477354    
  0.04277500069888789    0.042865492308722525    0.04630369773646119    0.04617514022551437    0.04579870432584991    
  0.04520298857079206    0.044436916193485686    0.04356713338932172    0.04266964402070291    0.04181751795076947    
  0.04106983761314815    0.040466534708207075    0.04002966522430261    0.039767643464246244    0.03967831071454384    
  0.0397490866723692    0.03995505607260442    0.04025728160528036    0.040604372550233366    0.04093966257389927    
  0.0412125754212494    0.041388025920092296    0.04144816815228238    0.041388025920092227    0.04121257542124935    
  0.04093966257389931    0.040604372550233366    0.04025728160528038    0.03995505607260437    0.0397490866723692    
  0.03967831071454386    0.03976764346424629    0.040029665224302576    0.04046653470820712    0.04106983761314815    
  0.04181751795076945    0.04266964402070291    0.04356713338932168    0.044436916193485665    0.045202988570792066    
  0.045798704325849884    0.04617514022551437    0.04630369773646119    0.05243789469194994    0.052241064044750776    
  0.05166579880434594    0.05075644646233695    0.04958292266289486    0.04823496974275363    0.04681292750282868    
  0.045414901641411924    0.04412385059641358    0.042999532608862905    0.04207720705642456    0.041371040588297485    
  0.04087909402170308    0.04058762361830756    0.040472947546508535    0.04050037322559331    0.04062316240943365    
  0.04078677360477358    0.04093966257389929    0.04104437233248094    0.041081154698283856    0.04104437233248089    
  0.04093966257389922    0.0407867736047736    0.04062316240943365    0.04050037322559331    0.04047294754650849    
  0.04058762361830754    0.04087909402170308    0.041371040588297506    0.04207720705642453    0.04299953260886297    
  0.04412385059641358    0.045414901641411924    0.04681292750282869    0.048234969742753625    0.049582922662894865    
  0.050756446462336936    0.05166579880434592    0.05224106404475077    0.05243789469194994    0.06184679380637903    
  0.061543912403999715    0.06065905641022993    0.05925958475215203    0.05744727244432008    0.05534829770221976    
  0.053102342457535145    0.05084847117381436    0.048709047825639645    0.04677685229537478    0.04510950685442602    
  0.043731584364220914    0.04264228408898339    0.041825025133473887    0.041254043579073356    0.040894979123537956    
  0.04070260739326267    0.04062316240943367    0.04060437255023341    0.040607119405185195    0.04061011651303827    
  0.04060711940518515    0.040604372550233366    0.0406231624094337    0.04070260739326267    0.040894979123537976    
  0.041254043579073314    0.041825025133473914    0.04264228408898339    0.043731584364220935    0.04510950685442601    
  0.0467768522953748    0.048709047825639645    0.05084847117381436    0.053102342457535145    0.05534829770221974    
  0.05744727244432008    0.059259584752152025    0.06065905641022993    0.06154391240399972    0.06184679380637903    
  0.07532969899222117    0.07487011557718799    0.07352760307295106    0.07140375603233054    0.06864930264787643    
  0.0654473670903269    0.06199816765619688    0.05850144032102885    0.055135894738590985    0.05204103391453671    
  0.04930753171393536    0.046978357188481513    0.04505853738992963    0.04352849622956057    0.04235471250706775    
  0.041494130704184305    0.040894979123537976    0.04050037322559326    0.04025728160528038    0.04012612789130276    
  0.040084676446112626    0.04012612789130269    0.04025728160528036    0.04050037322559328    0.040894979123537976    
  0.04149413070418433    0.04235471250706775    0.04352849622956062    0.045058537389929675    0.04697835718848153    
  0.049307531713935385    0.05204103391453673    0.055135894738590985    0.058501440321028865    0.06199816765619688    
  0.06544736709032689    0.06864930264787641    0.07140375603233053    0.07352760307295106    0.07487011557718798    
  0.07532969899222117    0.09394207362702303    0.09325560706971264    0.09125088440401065    0.0880812984953582    
  0.08397381579742252    0.07920141673951078    0.07405767513587869    0.06883039959309259    0.06377384078887245    
  0.05908607670054529    0.054898929232533734    0.05128130229935459    0.04825068778952878    0.0457865760162123    
  0.04384225303131834    0.04235471250706773    0.041254043579073335    0.040472947546508466    0.03995505607260432    
  0.03965991564060817    0.03956405992643318    0.03965991564060815    0.0399550560726043    0.040472947546508514    
  0.041254043579073335    0.04235471250706773    0.04384225303131829    0.04578657601621229    0.04825068778952883    
  0.05128130229935459    0.05489892923253372    0.059086076700545324    0.06377384078887245    0.06883039959309258    
  0.07405767513587869    0.07920141673951081    0.08397381579742251    0.08808129849535822    0.09125088440401065    
  0.09325560706971264    0.09394207362702303    0.11897160155524576    0.11796619317227625    0.1150303240539736    
  0.11039102881090851    0.10438716550376821    0.09742723227274167    0.08994644054515902    0.0823625307149428    
  0.07503378993389234    0.06823074730194374    0.062130507190383585    0.056829259948739066    0.052359022293854786    
  0.04869933419582087    0.045786576016212326    0.04352849622956055    0.041825025133473887    0.04058762361830751    
  0.0397490866723692    0.03926381054074354    0.039105037370549406    0.039263810540743474    0.0397490866723692    
  0.04058762361830749    0.041825025133473887    0.04352849622956057    0.04578657601621228    0.048699334195820836    
  0.052359022293854814    0.0568292599487391    0.062130507190383544    0.06823074730194377    0.07503378993389234    
  0.0823625307149428    0.089946440545159    0.09742723227274168    0.10438716550376818    0.11039102881090855    
  0.1150303240539736    0.11796619317227622    0.11897160155524576    0.1516997010155974    0.15027102212847845    
  0.14609614231014428    0.13949282830680393    0.13094408585863188    0.12104189933597956    0.11042179406553132    
  0.09969057354036032    0.08935828771451744    0.07979620125941328    0.07123524101467574    0.0637944129650878    
  0.057511581545240956    0.05235902229385478    0.04825068778952887    0.045058537389929654    0.04264228408898341    
  0.0408790940217031    0.03967831071454384    0.038980508655683    0.038751668575395075    0.038980508655682956    
  0.03967831071454389    0.04087909402170308    0.04264228408898341    0.045058537389929675    0.04825068778952885    
  0.052359022293854786    0.057511581545240935    0.06379441296508782    0.07123524101467572    0.07979620125941331    
  0.08935828771451744    0.0996905735403603    0.11042179406553132    0.12104189933597956    0.13094408585863185    
  0.13949282830680396    0.14609614231014428    0.15027102212847845    0.1516997010155974    0.1928388893995931    
  0.19089998435696814    0.1852203022893659    0.17620036197673422    0.16447136109782226    0.15083709620744534    
  0.13618760912039343    0.12138948313695998    0.10717612181639767    0.09407575764016742    0.08240269869779991    
  0.07230013273830829    0.06379441296508774    0.056829259948739066    0.05128130229935462    0.04697835718848148    
  0.04373158436422095    0.041371040588297534    0.03976764346424632    0.038836650154723984    0.03853128624468034    
  0.03883665015472396    0.03976764346424626    0.041371040588297534    0.04373158436422095    0.04697835718848148    
  0.05128130229935459    0.0568292599487391    0.0637944129650878    0.07230013273830833    0.08240269869779993    
  0.09407575764016746    0.10717612181639767    0.12138948313695998    0.13618760912039346    0.1508370962074454    
  0.1644713610978222    0.17620036197673422    0.18522030228936587    0.19089998435696814    0.1928388893995931    
  0.2414986526759849    0.2390520443930715    0.23183854824114447    0.2202550598690142    0.20499795503508467    
  0.18704972638760295    0.16758583638465585    0.14781126608383036    0.12878116055406633    0.11127293714056641    
  0.09574933720402957    0.08240269869779991    0.07123524101467572    0.062130507190383606    0.05489892923253379    