#     DFTpy    
  CRYSTAL 
    
  PRIMVEC    
  3.9424137931034506    0.0    0.0    
  0.0    3.9424137931034506    0.0    
  0.0    0.0    3.9424137931034506    
  PRIMCOORD    
  2    1    
  Si    0.0    0.0    0.0    
  Si    1.9712068965517204    1.9712068965517204    1.9712068965517204    
  BEGIN_BLOCK_DATAGRID_3D    
  3d_datagrid_density    
  BEGIN_DATAGRID_3D#0    
  41    41    41    
  0.0    0.0    0.0    
  3.94241380780873    0.0    0.0    
  0.0    3.94241380780873    0.0    
  0.0    0.0    3.94241380780873    
  0.060831551964686224    0.06839508858865753    0.0930272724387983    0.13835427846911694    0.2033561217410939    
  0.2759271963254691    0.3347795428450352    0.36162284518074383    0.35242409564787774    0.31692223049054663    
  0.26947759703717256    0.22129730330402986    0.1783674094142524    0.1428349995378982    0.11479589780679457    
  0.0934353324616291    0.0776667092239747    0.06648175491719965    0.05908316625735316    0.054890605397943285    
  0.0535360925570771    0.05489060539794334    0.059083166257353124    0.06648175491719961    0.0776667092239747    
  0.09343533246162909    0.11479589780679454    0.14283499953789822    0.17836740941425236    0.22129730330402986    
  0.26947759703717256    0.31692223049054663    0.35242409564787774    0.3616228451807438    0.3347795428450353    
  0.2759271963254691    0.20335612174109385    0.138354278469117    0.09302727243879828    0.06839508858865753    
  0.060831551964686224    0.06839508858865746    0.07630528931539698    0.10176231192584084    0.14772570043329472    
  0.21225617702740077    0.28274761336032495    0.33841924832737574    0.36218244274928246    0.35095007692822733    
  0.31462039476563775    0.26716903249011165    0.2193507702351244    0.17686709964466904    0.14174063535345466    
  0.1140279974480173    0.0929112050936024    0.07731503957023472    0.06624657498238967    0.058921852052306704    
  0.05476991235256447    0.05342831786511959    0.05476991235256452    0.05892185205230666    0.06624657498238964    
  0.07731503957023472    0.09291120509360236    0.1140279974480173    0.1417406353534547    0.17686709964466896    
  0.2193507702351244    0.26716903249011165    0.31462039476563775    0.35095007692822733    0.3621824427492824    
  0.33841924832737574    0.282747613360325    0.21225617702740066    0.14772570043329478    0.10176231192584081    
  0.076305289315397    0.06839508858865746    0.09302727243879821    0.10176231192584083    0.12902557459378403    
  0.1758409460508105    0.23785854915659524    0.3014765102800278    0.34767324780859854    0.36273614032509965    
  0.34599650628104595    0.30757799127551616    0.2602858388952537    0.2136042068359593    0.17245644618235967    
  0.13852959718843702    0.11177693615258558    0.09137580046083253    0.07628637464761052    0.06556113064197248    
  0.05845475647035706    0.054423207121308305    0.0531199513964311    0.05442320712130837    0.05845475647035703    
  0.06556113064197248    0.07628637464761052    0.09137580046083246    0.11177693615258553    0.13852959718843708    
  0.17245644618235959    0.21360420683595935    0.2602858388952537    0.30757799127551616    0.34599650628104595    
  0.3627361403250996    0.34767324780859854    0.3014765102800278    0.23785854915659524    0.1758409460508106    
  0.129025574593784    0.10176231192584083    0.09302727243879821    0.1383542784691169    0.14772570043329475    
  0.17584094605081058    0.22096038278153723    0.2759088171282072    0.32679384053008126    0.3579348057074437    
  0.36038890746576435    0.3363064982827308    0.2955550660255902    0.2490222361300853    0.20435666889175688    
  0.16540901037951447    0.13341521356626548    0.10819645936629817    0.08893591822882776    0.07465572106405423    
  0.06448138535321082    0.05772750916009023    0.05389115911507519    0.05265019977522175    0.053891159115075256    
  0.05772750916009017    0.0644813853532108    0.07465572106405423    0.08893591822882772    0.10819645936629818    
  0.1334152135662655    0.16540901037951444    0.20435666889175688    0.2490222361300853    0.2955550660255901    
  0.3363064982827308    0.36038890746576435    0.3579348057074437    0.32679384053008126    0.2759088171282071    
  0.22096038278153732    0.1758409460508105    0.14772570043329475    0.1383542784691169    0.20335612174109388    
  0.21225617702740077    0.23785854915659524    0.27590881712820714    0.31751575436879376    0.3502335880364924    
  0.36301356491814746    0.3517786683292817    0.3207200928413718    0.27859243281589763    0.23385994490411413    
  0.19214503141455477    0.15617825978025046    0.1267392331842263    0.10352794874021651    0.08575657652678785    
  0.07253656872503259    0.063089057868412    0.05680354374118957    0.05322780883277852    0.05207020623556125    
  0.053227808832778556    0.05680354374118951    0.06308905786841197    0.07253656872503259    0.08575657652678778    
  0.10352794874021651    0.1267392331842263    0.1561782597802504    0.1921450314145548    0.2338599449041142    
  0.2785924328158976    0.3207200928413718    0.35177866832928156    0.36301356491814746    0.3502335880364924    
  0.31751575436879365    0.2759088171282072    0.23785854915659524    0.21225617702740077    0.20335612174109388    
  0.2759271963254691    0.282747613360325    0.30147651028002787    0.3267938405300813    0.3502335880364924    
  0.36252825414322665    0.35747509581844933    0.33468618240096326    0.2989967522634988    0.25732111913357925    
  0.2156384742530892    0.17773121375411913    0.14536520424090896    0.11894065515019867    0.09807627922975398    
  0.08204404869018242    0.07006877757056963    0.0614817179970681    0.055754706652132974    0.05249106694000417    
  0.05143345118418057    0.05249106694000419    0.055754706652132925    0.06148171799706808    0.07006877757056963    
  0.08204404869018238    0.098076279229754    0.11894065515019867    0.1453652042409089    0.17773121375411913    
  0.21563847425308919    0.25732111913357925    0.2989967522634988    0.3346861824009632    0.35747509581844933    
  0.3625282541432267    0.3502335880364924    0.32679384053008137    0.3014765102800278    0.282747613360325    
  0.2759271963254691    0.3347795428450352    0.33841924832737574    0.3476732478085985    0.3579348057074437    
  0.3630135649181475    0.35747509581844933    0.33898023752990003    0.30910625205160897    0.2721457566804947    
  0.2329767908310883    0.19547718948804516    0.16201613114736893    0.13364742226971943    0.1105040724359659    
  0.092176031806248    0.07802581358661714    0.0674073863174172    0.059766555434126824    0.05465761667968935    
  0.0517403583854268    0.050793797609388416    0.05174035838542682    0.05465761667968933    0.05976655543412679    
  0.0674073863174172    0.0780258135866171    0.092176031806248    0.11050407243596587    0.13364742226971937    
  0.162016131147369    0.19547718948804516    0.23297679083108824    0.2721457566804947    0.3091062520516089    
  0.33898023752990003    0.3574750958184494    0.3630135649181475    0.3579348057074438    0.3476732478085985    
  0.33841924832737574    0.3347795428450352    0.3616228451807438    0.3621824427492824    0.3627361403250996    
  0.3603889074657643    0.3517786683292817    0.3346861824009632    0.30910625205160897    0.2771711208913288    
  0.24212353501090692    0.2071335639760313    0.1745862769673691    0.14590774460921396    0.12168661056370005    
  0.10189773035940294    0.08615315372623397    0.07392870130182908    0.06471117709398881    0.05805534846292803    
  0.053592673892986165    0.05103801260133865    0.050207688533071025    0.05103801260133865    0.053592673892986095    
  0.05805534846292801    0.06471117709398881    0.07392870130182903    0.08615315372623399    0.10189773035940294    
  0.1216866105637    0.145907744609214    0.1745862769673691    0.20713356397603128    0.24212353501090692    
  0.2771711208913288    0.30910625205160897    0.33468618240096326    0.35177866832928156    0.3603889074657643    
  0.3627361403250996    0.36218244274928246    0.3616228451807438    0.35242409564787774    0.35095007692822733    
  0.34599650628104595    0.33630649828273074    0.3207200928413718    0.2989967522634987    0.2721457566804947    
  0.24212353501090686    0.21119190362303597    0.18135516276354274    0.15407305552140255    0.1302000911813778    
  0.11004765139769127    0.09352011345876884    0.08029061861379432    0.06995665928756309    0.06212813433980424    
  0.05645547699844787    0.05263936830472829    0.05044743880388151    0.0497333391032758    0.0504474388038815    
  0.05263936830472825    0.056455476998447864    0.06212813433980424    0.06995665928756307    0.08029061861379432    
  0.09352011345876883    0.11004765139769125    0.13020009118137782    0.15407305552140255    0.18135516276354274    
  0.21119190362303597    0.24212353501090686    0.2721457566804946    0.2989967522634988    0.32072009284137176    
  0.3363064982827308    0.3459965062810459    0.35095007692822733    0.35242409564787774    0.3169222304905466    
  0.31462039476563775    0.30757799127551616    0.2955550660255901    0.2785924328158977    0.25732111913357925    
  0.2329767908310883    0.2071335639760313    0.18135516276354274    0.15694251307911208    0.13481782872141662    
  0.11550177622071688    0.09915424312326972    0.08567110437430299    0.0748069132101269    0.06627206476639487    
  0.059778808498520956    0.05505617931199615    0.05186581201235547    0.05002516784611159    0.04942370200493025    
  0.05002516784611161    0.05186581201235542    0.05505617931199611    0.059778808498520956    0.06627206476639483    
  0.07480691321012695    0.08567110437430293    0.09915424312326966    0.11550177622071692    0.13481782872141665    
  0.15694251307911208    0.18135516276354274    0.20713356397603128    0.2329767908310883    0.25732111913357925    
  0.2785924328158976    0.2955550660255901    0.30757799127551616    0.31462039476563775    0.3169222304905466    
  0.26947759703717256    0.2671690324901117    0.26028583889525364    0.2490222361300853    0.2338599449041142    
  0.2156384742530892    0.19547718948804516    0.17458627696736911    0.1540730555214026    0.13481782872141665    
  0.11742359748930477    0.10221622399320446    0.08928430342345699    0.07855090599709677    0.06985127640203383    
  0.06298594760786608    0.057743826287526404    0.05391593869616082    0.051317168221980194    0.04981022057948533    
  0.04931617256836312    0.04981022057948533    0.051317168221980146    0.0539159386961608    0.057743826287526404    
  0.06298594760786604    0.06985127640203388    0.07855090599709674    0.08928430342345689    0.1022162239932045    
  0.11742359748930477    0.13481782872141665    0.1540730555214026    0.1745862769673691    0.19547718948804513    
  0.2156384742530892    0.2338599449041142    0.24902223613008534    0.26028583889525364    0.2671690324901117    
  0.26947759703717256    0.22129730330402994    0.21935077023512445    0.21360420683595938    0.2043566688917569    
  0.19214503141455486    0.1777312137541191    0.16201613114736899    0.14590774460921405    0.13020009118137785    
  0.11550177622071695    0.10221622399320444    0.09055805198388311    0.08059122806840202    0.07227623244411065    
  0.06551137935636717    0.06015900494936418    0.0560612859493519    0.05305791906671302    0.05100942314216025    
  0.049816390567225    0.04942423996293119    0.04981639056722502    0.051009423142160226    0.05305791906671301    
  0.0560612859493519    0.06015900494936414    0.06551137935636717    0.07227623244411065    0.08059122806840197    
  0.09055805198388313    0.10221622399320447    0.11550177622071692    0.13020009118137785    0.14590774460921405    
  0.16201613114736899    0.17773121375411916    0.19214503141455486    0.20435666889175697    0.2136042068359593    
  0.21935077023512445    0.22129730330402994    0.17836740941425236    0.176867099644669    0.17245644618235964    
  0.16540901037951444    0.15617825978025046    0.14536520424090896    0.1336474222697194    0.12168661056370005    
  0.11004765139769122    0.0991542431232697    0.08928430342345692    0.08059122806840198    0.0731332126414638    
  0.06689862870953169    0.06182417568491288    0.05780943719823464    0.05473339154207655    0.05247461323808745    
  0.050930776343297346    0.05003047141591317    0.049734405219753364    0.05003047141591317    0.050930776343297325    
  0.05247461323808745    0.05473339154207655    0.057809437198234656    0.0618241756849129    0.06689862870953167    
  0.07313321264146375    0.08059122806840198    0.08928430342345693    0.09915424312326968    0.11004765139769122    
  0.12168661056370005    0.13364742226971937    0.14536520424090896    0.15617825978025038    0.16540901037951453    
  0.17245644618235959    0.176867099644669    0.17836740941425236    0.1428349995378982    0.1417406353534547    
  0.1385295971884371    0.1334152135662655    0.12673923318422636    0.11894065515019867    0.11050407243596587    
  0.10189773035940297    0.09352011345876887    0.08567110437430299    0.07855090599709676    0.07227623244411062    
  0.06689862870953169    0.062416587275559335    0.058783998415500145    0.05592201347398478    0.05373662196079646    
  0.05213700550523759    0.051048207333601256    0.0504163322113157    0.050209262521918506    0.05041633221131573    
  0.051048207333601256    0.05213700550523749    0.05373662196079646    0.05592201347398474    0.058783998415500166    
  0.06241658727555924    0.06689862870953164    0.07227623244411065    0.07855090599709678    0.08567110437430296    
  0.09352011345876887    0.10189773035940296    0.1105040724359659    0.1189406551501987    0.12673923318422642    
  0.13341521356626557    0.13852959718843705    0.14174063535345474    0.1428349995378982    0.11479589780679461    
  0.11402799744801738    0.11177693615258558    0.10819645936629818    0.10352794874021656    0.09807627922975404    
  0.09217603180624803    0.08615315372623401    0.08029061861379438    0.07480691321012695    0.06985127640203385    
  0.06551137935636718    0.06182417568491301    0.058783998415500194    0.05634982646269209    0.054456644128031334    
  0.05303075844039447    0.052003057692701554    0.051315535307263516    0.05092309779234161    0.05079584770366749    
  0.05092309779234163    0.051315535307263495    0.05200305769270153    0.05303075844039447    0.054456644128031334    
  0.05634982646269211    0.058783998415500194    0.06182417568491295    0.06551137935636721    0.06985127640203385    
  0.07480691321012693    0.08029061861379438    0.08615315372623403    0.09217603180624803    0.09807627922975405    
  0.10352794874021656    0.10819645936629824    0.11177693615258553    0.11402799744801738    0.11479589780679461    
  0.09343533246162906    0.09291120509360237    0.09137580046083252    0.08893591822882772    0.08575657652678778    
  0.0820440486901824    0.07802581358661716    0.07392870130182906    0.06995665928756307    0.06627206476639487    
  0.06298594760786602    0.060159004949364166    0.05780943719823464    0.05592201347398478    0.054456644128031285    
  0.053358005177826205    0.05256598410434391    0.052023590372835486    0.051680397412792574    0.05149434120982917    
  0.051435933441585244    0.05149434120982914    0.05168039741279255    0.052023590372835486    0.05256598410434391    
  0.05335800517782616    0.054456644128031355    0.05592201347398474    0.05780943719823462    0.06015900494936418    
  0.06298594760786605    0.06627206476639484    0.06995665928756307    0.07392870130182906    0.07802581358661712    
  0.0820440486901824    0.08575657652678775    0.08893591822882776    0.09137580046083246    0.09291120509360239    
  0.09343533246162906    0.07766670922397467    0.07731503957023475    0.07628637464761051    0.07465572106405421    
  0.07253656872503261    0.07006877757056956    0.06740738631741723    0.06471117709398884    0.06212813433980425    
  0.05977880849852099    0.05774382628752637    0.05606128594935183    0.05473339154207653    0.05373662196079644    
  0.05303075844039447    0.05256598410434391    0.052288735573990615    0.052146082910627174    0.05208869664135992    
  0.052074260683485765    0.052073064557547635    0.05207426068348574    0.0520886966413599    0.0521460829106272    
  0.052288735573990615    0.05256598410434389    0.05303075844039447    0.05373662196079639    0.05473339154207648    
  0.056061285949351856    0.057743826287526376    0.059778808498520956    0.06212813433980425    0.06471117709398881    
  0.0674073863174172    0.07006877757056959    0.07253656872503261    0.07465572106405421    0.07628637464761048    
  0.07731503957023475    0.07766670922397467    0.0664817549171996    0.06624657498238966    0.0655611306419725    
  0.06448138535321078    0.06308905786841199    0.06148171799706805    0.059766555434126775    0.05805534846292802    
  0.056455476998447884    0.05505617931199616    0.0539159386961608    0.053057919066712964    0.0524746132380875    
  0.05213700550523759    0.05200305769270153    0.052023590372835535    0.05214608291062715    0.052317364992604115    
  0.05248640699347284    0.05260879515027725    0.052653366525302406    0.0526087951502772    0.05248640699347284    
  0.052317364992604094    0.05214608291062715    0.05202359037283551    0.052003057692701624    0.05213700550523749    
  0.0524746132380875    0.05305791906671294    0.05391593869616082    0.05505617931199614    0.056455476998447884    
  0.05805534846292802    0.059766555434126754    0.061481717997068114    0.06308905786841201    0.06448138535321081    
  0.06556113064197248    0.06624657498238964    0.0664817549171996    0.05908316625735318    0.05892185205230671    
  0.05845475647035709    0.0577275091600902    0.05680354374118956    0.055754706652132974    0.054657616679689366    
  0.05359267389298618    0.05263936830472829    0.051865812012355454    0.0513171682219802    0.051009423142160275    
  0.050930776343297374    0.051048207333601235    0.051315535307263495    0.051680397412792525    0.05208869664135983    
  0.05248640699347281    0.052820824871863715    0.053044555206343345    0.05312334829567264    0.053044555206343345    
  0.052820824871863646    0.05248640699347279    0.05208869664135983    0.051680397412792504    0.051315535307263585    
  0.05104820733360121    0.050930776343297304    0.05100942314216025    0.0513171682219802    0.051865812012355454    
  0.05263936830472829    0.053592673892986165    0.05465761667968933    0.055754706652132974    0.05680354374118957    
  0.057727509160090215    0.058454756470357076    0.05892185205230671    0.05908316625735318    0.054890605397943326    
  0.0547699123525645    0.054423207121308374    0.05389115911507523    0.05322780883277857    0.05249106694000417    
  0.05174035838542684    0.051038012601338674    0.05044743880388152    0.050025167846111586    0.04981022057948535    
  0.04981639056722502    0.05003047141591317    0.05041633221131575    0.05092309779234163    0.05149434120982917    
  0.052074260683485765    0.05260879515027723    0.05304455520634337    0.053331472204974625    0.053431857357559565    
  0.053331472204974556    0.053044555206343345    0.05260879515027725    0.052074260683485765    0.05149434120982912    
  0.05092309779234168    0.0504163322113157    0.05003047141591317    0.04981639056722504    0.04981022057948538    
  0.050025167846111586    0.05044743880388152    0.051038012601338674    0.0517403583854268    0.05249106694000421    
  0.05322780883277854    0.053891159115075256    0.054423207121308353    0.0547699123525645    0.054890605397943326    
  0.05353609255707706    0.05342831786511957    0.0531199513964311    0.052650199775221736    0.05207020623556123    
  0.05143345118418058    0.050793797609388444    0.050207688533071025    0.0497333391032758    0.04942370200493025    
  0.0493161725683631    0.04942423996293114    0.049734405219753294    0.050209262521918575    0.05079584770366742    
  0.05143593344158529    0.052073064557547635    0.05265336652530236    0.05312334829567269    0.053431857357559495    
  0.05353968040724126    0.05343185735755945    0.05312334829567257    0.05265336652530238    0.052073064557547635    
  0.051435933441585216    0.05079584770366752    0.050209262521918555    0.049734405219753315    0.04942423996293119    
  0.04931617256836317    0.04942370200493022    0.0497333391032758    0.05020768853307104    0.05079379760938841    
  0.051433451184180606    0.05207020623556125    0.05265019977522177    0.053119951396431074    0.05342831786511957    
  0.05353609255707706    0.05489060539794332    0.05476991235256452    0.054423207121308374    0.053891159115075256    
  0.05322780883277857    0.05249106694000419    0.05174035838542684    0.051038012601338674    0.050447438803881535    
  0.05002516784611162    0.04981022057948538    0.04981639056722504    0.05003047141591317    0.05041633221131573    
  0.05092309779234159    0.05149434120982917    0.05207426068348574    0.05260879515027723    0.053044555206343345    
  0.053331472204974625    0.05343185735755947    0.05333147220497458    0.053044555206343325    0.05260879515027723    
  0.05207426068348574    0.05149434120982914    0.05092309779234166    0.0504163322113157    0.05003047141591315    
  0.04981639056722502    0.04981022057948538    0.05002516784611161    0.050447438803881535    0.05103801260133869    
  0.0517403583854268    0.05249106694000419    0.05322780883277857    0.05389115911507526    0.054423207121308353    
  0.05476991235256452    0.05489060539794332    0.05908316625735316    0.058921852052306704    0.058454756470357125    
  0.0577275091600902    0.05680354374118956    0.055754706652132946    0.05465761667968938    0.053592673892986165    
  0.05263936830472827    0.05186581201235544    0.051317168221980194    0.051009423142160275    0.050930776343297415    
  0.051048207333601256    0.051315535307263516    0.05168039741279255    0.05208869664135985    0.05248640699347281    
  0.05282082487186369    0.053044555206343345    0.05312334829567264    0.053044555206343325    0.0528208248718636    
  0.05248640699347281    0.05208869664135985    0.051680397412792525    0.051315535307263585    0.05104820733360121    
  0.050930776343297374    0.051009423142160275    0.051317168221980215    0.05186581201235547    0.05263936830472827    
  0.053592673892986165    0.05465761667968933    0.05575470665213296    0.05680354374118958    0.05772750916009023    
  0.05845475647035709    0.05892185205230669    0.05908316625735316    0.06648175491719963    0.06624657498238967    
  0.0655611306419725    0.0644813853532108    0.06308905786841199    0.061481717997068065    0.05976655543412679    
  0.05805534846292803    0.056455476998447864    0.05505617931199614    0.053915938696160806    0.053057919066712964    
  0.0524746132380875    0.05213700550523756    0.05200305769270153    0.052023590372835535    0.052146082910627174    
  0.052317364992604094    0.05248640699347286    0.05260879515027723    0.052653366525302406    0.05260879515027725    
  0.05248640699347281    0.052317364992604094    0.052146082910627174    0.052023590372835486    0.052003057692701575    
  0.05213700550523749    0.05247461323808748    0.05305791906671294    0.05391593869616082    0.05505617931199616    
  0.056455476998447864    0.05805534846292801    0.0597665554341268    0.061481717997068086    0.06308905786841199    
  0.06448138535321081    0.06556113064197248    0.06624657498238967    0.06648175491719963    0.07766670922397467    
  0.07731503957023475    0.07628637464761051    0.07465572106405421    0.07253656872503261    0.07006877757056956    
  0.06740738631741723    0.06471117709398884    0.06212813433980425    0.05977880849852099    0.05774382628752637    
  0.05606128594935183    0.05473339154207653    0.05373662196079644    0.05303075844039447    0.05256598410434391    
  0.052288735573990615    0.052146082910627174    0.05208869664135992    0.052074260683485765    0.052073064557547635    
  0.05207426068348574    0.0520886966413599    0.0521460829106272    0.052288735573990615    0.05256598410434389    
  0.05303075844039447    0.05373662196079639    0.05473339154207648    0.056061285949351856    0.057743826287526376    
  0.059778808498520956    0.06212813433980425    0.06471117709398881    0.0674073863174172    0.07006877757056959    
  0.07253656872503261    0.07465572106405421    0.07628637464761048    0.07731503957023475    0.07766670922397467    
  0.09343533246162904    0.09291120509360234    0.0913758004608325    0.08893591822882772    0.08575657652678778    
  0.08204404869018238    0.07802581358661712    0.073928701301829    0.06995665928756306    0.06627206476639487    
  0.06298594760786602    0.06015900494936418    0.057809437198234656    0.05592201347398481    0.054456644128031285    
  0.053358005177826205    0.05256598410434389    0.052023590372835465    0.051680397412792574    0.05149434120982914    
  0.051435933441585244    0.05149434120982914    0.05168039741279255    0.052023590372835486    0.05256598410434389    
  0.05335800517782618    0.05445664412803138    0.05592201347398474    0.05780943719823464    0.060159004949364166    
  0.06298594760786606    0.06627206476639484    0.06995665928756306    0.07392870130182902    0.0780258135866171    
  0.08204404869018242    0.08575657652678778    0.08893591822882775    0.09137580046083248    0.09291120509360236    
  0.09343533246162904    0.11479589780679464    0.11402799744801734    0.11177693615258558    0.10819645936629818    
  0.10352794874021655    0.09807627922975404    0.09217603180624803    0.08615315372623401    0.08029061861379438    
  0.07480691321012693    0.06985127640203385    0.0655113793563672    0.06182417568491301    0.058783998415500215    
  0.05634982646269209    0.054456644128031285    0.05303075844039445    0.052003057692701575    0.051315535307263516    
  0.05092309779234161    0.05079584770366752    0.05092309779234163    0.051315535307263495    0.052003057692701575    
  0.05303075844039445    0.054456644128031306    0.05634982646269216    0.058783998415500194    0.061824175684912934    
  0.06551137935636718    0.06985127640203384    0.0748069132101269    0.08029061861379438    0.08615315372623401    
  0.09217603180624799    0.09807627922975405    0.10352794874021658    0.10819645936629826    0.11177693615258555    
  0.11402799744801734    0.11479589780679464    0.14283499953789824    0.1417406353534547    0.13852959718843708    
  0.13341521356626548    0.12673923318422636    0.11894065515019867    0.1105040724359659    0.10189773035940296    
  0.09352011345876887    0.08567110437430296    0.07855090599709676    0.07227623244411062    0.06689862870953169    
  0.062416587275559314    0.058783998415500145    0.05592201347398476    0.05373662196079644    0.05213700550523756    
  0.05104820733360121    0.05041633221131573    0.050209262521918555    0.0504163322113157    0.051048207333601235    
  0.05213700550523749    0.05373662196079644    0.05592201347398471    0.058783998415500194    0.062416587275559314    
  0.06689862870953167    0.07227623244411066    0.07855090599709676    0.08567110437430293    0.09352011345876887    
  0.10189773035940296    0.11050407243596587    0.1189406551501987    0.12673923318422634    0.13341521356626554    
  0.13852959718843708    0.1417406353534547    0.14283499953789824    0.17836740941425236    0.17686709964466896    
  0.17245644618235964    0.16540901037951447    0.1561782597802504    0.14536520424090893    0.13364742226971937    
  0.12168661056370005    0.11004765139769122    0.09915424312326966    0.08928430342345692    0.08059122806840197    
  0.07313321264146376    0.06689862870953167    0.061824175684912865    0.05780943719823466    0.05473339154207651    
  0.05247461323808745    0.050930776343297346    0.05003047141591319    0.049734405219753336    0.05003047141591317    
  0.050930776343297346    0.05247461323808745    0.05473339154207651    0.057809437198234594    0.06182417568491291    
  0.06689862870953164    0.07313321264146372    0.080591228068402    0.08928430342345692    0.09915424312326965    
  0.11004765139769122    0.12168661056370003    0.13364742226971935    0.14536520424090896    0.15617825978025038    
  0.16540901037951453    0.17245644618235959    0.17686709964466896    0.17836740941425236    0.22129730330402994    
  0.2193507702351244    0.21360420683595935    0.20435666889175694    0.19214503141455483    0.17773121375411916    
  0.162016131147369    0.14590774460921405    0.13020009118137785    0.11550177622071692    0.10221622399320447    
  0.0905580519838831    0.08059122806840205    0.07227623244411063    0.06551137935636712    0.060159004949364166    
  0.0560612859493519    0.053057919066712964    0.051009423142160226    0.04981639056722504    0.04942423996293117    
  0.04981639056722502    0.051009423142160205    0.05305791906671295    0.0560612859493519    0.06015900494936415    
  0.06551137935636717    0.07227623244411065    0.08059122806840195    0.09055805198388309    0.10221622399320447    
  0.11550177622071688    0.13020009118137785    0.14590774460921405    0.16201613114736896    0.17773121375411913    
  0.1921450314145548    0.20435666889175694    0.2136042068359593    0.2193507702351244    0.22129730330402994    
  0.26947759703717256    0.2671690324901117    0.2602858388952537    0.2490222361300853    0.2338599449041142    
  0.2156384742530892    0.19547718948804518    0.17458627696736914    0.15407305552140257    0.13481782872141665    
  0.11742359748930473    0.10221622399320444    0.08928430342345699    0.0785509059970968    0.06985127640203385    
  0.06298594760786608    0.057743826287526424    0.05391593869616084    0.05131716822198018    0.04981022057948539    