#     DFTpy    
  CRYSTAL 
    
  PRIMVEC    
  3.8145517241379303    0.0    0.0    
  0.0    3.8145517241379303    0.0    
  0.0    0.0    3.8145517241379303    
  PRIMCOORD    
  2    1    
  Si    0.0    0.0    0.0    
  Si    1.9072758620689705    1.9072758620689705    1.9072758620689705    
  BEGIN_BLOCK_DATAGRID_3D    
  3d_datagrid_density    
  BEGIN_DATAGRID_3D#0    
  37    37    37    
  0.0    0.0    0.0    
  3.8145517383662813    0.0    0.0    
  0.0    3.8145517383662813    0.0    
  0.0    0.0    3.8145517383662813    
  0.06035922831847269    0.0690766872488787    0.09777157326773633    0.15069908831601017    0.22448742961673548    
  0.3005388715415787    0.3519774818945404    0.3623800981715046    0.33571837908155094    0.2884716060463377    
  0.23653015769541919    0.18923594929379112    0.15023623640004663    0.12000966568070086    0.0976286912645446    
  0.08176653080707394    0.07125032385498449    0.06525758148172081    0.06331238270560434    0.0652575814817208    
  0.07125032385498449    0.0817665308070739    0.0976286912645446    0.12000966568070086    0.15023623640004663    
  0.18923594929379112    0.23653015769541919    0.2884716060463377    0.33571837908155094    0.3623800981715046    
  0.3519774818945404    0.3005388715415787    0.22448742961673548    0.15069908831601014    0.09777157326773633    
  0.06907668724887872    0.06035922831847269    0.06907668724887872    0.07825458728496676    0.10799994457278413    
  0.16155538888117943    0.2342731153356916    0.30717160271872423    0.3545302477488834    0.36164057687909495    
  0.33331523402906343    0.2857604610119793    0.2341938214676961    0.18745885613041072    0.14897471322166383    
  0.11915178997789923    0.09706099133880165    0.08139682314516865    0.07100920153108019    0.06508997305454128    
  0.0631688924277217    0.06508997305454123    0.07100920153108019    0.08139682314516865    0.09706099133880165    
  0.11915178997789923    0.14897471322166383    0.18745885613041072    0.2341938214676961    0.2857604610119793    
  0.33331523402906343    0.36164057687909495    0.3545302477488834    0.30717160271872423    0.2342731153356915    
  0.1615553888811794    0.10799994457278414    0.07825458728496677    0.06907668724887872    0.09777157326773636    
  0.10799994457278417    0.13987425489247218    0.19375948346516136    0.2618329838709062    0.3247285808807903    
  0.36030855146435875    0.35842430975168266    0.32580924044362375    0.2776703331231205    0.22732050796883518    
  0.18225462600132933    0.14528579098823918    0.11664573202988841    0.09540581929451925    0.08032327067795711    
  0.07031386536500375    0.06461084571532259    0.06276065059241993    0.06461084571532257    0.07031386536500375    
  0.08032327067795712    0.09540581929451925    0.11664573202988844    0.14528579098823918    0.18225462600132933    
  0.22732050796883513    0.2776703331231205    0.32580924044362375    0.3584243097516827    0.36030855146435875    
  0.3247285808807903    0.2618329838709062    0.19375948346516134    0.13987425489247218    0.1079999445727842    
  0.09777157326773636    0.1506990883160102    0.16155538888117943    0.19375948346516134    0.24382860873830708    
  0.3007389511328023    0.34635157096172436    0.36433785669062574    0.3503014839459668    0.3125958801618608    
  0.26442643214467726    0.21633746450584532    0.17400678188365432    0.13945670534359172    0.11269367001669828    
  0.0928046804796728    0.07864824575268813    0.06924240235617903    0.0638843297738958    0.06214708761009468    
  0.06388432977389574    0.06924240235617904    0.07864824575268808    0.09280468047967279    0.11269367001669828    
  0.13945670534359178    0.17400678188365432    0.21633746450584532    0.26442643214467726    0.3125958801618608    
  0.3503014839459668    0.36433785669062574    0.34635157096172436    0.3007389511328023    0.24382860873830708    
  0.19375948346516136    0.16155538888117948    0.1506990883160102    0.22448742961673548    0.2342731153356915    
  0.2618329838709061    0.30073895113280225    0.3389775356115353    0.36211852229391306    0.36058879706028335    
  0.3348444106782159    0.2934185123033619    0.24662870007310372    0.20198490554931284    0.16333934879520667    
  0.13194931395996073    0.10761819252098791    0.08947909549988395    0.07652628133950318    0.0679068519598616    
  0.06299793531655806    0.06140749372501746    0.06299793531655802    0.0679068519598616    0.07652628133950318    
  0.08947909549988395    0.10761819252098791    0.13194931395996073    0.16333934879520667    0.20198490554931284    
  0.24662870007310372    0.2934185123033619    0.3348444106782159    0.36058879706028335    0.362118522293913    
  0.3389775356115353    0.30073895113280225    0.2618329838709061    0.23427311533569153    0.22448742961673548    
  0.30053887154157877    0.30717160271872423    0.3247285808807903    0.34635157096172436    0.36211852229391306    
  0.3628936918052084    0.34488509949501467    0.3111661753695855    0.26892957022773645    0.22535291890907178    
  0.18527032685653116    0.15104722726443479    0.12333994891867647    0.10181695806247494    0.08569775514157414    
  0.07413955081693419    0.06643351930939079    0.06204542299412587    0.06062472001573574    0.06204542299412583    
  0.0664335193093908    0.07413955081693419    0.08569775514157414    0.10181695806247497    0.12333994891867647    
  0.15104722726443479    0.18527032685653116    0.22535291890907178    0.26892957022773645    0.3111661753695855    
  0.3448850994950147    0.3628936918052084    0.36211852229391306    0.3463515709617244    0.3247285808807903    
  0.30717160271872423    0.30053887154157877    0.3519774818945404    0.3545302477488834    0.3603085514643588    
  0.36433785669062574    0.3605887970602834    0.3448850994950147    0.3170307429569133    0.2806009005142504    
  0.2407657316289645    0.20204971805049454    0.16733975978220944    0.13797904926896581    0.11422566610475363    
  0.09569559223262139    0.08173302681624939    0.07167187151226638    0.06494858337794701    0.061119159597684165    
  0.05987978994371362    0.06111915959768413    0.06494858337794701    0.07167187151226637    0.08173302681624939    
  0.09569559223262142    0.11422566610475363    0.13797904926896587    0.16733975978220947    0.20204971805049454    
  0.2407657316289645    0.2806009005142504    0.3170307429569133    0.34488509949501467    0.3605887970602834    
  0.3643378566906258    0.3603085514643588    0.3545302477488834    0.3519774818945404    0.3623800981715046    
  0.36164057687909484    0.35842430975168266    0.3503014839459667    0.3348444106782159    0.31116617536958546    
  0.28060090051425035    0.24613032770799062    0.2111211524590363    0.17828987618086728    0.1493142960428311    
  0.12491931665349106    0.1051397816195985    0.0896119255234184    0.0778275581286277    0.06929134531831987    
  0.06357202333290674    0.06031122926871867    0.05925555046910264    0.060311229268718625    0.06357202333290674    
  0.06929134531831985    0.07782755812862772    0.0896119255234184    0.10513978161959853    0.12491931665349104    
  0.1493142960428311    0.17828987618086728    0.2111211524590363    0.24613032770799062    0.28060090051425035    
  0.3111661753695854    0.3348444106782159    0.3503014839459667    0.35842430975168266    0.3616405768790949    
  0.3623800981715046    0.33571837908155094    0.33331523402906343    0.32580924044362375    0.3125958801618607    
  0.2934185123033619    0.26892957022773645    0.2407657316289645    0.2111211524590363    0.18214298314030733    
  0.15548687024343333    0.13214801545833998    0.11250864666263666    0.0965084111085133    0.0838532158501167    
  0.07418124105617031    0.06714192401470191    0.062412530410895395    0.05971106867640014    0.05883541446806745    
  0.059711068676400095    0.062412530410895395    0.06714192401470186    0.07418124105617031    0.08385321585011672    
  0.0965084111085133    0.11250864666263666    0.13214801545833998    0.15548687024343333    0.18214298314030733    
  0.2111211524590363    0.2407657316289645    0.26892957022773645    0.2934185123033619    0.31259588016186074    
  0.32580924044362375    0.33331523402906343    0.33571837908155094    0.2884716060463377    0.2857604610119792    
  0.2776703331231205    0.2644264321446772    0.24662870007310372    0.22535291890907178    0.20204971805049454    
  0.17828987618086728    0.15548687024343333    0.13469668276966035    0.11653370885978274    0.10120619099303688    
  0.08864204263994513    0.07863620905868951    0.07094841247365584    0.06533487951429805    0.061554355973610225    
  0.05938957051584211    0.05868655327561534    0.05938957051584204    0.061554355973610225    0.06533487951429802    
  0.07094841247365584    0.07863620905868954    0.08864204263994513    0.1012061909930369    0.11653370885978274    
  0.13469668276966035    0.15548687024343333    0.17828987618086728    0.20204971805049454    0.22535291890907178    
  0.24662870007310372    0.26442643214467726    0.2776703331231205    0.28576046101197927    0.2884716060463377    
  0.23653015769541919    0.2341938214676961    0.22732050796883513    0.21633746450584532    0.2019849055493128    
  0.18527032685653122    0.16733975978220944    0.1493142960428311    0.13214801545834    0.11653370885978279    
  0.10286783931170695    0.09128382507227624    0.08173902636305257    0.07410707765611343    0.0682306787634571    
  0.0639353266864893    0.06103854997711376    0.05937617073034378    0.058835311712343796    0.05937617073034378    
  0.06103854997711376    0.06393532668648925    0.0682306787634571    0.07410707765611346    0.08173902636305257    
  0.09128382507227624    0.10286783931170695    0.11653370885978279    0.13214801545834    0.1493142960428311    
  0.16733975978220944    0.18527032685653116    0.2019849055493128    0.21633746450584534    0.22732050796883513    
  0.2341938214676961    0.23653015769541919    0.18923594929379114    0.18745885613041072    0.1822546260013293    
  0.17400678188365432    0.16333934879520667    0.15104722726443484    0.13797904926896587    0.12491931665349104    
  0.11250864666263666    0.10120619099303695    0.09128382507227628    0.08284911179263918    0.07589204597568548    
  0.07033523035015064    0.06606608997302978    0.06295154969967197    0.06085261446529806    0.059647629805298995    
  0.059255347422930024    0.059647629805298974    0.06085261446529806    0.06295154969967191    0.06606608997302978    
  0.07033523035015068    0.07589204597568548    0.08284911179263918    0.09128382507227628    0.10120619099303695    
  0.11250864666263666    0.12491931665349104    0.13797904926896587    0.15104722726443479    0.1633393487952067    
  0.17400678188365432    0.1822546260013293    0.18745885613041077    0.18923594929379114    0.15023623640004663    
  0.14897471322166383    0.14528579098823924    0.13945670534359172    0.1319493139599608    0.12333994891867653    
  0.11422566610475368    0.10513978161959853    0.09650841110851334    0.08864204263994518    0.08173902636305257    
  0.07589204597568543    0.07110391883303004    0.06731447811290207    0.06442894431877601    0.06233918941643315    
  0.060939141444097344    0.06013917187910448    0.059879491614309326    0.06013917187910448    0.060939141444097344    
  0.06233918941643315    0.06442894431877601    0.06731447811290207    0.07110391883303004    0.07589204597568545    
  0.08173902636305257    0.08864204263994518    0.09650841110851334    0.10513978161959853    0.11422566610475368    
  0.12333994891867647    0.1319493139599608    0.13945670534359178    0.14528579098823924    0.14897471322166383    
  0.15023623640004663    0.12000966568070083    0.11915178997789917    0.1166457320298884    0.11269367001669825    
  0.10761819252098788    0.10181695806247502    0.09569559223262143    0.08961192552341837    0.08385321585011674    
  0.07863620905868958    0.07410707765611348    0.07033523035015064    0.06731447811290205    0.06498212065422328    
  0.06324862396523574    0.06202176804499336    0.06121816402053172    0.06076840464876823    0.06062433421713612    
  0.06076840464876823    0.06121816402053172    0.06202176804499334    0.06324862396523574    0.06498212065422333    
  0.06731447811290209    0.07033523035015066    0.07410707765611348    0.07863620905868958    0.08385321585011674    
  0.0896119255234184    0.09569559223262143    0.10181695806247498    0.10761819252098788    0.11269367001669829    
  0.1166457320298884    0.1191517899778992    0.12000966568070083    0.09762869126454461    0.09706099133880167    
  0.09540581929451919    0.0928046804796728    0.08947909549988395    0.08569775514157424    0.08173302681624939    
  0.07782755812862775    0.07418124105617031    0.07094841247365587    0.06823067876345706    0.06606608997302978    
  0.06442894431877597    0.0632486239652357    0.062438155034701855    0.06191500851476363    0.06160707986814659    
  0.06145278193760563    0.06140703133758066    0.06145278193760558    0.06160707986814659    0.06191500851476358    
  0.062438155034701855    0.06324862396523574    0.06442894431877597    0.06606608997302975    0.06823067876345706    
  0.07094841247365587    0.07418124105617031    0.07782755812862775    0.08173302681624939    0.08569775514157417    
  0.08947909549988395    0.09280468047967286    0.09540581929451919    0.09706099133880167    0.09762869126454461    
  0.08176653080707395    0.08139682314516855    0.08032327067795714    0.07864824575268811    0.07652628133950322    
  0.07413955081693425    0.07167187151226642    0.06929134531831987    0.06714192401470197    0.06533487951429806    
  0.06393532668648935    0.0629515496996719    0.06233918941643315    0.06202176804499329    0.06191500851476361    
  0.061940606798462465    0.06202759026958494    0.062112239964694636    0.06214656243998929    0.062112239964694636    
  0.06202759026958494    0.061940606798462465    0.06191500851476356    0.06202176804499331    0.06233918941643315    
  0.0629515496996719    0.06393532668648935    0.06533487951429806    0.06714192401470197    0.06929134531831987    
  0.07167187151226644    0.07413955081693419    0.07652628133950323    0.0786482457526882    0.08032327067795715    
  0.08139682314516862    0.08176653080707395    0.0712503238549845    0.0710092015310801    0.07031386536500378    
  0.06924240235617897    0.06790685195986164    0.0664335193093908    0.06494858337794703    0.06357202333290674    
  0.062412530410895416    0.061554355973610204    0.06103854997711376    0.060852614465297994    0.060939141444097324    
  0.0612181640205316    0.0616070798681466    0.06202759026958489    0.06240410578672092    0.06266603826224904    
  0.0627600788071035    0.06266603826224901    0.06240410578672094    0.06202759026958482    0.0616070798681466    
  0.06121816402053169    0.060939141444097324    0.060852614465298015    0.061038549977113714    0.061554355973610204    
  0.062412530410895416    0.06357202333290674    0.06494858337794703    0.06643351930939075    0.06790685195986164    
  0.06924240235617901    0.07031386536500378    0.07100920153108016    0.0712503238549845    0.06525758148172078    
  0.06508997305454117    0.06461084571532258    0.0638843297738958    0.06299793531655803    0.062045422994125916    
  0.061119159597684165    0.060311229268718604    0.05971106867640014    0.05938957051584211    0.059376170730343805    
  0.059647629805298974    0.060139171879104454    0.060768404648768114    0.06145278193760561    0.062112239964694664    
  0.06266603826224906    0.06303730878683236    0.06316829191317973    0.06303730878683236    0.06266603826224906    
  0.06211223996469457    0.06145278193760562    0.06076840464876823    0.060139171879104454    0.059647629805298974    
  0.059376170730343805    0.05938957051584211    0.05971106867640014    0.060311229268718604    0.061119159597684165    
  0.062045422994125875    0.06299793531655803    0.06388432977389587    0.06461084571532258    0.06508997305454121    
  0.06525758148172078    0.06331238270560435    0.06316889242772168    0.06276065059241996    0.06214708761009461    
  0.06140749372501751    0.06062472001573575    0.05987978994371363    0.05925555046910264    0.058835414468067455    
  0.05868655327561534    0.058835311712343824    0.059255347422929976    0.059879491614309374    0.06062433421713607    
  0.06140703133758066    0.06214656243998936    0.06276007880710353    0.06316829191317964    0.06331177247629391    
  0.06316829191317962    0.06276007880710353    0.06214656243998927    0.06140703133758066    0.060624334217136144    
  0.059879491614309374    0.059255347422929976    0.058835311712343824    0.05868655327561534    0.058835414468067455    
  0.05925555046910266    0.05987978994371363    0.060624720015735704    0.06140749372501751    0.062147087610094666    
  0.06276065059241996    0.06316889242772171    0.06331238270560435    0.06525758148172077    0.06508997305454123    
  0.06461084571532255    0.06388432977389577    0.062997935316558    0.06204542299412589    0.06111915959768417    
  0.060311229268718625    0.05971106867640012    0.05938957051584206    0.059376170730343805    0.05964762980529902    
  0.060139171879104454    0.06076840464876818    0.06145278193760561    0.062112239964694616    0.06266603826224902    
  0.06303730878683245    0.06316829191317962    0.0630373087868324    0.06266603826224902    0.06211223996469457    
  0.06145278193760562    0.060768404648768204    0.06013917187910443    0.059647629805298974    0.059376170730343805    
  0.05938957051584206    0.05971106867640012    0.060311229268718625    0.06111915959768417    0.062045422994125854    
  0.06299793531655803    0.06388432977389584    0.06461084571532255    0.06508997305454123    0.06525758148172077    
  0.0712503238549845    0.0710092015310801    0.07031386536500378    0.06924240235617897    0.06790685195986164    
  0.0664335193093908    0.06494858337794703    0.06357202333290674    0.062412530410895416    0.061554355973610204    
  0.061038549977113714    0.060852614465297994    0.060939141444097324    0.0612181640205316    0.0616070798681466    
  0.06202759026958489    0.06240410578672094    0.06266603826224904    0.0627600788071035    0.06266603826224901    
  0.06240410578672092    0.06202759026958484    0.0616070798681466    0.06121816402053165    0.060939141444097324    
  0.060852614465297994    0.06103854997711376    0.061554355973610204    0.062412530410895416    0.06357202333290674    
  0.06494858337794703    0.06643351930939075    0.06790685195986164    0.06924240235617901    0.07031386536500378    
  0.07100920153108016    0.0712503238549845    0.08176653080707391    0.08139682314516859    0.08032327067795714    
  0.07864824575268813    0.0765262813395032    0.07413955081693425    0.07167187151226644    0.06929134531831987    
  0.06714192401470197    0.06533487951429806    0.0639353266864894    0.06295154969967191    0.06233918941643315    
  0.06202176804499329    0.06191500851476358    0.061940606798462465    0.06202759026958492    0.062112239964694636    
  0.06214656243998934    0.062112239964694616    0.06202759026958492    0.061940606798462416    0.06191500851476358    
  0.06202176804499334    0.06233918941643315    0.06295154969967191    0.0639353266864894    0.06533487951429806    
  0.06714192401470197    0.06929134531831987    0.07167187151226644    0.07413955081693421    0.07652628133950322    
  0.07864824575268818    0.08032327067795715    0.08139682314516863    0.08176653080707391    0.09762869126454461    
  0.09706099133880167    0.09540581929451922    0.0928046804796728    0.08947909549988395    0.08569775514157423    
  0.08173302681624939    0.07782755812862775    0.07418124105617031    0.07094841247365587    0.06823067876345706    
  0.06606608997302978    0.06442894431877597    0.0632486239652357    0.062438155034701855    0.06191500851476361    
  0.06160707986814659    0.06145278193760563    0.06140703133758066    0.06145278193760558    0.06160707986814659    
  0.06191500851476358    0.062438155034701855    0.06324862396523574    0.06442894431877597    0.06606608997302975    
  0.06823067876345706    0.07094841247365587    0.07418124105617031    0.07782755812862775    0.08173302681624939    
  0.08569775514157417    0.08947909549988395    0.09280468047967286    0.09540581929451922    0.09706099133880167    
  0.09762869126454461    0.12000966568070086    0.11915178997789913    0.11664573202988841    0.11269367001669828    
  0.10761819252098788    0.10181695806247505    0.09569559223262143    0.0896119255234184    0.08385321585011676    
  0.07863620905868957    0.07410707765611349    0.07033523035015064    0.06731447811290209    0.06498212065422328    
  0.06324862396523574    0.06202176804499331    0.06121816402053167    0.06076840464876823    0.060624334217136144    
  0.06076840464876816    0.06121816402053169    0.06202176804499331    0.06324862396523574    0.06498212065422328    
  0.06731447811290209    0.07033523035015064    0.07410707765611349    0.07863620905868957    0.08385321585011676    
  0.0896119255234184    0.09569559223262143    0.101816958062475    0.10761819252098788    0.11269367001669832    
  0.11664573202988841    0.11915178997789913    0.12000966568070086    0.15023623640004663    0.14897471322166383    
  0.14528579098823924    0.13945670534359172    0.1319493139599608    0.12333994891867653    0.11422566610475368    
  0.10513978161959853    0.09650841110851334    0.08864204263994518    0.08173902636305257    0.07589204597568543    
  0.07110391883303004    0.06731447811290207    0.06442894431877601    0.06233918941643315    0.060939141444097344    
  0.06013917187910448    0.059879491614309326    0.06013917187910448    0.060939141444097344    0.06233918941643315    
  0.06442894431877601    0.06731447811290212    0.07110391883303004    0.07589204597568545    0.08173902636305257    
  0.08864204263994518    0.09650841110851334    0.10513978161959853    0.11422566610475368    0.12333994891867647    
  0.1319493139599608    0.13945670534359178    0.14528579098823924    0.14897471322166383    0.15023623640004663    
  0.1892359492937911    0.18745885613041072    0.18225462600132933    0.17400678188365432    0.16333934879520667    
  0.1510472272644348    0.13797904926896581    0.12491931665349106    0.11250864666263669    0.10120619099303695    
  0.09128382507227627    0.08284911179263918    0.07589204597568547    0.07033523035015066    0.06606608997302978    
  0.06295154969967197    0.06085261446529806    0.05964762980529904    0.059255347422930024    0.059647629805298995    
  0.06085261446529806    0.06295154969967194    0.06606608997302975    0.07033523035015066    0.07589204597568544    
  0.0828491117926392    0.09128382507227627    0.10120619099303695    0.11250864666263669    0.12491931665349106    
  0.13797904926896581    0.15104722726443479    0.16333934879520667    0.17400678188365434    0.18225462600132933    
  0.18745885613041072    0.1892359492937911    0.23653015769541919    0.2341938214676961    0.22732050796883513    
  0.21633746450584532    0.2019849055493128    0.18527032685653122    0.16733975978220944    0.1493142960428311    
  0.13214801545834    0.11653370885978279    0.10286783931170695    0.09128382507227624    0.08173902636305257    
  0.07410707765611343    0.0682306787634571    0.0639353266864893    0.06103854997711376    0.05937617073034378    
  0.058835311712343796    0.05937617073034378    0.06103854997711376    0.06393532668648925    0.0682306787634571    
  0.07410707765611346    0.08173902636305257    0.09128382507227624    0.10286783931170695    0.11653370885978279    
  0.13214801545834    0.1493142960428311    0.16733975978220944    0.18527032685653116    0.2019849055493128    
  0.21633746450584534    0.22732050796883513    0.2341938214676961    0.23653015769541919    0.2884716060463377    
  0.2857604610119792    0.27767033312312045    0.2644264321446772    0.24662870007310372    0.22535291890907178    
  0.20204971805049454    0.17828987618086725    0.15548687024343333    0.13469668276966035    0.11653370885978276    
  0.10120619099303688    0.08864204263994516    0.07863620905868951    0.07094841247365587    0.06533487951429805    
  0.061554355973610225    0.05938957051584211    0.05868655327561534    0.05938957051584204    0.061554355973610225    
  0.06533487951429802    0.07094841247365587    0.07863620905868954    0.08864204263994516    0.1012061909930369    
  0.11653370885978276    0.13469668276966035    0.15548687024343333    0.17828987618086728    0.20204971805049454    
  0.22535291890907178    0.24662870007310372    0.26442643214467726    0.27767033312312045    0.28576046101197927    
  0.2884716060463377    0.33571837908155094    0.33331523402906343    0.32580924044362375    0.3125958801618607    
  0.2934185123033619    0.26892957022773645    0.2407657316289645    0.2111211524590363    0.18214298314030733    
  0.15548687024343333    0.13214801545833998    0.11250864666263666    0.0965084111085133    0.0838532158501167    
  0.07418124105617031    0.06714192401470191    0.062412530410895395    0.05971106867640014    0.05883541446806745    
  0.059711068676400095    0.062412530410895395    0.06714192401470186    0.07418124105617031    0.08385321585011672    
  0.0965084111085133    0.11250864666263666    0.13214801545833998    0.15548687024343333    0.18214298314030733    
  0.2111211524590363    0.2407657316289645    0.26892957022773645    0.2934185123033619    0.31259588016186074    
  0.32580924044362375    0.33331523402906343    0.33571837908155094    0.3623800981715046    0.36164057687909484    
  0.3584243097516827    0.3503014839459667    0.33484441067821596    0.31116617536958546    0.28060090051425035    
  0.24613032770799056    0.21112115245903626    0.17828987618086728    0.14931429604283109    0.12491931665349101    
  0.10513978161959849    0.08961192552341839    0.07782755812862768    0.06929134531831987    0.06357202333290674    
  0.060311229268718625    0.05925555046910267    0.060311229268718625    0.06357202333290674    0.06929134531831987    
  0.07782755812862768    0.08961192552341837    0.10513978161959849    0.12491931665349106    0.14931429604283109    
  0.17828987618086728    0.21112115245903626    0.24613032770799056    0.28060090051425035    0.31116617536958546    
  0.3348444106782159    0.3503014839459668    0.3584243097516827    0.36164057687909484    0.3623800981715046    
  0.3519774818945404    0.3545302477488834    0.3603085514643588    0.36433785669062574    0.3605887970602834    
  0.3448850994950147    0.3170307429569133    0.2806009005142504    0.2407657316289645    0.20204971805049454    
  0.16733975978220944    0.13797904926896581    0.11422566610475363    0.09569559223262142    0.08173302681624939    
  0.07167187151226638    0.06494858337794701    0.061119159597684165    0.05987978994371362    0.06111915959768413    
  0.06494858337794701    0.07167187151226637    0.08173302681624939    0.09569559223262143    0.11422566610475363    
  0.13797904926896587    0.16733975978220947    0.20204971805049454    0.2407657316289645    0.2806009005142504    
  0.3170307429569133    0.34488509949501467    0.3605887970602834    0.3643378566906258    0.3603085514643588    
  0.3545302477488834    0.3519774818945404    0.30053887154157877    0.30717160271872423    0.3247285808807903    
  0.34635157096172436    0.36211852229391306    0.36289369180520836    0.3448850994950147    0.3111661753695855    
  0.26892957022773645    0.22535291890907178    0.18527032685653114    0.15104722726443479    0.12333994891867646    
  0.10181695806247501    0.08569775514157416    0.07413955081693421    0.06643351930939077    0.0620454229941259    
  0.060624720015735725    0.06204542299412584    0.06643351930939077    0.07413955081693423    0.08569775514157416    
  0.101816958062475    0.12333994891867646    0.15104722726443479    0.18527032685653114    0.22535291890907178    
  0.26892957022773645    0.3111661753695855    0.3448850994950147    0.36289369180520836    0.36211852229391306    
  0.3463515709617244    0.3247285808807903    0.30717160271872423    0.30053887154157877    0.22448742961673548    
  0.2342731153356915    0.2618329838709061    0.30073895113280225    0.3389775356115353    0.362118522293913    
  0.36058879706028335    0.3348444106782159    0.2934185123033619    0.24662870007310372    0.2019849055493128    
  0.16333934879520667    0.1319493139599607    0.10761819252098791    0.08947909549988395    0.07652628133950318    
  0.0679068519598616    0.06299793531655806    0.06140749372501746    0.06299793531655802    0.0679068519598616    
  0.07652628133950318    0.08947909549988395    0.10761819252098791    0.1319493139599607    0.16333934879520667    
  0.20198490554931284    0.24662870007310372    0.2934185123033619    0.3348444106782159    0.36058879706028335    
  0.362118522293913    0.3389775356115353    0.30073895113280225    0.2618329838709061    0.23427311533569153    
  0.22448742961673548    0.15069908831601017    0.16155538888117946    0.19375948346516134    0.24382860873830708    
  0.3007389511328023    0.34635157096172436    0.36433785669062574    0.3503014839459668    0.31259588016186074    
  0.26442643214467726    0.21633746450584534    0.1740067818836543    0.13945670534359178    0.11269367001669828    
  0.09280468047967282    0.07864824575268808    0.069242402356179    0.06388432977389581    0.06214708761009468    
  0.06388432977389577    0.069242402356179    0.07864824575268808    0.09280468047967284    0.11269367001669828    
  0.13945670534359178    0.1740067818836543    0.21633746450584534    0.26442643214467726    0.31259588016186074    
  0.3503014839459668    0.3643378566906258    0.3463515709617244    0.3007389511328023    0.24382860873830708    