#     DFTpy    
  CRYSTAL 
    
  PRIMVEC    
  2.6637931034482802    0.0    0.0    
  0.0    2.6637931034482802    0.0    
  0.0    0.0    2.6637931034482802    
  PRIMCOORD    
  2    1    
  Si    0.0    0.0    0.0    
  Si    1.3318965517241401    1.3318965517241401    1.3318965517241401    
  BEGIN_BLOCK_DATAGRID_3D    
  3d_datagrid_density    
  BEGIN_DATAGRID_3D#0    
  26    26    26    
  0.0    0.0    0.0    
  2.6637931133842794    0.0    0.0    
  0.0    2.6637931133842794    0.0    
  0.0    0.0    2.6637931133842794    
  0.05075747238620667    0.05950178360990363    0.08916359163960222    0.14670742945494356    0.23246632626730618    
  0.32980434660640234    0.4095786688702087    0.4501429426470007    0.4512744189907151    0.42849874621169703    
  0.3991445959866822    0.3748037349647064    0.36142045628435177    0.36142045628435177    0.3748037349647064    
  0.3991445959866822    0.42849874621169703    0.4512744189907151    0.4501429426470007    0.4095786688702087    
  0.32980434660640234    0.23246632626730618    0.14670742945494356    0.08916359163960222    0.05950178360990363    
  0.05075747238620667    0.05950178360990363    0.06887911309197414    0.10014690229376119    0.15927297214230401    
  0.2451222184483898    0.34027358690587123    0.4164158148800511    0.4536109833231222    0.45269421109671426    
  0.4291239863403065    0.39965563385834973    0.37541157448299417    0.3621125214061487    0.3621125214061487    
  0.37541157448299417    0.39965563385834973    0.4291239863403065    0.45269421109671426    0.4536109833231222    
  0.4164158148800511    0.34027358690587123    0.2451222184483898    0.15927297214230401    0.10014690229376119    
  0.06887911309197414    0.05950178360990363    0.08916359163960227    0.10014690229376119    0.13526135920635413    
  0.19749944756948798    0.2818780421766712    0.3694660016483751    0.434761454883777    0.4624997112378182    
  0.45607808944732675    0.43049745807058015    0.40084456248546213    0.3769484908246729    0.3639221476817465    
  0.3639221476817465    0.3769484908246729    0.40084456248546213    0.43049745807058015    0.45607808944732675    
  0.4624997112378182    0.434761454883777    0.3694660016483751    0.2818780421766712    0.19749944756948798    
  0.13526135920635413    0.10014690229376119    0.08916359163960227    0.14670742945494353    0.159272972142304    
  0.19749944756948795    0.26002083151971034    0.3373895514280651    0.4103588222121984    0.45849963815544126    
  0.47277269646918724    0.45916470265421316    0.4313419753779943    0.40184831570622176    0.37870833656331765    
  0.3662008812974834    0.3662008812974834    0.37870833656331765    0.40184831570622176    0.4313419753779943    
  0.45916470265421316    0.47277269646918724    0.45849963815544126    0.4103588222121984    0.3373895514280651    
  0.26002083151971034    0.19749944756948795    0.159272972142304    0.14670742945494353    0.23246632626730618    
  0.24512221844838974    0.28187804217667106    0.337389551428065    0.399574477602238    0.45147518165378736    
  0.4791789625162359    0.479375570475435    0.4592719102566713    0.43017984622213695    0.40168925651309473    
  0.3799151737885907    0.36825272474295    0.36825272474295    0.3799151737885907    0.40168925651309473    
  0.43017984622213695    0.4592719102566713    0.479375570475435    0.4791789625162359    0.45147518165378736    
  0.399574477602238    0.337389551428065    0.28187804217667106    0.24512221844838974    0.23246632626730618    
  0.32980434660640234    0.34027358690587134    0.3694660016483752    0.4103588222121985    0.45147518165378747    
  0.48034068360357246    0.48918088258590176    0.47832844481864706    0.4544555074671137    0.4259716606982631    
  0.39968570773717427    0.3800360226417956    0.3696052380890085    0.3696052380890085    0.3800360226417956    
  0.39968570773717427    0.4259716606982631    0.4544555074671137    0.47832844481864706    0.48918088258590176    
  0.48034068360357246    0.45147518165378747    0.4103588222121985    0.3694660016483752    0.34027358690587134    
  0.32980434660640234    0.4095786688702087    0.4164158148800511    0.434761454883777    0.45849963815544126    
  0.4791789625162361    0.48918088258590176    0.48501305896049723    0.46835851194305805    0.4442917224935644    
  0.4185252503045759    0.39567907547350006    0.37889631826585385    0.3700646303371997    0.3700646303371997    
  0.37889631826585385    0.39567907547350006    0.4185252503045759    0.4442917224935644    0.46835851194305805    
  0.48501305896049723    0.48918088258590176    0.4791789625162361    0.45849963815544126    0.434761454883777    
  0.4164158148800511    0.4095786688702087    0.45014294264700083    0.45361098332312233    0.4624997112378182    
  0.47277269646918724    0.479375570475435    0.47832844481864706    0.468358511943058    0.4510928516600218    
  0.42991608450967833    0.40852630909836385    0.39002422650266666    0.37660996749618975    0.3696062560381343    
  0.3696062560381343    0.37660996749618975    0.39002422650266666    0.40852630909836385    0.42991608450967833    
  0.4510928516600218    0.468358511943058    0.47832844481864706    0.479375570475435    0.47277269646918724    
  0.4624997112378182    0.45361098332312233    0.45014294264700083    0.4512744189907151    0.45269421109671426    
  0.45607808944732675    0.4591647026542132    0.45927191025667147    0.4544555074671136    0.4442917224935645    
  0.42991608450967855    0.4134477653592504    0.3972554922931099    0.38341753827623143    0.37345297951931256    
  0.36827198240652337    0.36827198240652337    0.37345297951931256    0.38341753827623143    0.3972554922931099    
  0.4134477653592504    0.42991608450967855    0.4442917224935645    0.4544555074671136    0.45927191025667147    
  0.4591647026542132    0.45607808944732675    0.45269421109671426    0.4512744189907151    0.42849874621169703    
  0.42912398634030646    0.43049745807058015    0.4313419753779943    0.43017984622213695    0.42597166069826303    
  0.41852525030457577    0.408526309098364    0.3972554922931098    0.3861931008511243    0.3766937191222797    
  0.36980238539316984    0.3661953448801845    0.3661953448801845    0.36980238539316984    0.3766937191222797    
  0.3861931008511243    0.3972554922931098    0.408526309098364    0.41852525030457577    0.42597166069826303    
  0.43017984622213695    0.4313419753779943    0.43049745807058015    0.42912398634030646    0.42849874621169703    
  0.3991445959866823    0.39965563385834973    0.40084456248546213    0.4018483157062218    0.40168925651309473    
  0.39968570773717427    0.39567907547350006    0.39002422650266666    0.38341753827623126    0.3766937191222798    
  0.37068729695078173    0.3661586759968203    0.36371867046364315    0.36371867046364315    0.3661586759968203    
  0.37068729695078173    0.3766937191222798    0.38341753827623126    0.39002422650266666    0.39567907547350006    
  0.39968570773717427    0.40168925651309473    0.4018483157062218    0.40084456248546213    0.39965563385834973    
  0.3991445959866823    0.3748037349647063    0.375411574482994    0.3769484908246728    0.37870833656331754    
  0.3799151737885907    0.3800360226417954    0.3788963182658537    0.37660996749618963    0.3734529795193123    
  0.36980238539316973    0.36615867599682017    0.3631553603182902    0.3614411109895518    0.3614411109895518    
  0.3631553603182902    0.36615867599682017    0.36980238539316973    0.3734529795193123    0.37660996749618963    
  0.3788963182658537    0.3800360226417954    0.3799151737885907    0.37870833656331754    0.3769484908246728    
  0.375411574482994    0.3748037349647063    0.3614204562843517    0.3621125214061486    0.36392214768174647    
  0.3662008812974834    0.36825272474295007    0.36960523808900847    0.37006463033719983    0.3696062560381343    
  0.36827198240652337    0.3661953448801845    0.36371867046364315    0.36144111098955195    0.3600619321440656    
  0.3600619321440656    0.36144111098955195    0.36371867046364315    0.3661953448801845    0.36827198240652337    
  0.3696062560381343    0.37006463033719983    0.36960523808900847    0.36825272474295007    0.3662008812974834    
  0.36392214768174647    0.3621125214061486    0.3614204562843517    0.3614204562843517    0.3621125214061486    
  0.36392214768174647    0.3662008812974834    0.36825272474295007    0.36960523808900847    0.37006463033719983    
  0.3696062560381343    0.36827198240652337    0.3661953448801845    0.36371867046364315    0.36144111098955195    
  0.3600619321440656    0.3600619321440656    0.36144111098955195    0.36371867046364315    0.3661953448801845    
  0.36827198240652337    0.3696062560381343    0.37006463033719983    0.36960523808900847    0.36825272474295007    
  0.3662008812974834    0.36392214768174647    0.3621125214061486    0.3614204562843517    0.3748037349647063    
  0.375411574482994    0.3769484908246728    0.37870833656331754    0.3799151737885907    0.3800360226417954    
  0.3788963182658537    0.37660996749618963    0.3734529795193123    0.36980238539316973    0.36615867599682017    
  0.3631553603182902    0.3614411109895518    0.3614411109895518    0.3631553603182902    0.36615867599682017    
  0.36980238539316973    0.3734529795193123    0.37660996749618963    0.3788963182658537    0.3800360226417954    
  0.3799151737885907    0.37870833656331754    0.3769484908246728    0.375411574482994    0.3748037349647063    
  0.3991445959866823    0.39965563385834973    0.40084456248546213    0.4018483157062218    0.40168925651309473    
  0.39968570773717427    0.39567907547350006    0.39002422650266666    0.38341753827623126    0.3766937191222798    
  0.37068729695078173    0.3661586759968203    0.36371867046364315    0.36371867046364315    0.3661586759968203    
  0.37068729695078173    0.3766937191222798    0.38341753827623126    0.39002422650266666    0.39567907547350006    
  0.39968570773717427    0.40168925651309473    0.4018483157062218    0.40084456248546213    0.39965563385834973    
  0.3991445959866823    0.42849874621169703    0.42912398634030646    0.43049745807058015    0.4313419753779943    
  0.43017984622213695    0.42597166069826303    0.41852525030457577    0.408526309098364    0.3972554922931098    
  0.3861931008511243    0.3766937191222797    0.36980238539316984    0.3661953448801845    0.3661953448801845    
  0.36980238539316984    0.3766937191222797    0.3861931008511243    0.3972554922931098    0.408526309098364    
  0.41852525030457577    0.42597166069826303    0.43017984622213695    0.4313419753779943    0.43049745807058015    
  0.42912398634030646    0.42849874621169703    0.4512744189907151    0.45269421109671426    0.45607808944732675    
  0.4591647026542132    0.45927191025667147    0.4544555074671136    0.4442917224935645    0.42991608450967855    
  0.4134477653592504    0.3972554922931099    0.38341753827623143    0.37345297951931256    0.36827198240652337    
  0.36827198240652337    0.37345297951931256    0.38341753827623143    0.3972554922931099    0.4134477653592504    
  0.42991608450967855    0.4442917224935645    0.4544555074671136    0.45927191025667147    0.4591647026542132    
  0.45607808944732675    0.45269421109671426    0.4512744189907151    0.45014294264700083    0.45361098332312233    
  0.4624997112378182    0.47277269646918724    0.479375570475435    0.47832844481864706    0.468358511943058    
  0.4510928516600218    0.42991608450967833    0.40852630909836385    0.39002422650266666    0.37660996749618975    
  0.3696062560381343    0.3696062560381343    0.37660996749618975    0.39002422650266666    0.40852630909836385    
  0.42991608450967833    0.4510928516600218    0.468358511943058    0.47832844481864706    0.479375570475435    
  0.47277269646918724    0.4624997112378182    0.45361098332312233    0.45014294264700083    0.4095786688702087    
  0.4164158148800511    0.434761454883777    0.45849963815544126    0.4791789625162361    0.48918088258590176    
  0.48501305896049723    0.46835851194305805    0.4442917224935644    0.4185252503045759    0.39567907547350006    
  0.37889631826585385    0.3700646303371997    0.3700646303371997    0.37889631826585385    0.39567907547350006    
  0.4185252503045759    0.4442917224935644    0.46835851194305805    0.48501305896049723    0.48918088258590176    
  0.4791789625162361    0.45849963815544126    0.434761454883777    0.4164158148800511    0.4095786688702087    
  0.32980434660640234    0.34027358690587134    0.3694660016483752    0.4103588222121985    0.45147518165378747    
  0.48034068360357246    0.48918088258590176    0.47832844481864706    0.4544555074671137    0.4259716606982631    
  0.39968570773717427    0.3800360226417956    0.3696052380890085    0.3696052380890085    0.3800360226417956    
  0.39968570773717427    0.4259716606982631    0.4544555074671137    0.47832844481864706    0.48918088258590176    
  0.48034068360357246    0.45147518165378747    0.4103588222121985    0.3694660016483752    0.34027358690587134    
  0.32980434660640234    0.23246632626730618    0.24512221844838974    0.28187804217667106    0.337389551428065    
  0.399574477602238    0.45147518165378736    0.4791789625162359    0.479375570475435    0.4592719102566713    
  0.43017984622213695    0.40168925651309473    0.3799151737885907    0.36825272474295    0.36825272474295    
  0.3799151737885907    0.40168925651309473    0.43017984622213695    0.4592719102566713    0.479375570475435    
  0.4791789625162359    0.45147518165378736    0.399574477602238    0.337389551428065    0.28187804217667106    
  0.24512221844838974    0.23246632626730618    0.14670742945494353    0.159272972142304    0.19749944756948795    
  0.26002083151971034    0.3373895514280651    0.4103588222121984    0.45849963815544126    0.47277269646918724    
  0.45916470265421316    0.4313419753779943    0.40184831570622176    0.37870833656331765    0.3662008812974834    
  0.3662008812974834    0.37870833656331765    0.40184831570622176    0.4313419753779943    0.45916470265421316    
  0.47277269646918724    0.45849963815544126    0.4103588222121984    0.3373895514280651    0.26002083151971034    
  0.19749944756948795    0.159272972142304    0.14670742945494353    0.08916359163960227    0.10014690229376119    
  0.13526135920635413    0.19749944756948798    0.2818780421766712    0.3694660016483751    0.434761454883777    
  0.4624997112378182    0.45607808944732675    0.43049745807058015    0.40084456248546213    0.3769484908246729    
  0.3639221476817465    0.3639221476817465    0.3769484908246729    0.40084456248546213    0.43049745807058015    
  0.45607808944732675    0.4624997112378182    0.434761454883777    0.3694660016483751    0.2818780421766712    
  0.19749944756948798    0.13526135920635413    0.10014690229376119    0.08916359163960227    0.05950178360990363    
  0.06887911309197414    0.10014690229376119    0.15927297214230401    0.2451222184483898    0.34027358690587123    
  0.4164158148800511    0.4536109833231222    0.45269421109671426    0.4291239863403065    0.39965563385834973    
  0.37541157448299417    0.3621125214061487    0.3621125214061487    0.37541157448299417    0.39965563385834973    
  0.4291239863403065    0.45269421109671426    0.4536109833231222    0.4164158148800511    0.34027358690587123    
  0.2451222184483898    0.15927297214230401    0.10014690229376119    0.06887911309197414    0.05950178360990363    
  0.05075747238620667    0.05950178360990363    0.08916359163960222    0.14670742945494356    0.23246632626730618    
  0.32980434660640234    0.4095786688702087    0.4501429426470007    0.4512744189907151    0.42849874621169703    
  0.3991445959866822    0.3748037349647064    0.36142045628435177    0.36142045628435177    0.3748037349647064    
  0.3991445959866822    0.42849874621169703    0.4512744189907151    0.4501429426470007    0.4095786688702087    
  0.32980434660640234    0.23246632626730618    0.14670742945494356    0.08916359163960222    0.05950178360990363    
  0.05075747238620667    0.05950178360990367    0.06887911309197409    0.10014690229376119    0.15927297214230401    
  0.24512221844838974    0.34027358690587123    0.4164158148800511    0.4536109833231221    0.45269421109671415    
  0.4291239863403065    0.3996556338583497    0.3754115744829942    0.3621125214061487    0.3621125214061487    
  0.3754115744829942    0.3996556338583497    0.4291239863403065    0.45269421109671415    0.4536109833231221    
  0.4164158148800511    0.34027358690587123    0.24512221844838974    0.15927297214230401    0.10014690229376119    
  0.06887911309197409    0.05950178360990367    0.06887911309197414    0.07884843882615943    0.11158086408894986    
  0.17204221375328912    0.25771335475362045    0.3505238295603086    0.4230454323266585    0.4569754593556125    
  0.4541091184237976    0.4297990117126053    0.40023750172709077    0.37609669101123494    0.3628837122827751    
  0.3628837122827751    0.37609669101123494    0.40023750172709077    0.4297990117126053    0.4541091184237976    
  0.4569754593556125    0.4230454323266585    0.3505238295603086    0.25771335475362045    0.17204221375328912    
  0.11158086408894986    0.07884843882615943    0.06887911309197414    0.10014690229376123    0.11158086408894986    
  0.14771245246591747    0.21057860824603922    0.2940827808656251    0.37899396897058046    0.440780368248041    
  0.46558393474045096    0.45750160620620095    0.4313381384446225    0.40165391608309436    0.37788160207080757    
  0.36494786074789226    0.36494786074789226    0.37788160207080757    0.40165391608309436    0.4313381384446225    
  0.45750160620620095    0.46558393474045096    0.440780368248041    0.37899396897058046    0.2940827808656251    
  0.21057860824603922    0.14771245246591747    0.11158086408894986    0.10014690229376123    0.15927297214230401    
  0.1720422137532891    0.21057860824603916    0.2727632575300102    0.34847667581966973    0.41857354803943847    
  0.46358076656134706    0.4754953086383104    0.4606733531355701    0.43250359282760364    0.40307473431177265    
  0.38009387158358376    0.3676915132150185    0.3676915132150185    0.38009387158358376    0.40307473431177265    
  0.43250359282760364    0.4606733531355701    0.4754953086383104    0.46358076656134706    0.41857354803943847    
  0.34847667581966973    0.2727632575300102    0.21057860824603916    0.1720422137532891    0.15927297214230401    
  0.24512221844838974    0.2577133547536204    0.294082780865625    0.3484766758196696    0.40861327145368925    
  0.45789930467997997    0.48319542062706816    0.48180392694114194    0.4610187314366007    0.43185237828527095    
  0.40354165311493184    0.38197242576727963    0.3704320828119265    0.3704320828119265    0.38197242576727963    
  0.40354165311493184    0.43185237828527095    0.4610187314366007    0.48180392694114194    0.48319542062706816    
  0.45789930467997997    0.40861327145368925    0.3484766758196696    0.294082780865625    0.2577133547536204    
  0.24512221844838974    0.34027358690587123    0.35052382956030864    0.3789939689705806    0.4185735480394386    
  0.45789930467998    0.484900983677463    0.4922949127789614    0.48067479627706156    0.4566384410619123    
  0.42833948714120024    0.402344961857241    0.3829453897465199    0.3726531302307581    0.3726531302307581    
  0.3829453897465199    0.402344961857241    0.42833948714120024    0.4566384410619123    0.48067479627706156    
  0.4922949127789614    0.484900983677463    0.45789930467998    0.4185735480394386    0.3789939689705806    
  0.35052382956030864    0.34027358690587123    0.4164158148800511    0.4230454323266585    0.440780368248041    
  0.46358076656134706    0.4831954206270682    0.4922949127789614    0.4876189427975637    0.4708990275184182    
  0.44708600111636265    0.421708875077308    0.3992404881511747    0.382739819002865    0.37405617484384535    
  0.37405617484384535    0.382739819002865    0.3992404881511747    0.421708875077308    0.44708600111636265    
  0.4708990275184182    0.4876189427975637    0.4922949127789614    0.4831954206270682    0.46358076656134706    
  0.440780368248041    0.4230454323266585    0.4164158148800511    0.45361098332312233    0.4569754593556126    
  0.46558393474045096    0.4754953086383104    0.48180392694114205    0.48067479627706156    0.47089902751841817    
  0.45405591646627913    0.43341138148613484    0.4125420437002738    0.3944662096613008    0.38134453343710784    
  0.37448771058019004    0.37448771058019004    0.38134453343710784    0.3944662096613008    0.4125420437002738    
  0.43341138148613484    0.45405591646627913    0.47089902751841817    0.48067479627706156    0.48180392694114205    
  0.4754953086383104    0.46558393474045096    0.4569754593556126    0.45361098332312233    0.45269421109671426    
  0.4541091184237976    0.45750160620620095    0.4606733531355702    0.4610187314366009    0.45663844106191226    
  0.44708600111636276    0.433411381486135    0.4176270230506928    0.40201714206132383    0.38861604786757176    
  0.3789335235884848    0.3738885797505557    0.3738885797505557    0.3789335235884848    0.38861604786757176    
  0.40201714206132383    0.4176270230506928    0.433411381486135    0.44708600111636276    0.45663844106191226    
  0.4610187314366009    0.4606733531355702    0.45750160620620095    0.4541091184237976    0.45269421109671426    
  0.4291239863403065    0.4297990117126053    0.4313381384446224    0.43250359282760364    0.43185237828527095    
  0.4283394871412002    0.4217088750773079    0.41254204370027403    0.4020171420613237    0.3915484432447556    
  0.3824695774890165    0.3758369949841924    0.37235059146313465    0.37235059146313465    0.3758369949841924    
  0.3824695774890165    0.3915484432447556    0.4020171420613237    0.41254204370027403    0.4217088750773079    
  0.4283394871412002    0.43185237828527095    0.43250359282760364    0.4313381384446224    0.4297990117126053    
  0.4291239863403065    0.39965563385834973    0.40023750172709077    0.40165391608309436    0.4030747343117727    
  0.40354165311493184    0.402344961857241    0.3992404881511747    0.3944662096613008    0.3886160478675716    
  0.38246957748901655    0.376856146938014    0.3725614499236488    0.37022814515766206    0.37022814515766206    
  0.3725614499236488    0.376856146938014    0.38246957748901655    0.3886160478675716    0.3944662096613008    
  0.3992404881511747    0.402344961857241    0.40354165311493184    0.4030747343117727    0.40165391608309436    
  0.40023750172709077    0.39965563385834973    0.3754115744829941    0.37609669101123483    0.37788160207080745    
  0.38009387158358365    0.3819724257672796    0.38294538974651987    0.38273981900286486    0.3813445334371077    
  0.37893352358848453    0.37583699498419226    0.3725614499236487    0.3697738489614171    0.36815740015509274    
  0.36815740015509274    0.3697738489614171    0.3725614499236487    0.37583699498419226    0.37893352358848453    
  0.3813445334371077    0.38273981900286486    0.38294538974651987    0.3819724257672796    0.38009387158358365    
  0.37788160207080745    0.37609669101123483    0.3754115744829941    0.3621125214061487    0.362883712282775    
  0.3649478607478922    0.36769151321501853    0.3704320828119266    0.37265313023075797    0.37405617484384546    
  0.37448771058019004    0.3738885797505557    0.37235059146313465    0.370228145157662    0.36815740015509296    
  0.3668722171367597    0.3668722171367597    0.36815740015509296    0.370228145157662    0.37235059146313465    
  0.3738885797505557    0.37448771058019004    0.37405617484384546    0.37265313023075797    0.3704320828119266    
  0.36769151321501853    0.3649478607478922    0.362883712282775    0.3621125214061487    0.3621125214061487    
  0.362883712282775    0.3649478607478922    0.36769151321501853    0.3704320828119266    0.37265313023075797    
  0.37405617484384546    0.37448771058019004    0.3738885797505557    0.37235059146313465    0.370228145157662    
  0.36815740015509296    0.3668722171367597    0.3668722171367597    0.36815740015509296    0.370228145157662    
  0.37235059146313465    0.3738885797505557    0.37448771058019004    0.37405617484384546    0.37265313023075797    
  0.3704320828119266    0.36769151321501853    0.3649478607478922    0.362883712282775    0.3621125214061487    
  0.3754115744829941    0.37609669101123483    0.37788160207080745    0.38009387158358365    0.3819724257672796    
  0.38294538974651987    0.38273981900286486    0.3813445334371077    0.37893352358848453    0.37583699498419226    
  0.3725614499236487    0.3697738489614171    0.36815740015509274    0.36815740015509274    0.3697738489614171    
  0.3725614499236487    0.37583699498419226    0.37893352358848453    0.3813445334371077    0.38273981900286486    
  0.38294538974651987    0.3819724257672796    0.38009387158358365    0.37788160207080745    0.37609669101123483    
  0.3754115744829941    0.39965563385834973    0.40023750172709077    0.40165391608309436    0.4030747343117727    
  0.40354165311493184    0.402344961857241    0.3992404881511747    0.3944662096613008    0.3886160478675716    
  0.38246957748901655    0.376856146938014    0.3725614499236488    0.37022814515766206    0.37022814515766206    
  0.3725614499236488    0.376856146938014    0.38246957748901655    0.3886160478675716    0.3944662096613008    
  0.3992404881511747    0.402344961857241    0.40354165311493184    0.4030747343117727    0.40165391608309436    
  0.40023750172709077    0.39965563385834973    0.4291239863403065    0.4297990117126053    0.4313381384446224    
  0.43250359282760364    0.43185237828527095    0.4283394871412002    0.4217088750773079    0.41254204370027403    
  0.4020171420613237    0.3915484432447556    0.3824695774890165    0.3758369949841924    0.37235059146313465    
  0.37235059146313465    0.3758369949841924    0.3824695774890165    0.3915484432447556    0.4020171420613237    
  0.41254204370027403    0.4217088750773079    0.4283394871412002    0.43185237828527095    0.43250359282760364    
  0.4313381384446224    0.4297990117126053    0.4291239863403065    0.45269421109671426    0.4541091184237976    
  0.45750160620620095    0.4606733531355702    0.4610187314366009    0.45663844106191226    0.44708600111636276    
  0.433411381486135    0.4176270230506928    0.40201714206132383    0.38861604786757176    0.3789335235884848    
  0.3738885797505557    0.3738885797505557    0.3789335235884848    0.38861604786757176    0.40201714206132383    
  0.4176270230506928    0.433411381486135    0.44708600111636276    0.45663844106191226    0.4610187314366009    
  0.4606733531355702    0.45750160620620095    0.4541091184237976    0.45269421109671426    0.45361098332312233    
  0.4569754593556126    0.46558393474045096    0.4754953086383104    0.48180392694114205    0.48067479627706156    
  0.47089902751841817    0.45405591646627913    0.43341138148613484    0.4125420437002738    0.3944662096613008    
  0.38134453343710784    0.37448771058019004    0.37448771058019004    0.38134453343710784    0.3944662096613008    
  0.4125420437002738    0.43341138148613484    0.45405591646627913    0.47089902751841817    0.48067479627706156    
  0.48180392694114205    0.4754953086383104    0.46558393474045096    0.4569754593556126    0.45361098332312233    
  0.4164158148800511    0.4230454323266585    0.440780368248041    0.46358076656134706    0.4831954206270682    
  0.4922949127789614    0.4876189427975637    0.4708990275184182    0.44708600111636265    0.421708875077308    
  0.3992404881511747    0.382739819002865    0.37405617484384535    0.37405617484384535    0.382739819002865    
  0.3992404881511747    0.421708875077308    0.44708600111636265    0.4708990275184182    0.4876189427975637    
  0.4922949127789614    0.4831954206270682    0.46358076656134706    0.440780368248041    0.4230454323266585    
  0.4164158148800511    0.34027358690587123    0.35052382956030864    0.3789939689705806    0.4185735480394386    
  0.45789930467998    0.484900983677463    0.4922949127789614    0.48067479627706156    0.4566384410619123    
  0.42833948714120024    0.402344961857241    0.3829453897465199    0.3726531302307581    0.3726531302307581    
  0.3829453897465199    0.402344961857241    0.42833948714120024    0.4566384410619123    0.48067479627706156    
  0.4922949127789614    0.484900983677463    0.45789930467998    0.4185735480394386    0.3789939689705806    
  0.35052382956030864    0.34027358690587123    0.24512221844838974    0.2577133547536204    0.294082780865625    
  0.3484766758196696    0.40861327145368925    0.45789930467997997    0.48319542062706816    0.48180392694114194    
  0.4610187314366007    0.43185237828527095    0.40354165311493184    0.38197242576727963    0.3704320828119265    
  0.3704320828119265    0.38197242576727963    0.40354165311493184    0.43185237828527095    0.4610187314366007    
  0.48180392694114194    0.48319542062706816    0.45789930467997997    0.40861327145368925    0.3484766758196696    
  0.294082780865625    0.2577133547536204    0.24512221844838974    0.15927297214230401    0.1720422137532891    
  0.21057860824603916    0.2727632575300102    0.34847667581966973    0.41857354803943847    0.46358076656134706    
  0.4754953086383104    0.4606733531355701    0.43250359282760364    0.40307473431177265    0.38009387158358376    
  0.3676915132150185    0.3676915132150185    0.38009387158358376    0.40307473431177265    0.43250359282760364    
  0.4606733531355701    0.4754953086383104    0.46358076656134706    0.41857354803943847    0.34847667581966973    
  0.2727632575300102    0.21057860824603916    0.1720422137532891    0.15927297214230401    0.10014690229376123    