#     DFTpy    
  CRYSTAL 
    
  PRIMVEC    
  3.7506206896551704    0.0    0.0    
  0.0    3.7506206896551704    0.0    
  0.0    0.0    3.7506206896551704    
  PRIMCOORD    
  2    1    
  Si    0.0    0.0    0.0    
  Si    1.8753103448275907    1.8753103448275907    1.8753103448275907    
  BEGIN_BLOCK_DATAGRID_3D    
  3d_datagrid_density    
  BEGIN_DATAGRID_3D#0    
  37    37    37    
  0.0    0.0    0.0    
  3.750620703645057    0.0    0.0    
  0.0    3.750620703645057    0.0    
  0.0    0.0    3.750620703645057    
  0.06006502390738496    0.0684681931893021    0.09607821562746399    0.14705592714486457    0.21879546361151533    
  0.2945101559055209    0.34863259837066296    0.36389161907938733    0.3419860075219818    0.2977825910698257    
  0.24700688334834422    0.19960064239594646    0.15983276958864276    0.12860562143773985    0.10524681458817649    
  0.0885572001130584    0.0774123043610919    0.0710187593061459    0.06893428134043833    0.07101875930614589    
  0.0774123043610919    0.08855720011305841    0.10524681458817649    0.12860562143773985    0.15983276958864276    
  0.19960064239594646    0.24700688334834422    0.29778259106982563    0.3419860075219818    0.3638916190793874    
  0.34863259837066296    0.29451015590552093    0.21879546361151533    0.1470559271448645    0.09607821562746399    
  0.0684681931893021    0.06006502390738496    0.06846819318930213    0.07730592260248197    0.10592260466235093    
  0.15756355388096166    0.22843382653534533    0.3013023622923213    0.3515623661746519    0.3635391289832804    
  0.33983805045811616    0.29518252400055833    0.24469014496606478    0.19780151819119193    0.15853631397652468    
  0.12771412268375368    0.10465317987921588    0.08817081936741333    0.0771625596390374    0.07084794421043965    
  0.06878950665288784    0.07084794421043959    0.0771625596390374    0.08817081936741338    0.10465317987921588    
  0.12771412268375365    0.1585363139765247    0.19780151819119193    0.24469014496606478    0.29518252400055833    
  0.33983805045811616    0.3635391289832804    0.3515623661746519    0.3013023622923213    0.22843382653534539    
  0.15756355388096166    0.10592260466235087    0.07730592260248197    0.06846819318930213    0.09607821562746399    
  0.10592260466235083    0.13663857654742306    0.1888519978654384    0.2557627150918703    0.3195081144206129    
  0.35853050358058053    0.36146135647400635    0.33305936794177265    0.2874063401480914    0.23787592934908894    
  0.19254137008848535    0.15475518559400656    0.12511799192894146    0.10292700317867826    0.08704952383413479    
  0.0764399317984024    0.07035552883070664    0.06837301471442701    0.07035552883070662    0.0764399317984024    
  0.08704952383413482    0.10292700317867827    0.12511799192894146    0.15475518559400656    0.19254137008848535    
  0.23787592934908894    0.2874063401480914    0.33305936794177265    0.36146135647400635    0.35853050358058053    
  0.31950811442061294    0.2557627150918703    0.18885199786543838    0.13663857654742306    0.10592260466235087    
  0.09607821562746399    0.14705592714486462    0.1575635538809617    0.1888519978654385    0.23797665712998176    
  0.294962536307357    0.34265778133029967    0.36462891841708905    0.3551068024185447    0.32091200305775663    
  0.2746096399520387    0.2269774720187648    0.18421744119902067    0.1487991061128867    0.12104043670077527    
  0.10022390005808655    0.0853012001787112    0.07532079340596397    0.06959950849548725    0.06773666094009098    
  0.06959950849548725    0.07532079340596397    0.08530120017871123    0.10022390005808655    0.12104043670077527    
  0.1487991061128867    0.18421744119902067    0.2269774720187648    0.2746096399520387    0.32091200305775663    
  0.3551068024185447    0.36462891841708905    0.34265778133029967    0.294962536307357    0.2379766571299817    
  0.1888519978654385    0.15756355388096172    0.14705592714486462    0.21879546361151528    0.2284338265353453    
  0.2557627150918703    0.294962536307357    0.3347792150037569    0.3610843558175594    0.36366709511155093    
  0.34174322051006023    0.3028973995391027    0.2572632464451985    0.2126845239056573    0.17344222577555163    
  0.14113507036677891    0.11581475291972063    0.09677544629488062    0.08308703803948385    0.07392039048136238    
  0.0686683734807653    0.06695997646064795    0.0686683734807653    0.07392039048136238    0.08308703803948386    
  0.09677544629488062    0.11581475291972063    0.14113507036677891    0.17344222577555163    0.2126845239056573    
  0.2572632464451985    0.3028973995391027    0.34174322051006023    0.36366709511155093    0.3610843558175594    
  0.3347792150037569    0.2949625363073569    0.2557627150918703    0.2284338265353453    0.21879546361151528    
  0.29451015590552093    0.3013023622923213    0.319508114420613    0.34265778133029967    0.36108435581755943    
  0.36538558907057367    0.35096418529777235    0.3200323533627756    0.27937833710018145    0.236288347129261    
  0.19592667627430232    0.16097096567670996    0.1323205803303739    0.10983248996898982    0.09285219192166391    
  0.08059617531429951    0.0723752418201214    0.06766785933026104    0.06613832508028643    0.06766785933026101    
  0.0723752418201214    0.08059617531429955    0.09285219192166391    0.1098324899689898    0.1323205803303739    
  0.16097096567670996    0.19592667627430232    0.236288347129261    0.27937833710018145    0.3200323533627756    
  0.35096418529777235    0.36538558907057367    0.36108435581755943    0.34265778133029967    0.31950811442061294    
  0.3013023622923212    0.29451015590552093    0.34863259837066296    0.35156236617465203    0.3585305035805806    
  0.36462891841708905    0.36366709511155093    0.35096418529777235    0.32566684906990423    0.29090092683246643    
  0.25177661071762963    0.21302457012288323    0.17778732758227483    0.14761459083476175    0.1229307340505366    
  0.10348860115908708    0.08872499272266045    0.0780187727335762    0.07082378761783956    0.06670595963316209    
  0.06536938313428402    0.06670595963316209    0.07082378761783956    0.07801877273357623    0.08872499272266045    
  0.10348860115908706    0.1229307340505366    0.14761459083476175    0.17778732758227483    0.21302457012288323    
  0.25177661071762963    0.29090092683246643    0.32566684906990423    0.35096418529777235    0.36366709511155093    
  0.36462891841708905    0.3585305035805806    0.351562366174652    0.34863259837066296    0.36389161907938733    
  0.3635391289832804    0.36146135647400635    0.35510680241854464    0.34174322051006023    0.3200323533627755    
  0.29090092683246643    0.25715477506042356    0.22222961083142706    0.18902148143594397    0.15937709005264863    
  0.13415319487958394    0.11349742179462707    0.09714041558916564    0.08463742998761545    0.07552640496232187    
  0.06939169342965752    0.06588140179693402    0.06474279807354212    0.06588140179693402    0.06939169342965752    
  0.07552640496232191    0.08463742998761545    0.0971404155891656    0.11349742179462707    0.13415319487958394    
  0.15937709005264863    0.18902148143594397    0.22222961083142706    0.25715477506042356    0.29090092683246643    
  0.3200323533627756    0.34174322051006023    0.3551068024185446    0.36146135647400635    0.3635391289832804    
  0.36389161907938733    0.3419860075219818    0.33983805045811616    0.33305936794177265    0.32091200305775663    
  0.3028973995391028    0.2793783371001815    0.25177661071762963    0.22222961083142706    0.19296061893095637    
  0.16574653375832224    0.1416894458893967    0.12125834128887536    0.1044686203045873    0.09108752266925216    
  0.08079434531164503    0.07326288760510015    0.06818334044554322    0.0652758678901146    0.06433280363504262    
  0.0652758678901146    0.06818334044554322    0.07326288760510018    0.08079434531164503    0.09108752266925213    
  0.1044686203045873    0.12125834128887539    0.1416894458893967    0.16574653375832227    0.19296061893095637    
  0.22222961083142706    0.25177661071762963    0.2793783371001815    0.3028973995391028    0.32091200305775663    
  0.33305936794177265    0.3398380504581162    0.3419860075219818    0.29778259106982563    0.2951825240005584    
  0.2874063401480915    0.27460963995203863    0.25726324644519855    0.236288347129261    0.21302457012288328    
  0.18902148143594394    0.1657465337583222    0.14433573732007868    0.12547553128228406    0.10943295799164918    
  0.09618498935179676    0.08556477386569353    0.07735846049692721    0.07133946608474408    0.06727508661890069    
  0.06494615505901674    0.06419005815933423    0.06494615505901671    0.06727508661890069    0.0713394660847441    
  0.07735846049692721    0.0855647738656935    0.09618498935179676    0.10943295799164918    0.12547553128228406    
  0.14433573732007868    0.1657465337583222    0.18902148143594394    0.21302457012288328    0.236288347129261    
  0.25726324644519855    0.2746096399520387    0.2874063401480915    0.29518252400055833    0.29778259106982563    
  0.24700688334834422    0.24469014496606484    0.23787592934908888    0.2269774720187648    0.21268452390565734    
  0.19592667627430232    0.17778732758227483    0.1593770900526486    0.1416894458893967    0.1254755312822841    
  0.11118334152245879    0.09898549907294314    0.08887039511982339    0.08073628320952547    0.07444321775678278    
  0.0698266400396435    0.06670678776163658    0.06491548029878319    0.06433281330733702    0.06491548029878319    
  0.06670678776163658    0.06982664003964353    0.07444321775678278    0.08073628320952543    0.08887039511982339    
  0.09898549907294317    0.11118334152245879    0.1254755312822841    0.1416894458893967    0.1593770900526486    
  0.17778732758227483    0.19592667627430232    0.21268452390565734    0.22697747201876475    0.23787592934908888    
  0.24469014496606478    0.24700688334834422    0.19960064239594652    0.19780151819119193    0.1925413700884854    
  0.18421744119902067    0.17344222577555168    0.16097096567670996    0.14761459083476183    0.13415319487958394    
  0.12125834128887535    0.10943295799164918    0.09898549907294317    0.0900498235721735    0.08263733794363357    
  0.0766884306439634    0.07210107513389086    0.06874401353148776    0.0664749387203371    0.06516876300017287    
  0.06474281725900204    0.06516876300017284    0.06647493872033705    0.06874401353148786    0.07210107513389086    
  0.07668843064396338    0.08263733794363357    0.09004982357217352    0.09898549907294317    0.10943295799164918    
  0.12125834128887535    0.13415319487958394    0.14761459083476183    0.16097096567670993    0.17344222577555168    
  0.18421744119902067    0.1925413700884854    0.19780151819119196    0.19960064239594652    0.1598327695886428    
  0.15853631397652473    0.15475518559400658    0.1487991061128867    0.14113507036677894    0.1323205803303739    
  0.12293073405053667    0.1134974217946271    0.10446862030458734    0.0961849893517968    0.08887039511982342    
  0.08263733794363358    0.07750621071859622    0.0734303831289553    0.07031905232337118    0.0680582386589119    
  0.06653419617328414    0.06565618383052399    0.06536941136585585    0.06565618383052396    0.06653419617328414    
  0.06805823865891196    0.07031905232337118    0.07343038312895525    0.07750621071859624    0.08263733794363358    
  0.08887039511982342    0.09618498935179681    0.10446862030458734    0.11349742179462707    0.12293073405053667    
  0.13232058033037392    0.14113507036677894    0.1487991061128867    0.15475518559400658    0.15853631397652473    
  0.1598327695886428    0.12860562143773985    0.1277141226837537    0.1251179919289415    0.12104043670077527    
  0.11581475291972063    0.10983248996898985    0.1034886011590871    0.09714041558916563    0.09108752266925213    
  0.0855647738656935    0.08073628320952547    0.0766884306439634    0.0734303831289553    0.07090853582389978    
  0.06903129725554318    0.06769560955037945    0.066808870861439    0.06630287981706727    0.06613836158470741    
  0.06630287981706727    0.066808870861439    0.06769560955037952    0.06903129725554318    0.07090853582389973    
  0.07343038312895525    0.0766884306439634    0.08073628320952547    0.0855647738656935    0.09108752266925213    
  0.09714041558916563    0.1034886011590871    0.1098324899689899    0.11581475291972063    0.12104043670077524    
  0.12511799192894146    0.1277141226837537    0.12860562143773985    0.10524681458817652    0.10465317987921591    
  0.10292700317867827    0.10022390005808661    0.09677544629488063    0.09285219192166393    0.08872499272266045    
  0.08463742998761545    0.08079434531164502    0.07735846049692725    0.07444321775678275    0.07210107513389086    
  0.07031905232337118    0.06903129725554323    0.06814461806639123    0.06756393424122271    0.06720854428013344    
  0.0670191684530627    0.06696002039719481    0.06701916845306267    0.06720854428013344    0.06756393424122276    
  0.06814461806639123    0.0690312972555432    0.07031905232337118    0.07210107513389086    0.07444321775678275    
  0.07735846049692725    0.08079434531164502    0.08463742998761545    0.08872499272266045    0.09285219192166395    
  0.09677544629488063    0.10022390005808657    0.10292700317867827    0.10465317987921594    0.10524681458817652    
  0.0885572001130584    0.0881708193674133    0.08704952383413479    0.08530120017871119    0.08308703803948382    
  0.08059617531429948    0.07801877273357626    0.07552640496232191    0.07326288760510011    0.07133946608474405    
  0.0698266400396435    0.06874401353148776    0.06805823865891193    0.06769560955037947    0.06756393424122274    
  0.06757209146239392    0.06764109739328739    0.06770930791861365    0.06773671153695038    0.06770930791861364    
  0.06764109739328739    0.06757209146239397    0.06756393424122274    0.06769560955037943    0.06805823865891193    
  0.06874401353148776    0.0698266400396435    0.07133946608474408    0.07326288760510011    0.07552640496232194    
  0.07801877273357626    0.08059617531429951    0.08308703803948382    0.08530120017871116    0.08704952383413479    
  0.08817081936741328    0.0885572001130584    0.0774123043610919    0.07716255963903743    0.07643993179840249    
  0.075320793405964    0.07392039048136248    0.07237524182012142    0.07082378761783958    0.06939169342965752    
  0.06818334044554325    0.06727508661890073    0.06670678776163658    0.06647493872033708    0.06653419617328414    
  0.06680887086143897    0.06720854428013341    0.06764109739328734    0.06802180717926937    0.06828119152487189    
  0.0683730709911982    0.06828119152487186    0.06802180717926937    0.06764109739328739    0.06720854428013345    
  0.06680887086143894    0.06653419617328414    0.0664749387203371    0.06670678776163658    0.06727508661890073    
  0.06818334044554325    0.06939169342965752    0.07082378761783958    0.07237524182012146    0.07392039048136248    
  0.075320793405964    0.07643993179840249    0.07716255963903744    0.0774123043610919    0.07101875930614589    
  0.07084794421043963    0.07035552883070662    0.06959950849548724    0.06866837348076527    0.06766785933026098    
  0.06670595963316212    0.06588140179693401    0.06527586789011457    0.06494615505901667    0.06491548029878319    
  0.06516876300017282    0.06565618383052396    0.06630287981706723    0.06701916845306263    0.06770930791861365    
  0.0682811915248719    0.06865809743148851    0.06878956692883538    0.06865809743148851    0.0682811915248719    
  0.06770930791861365    0.06701916845306263    0.06630287981706723    0.06565618383052396    0.06516876300017282    
  0.06491548029878319    0.06494615505901667    0.06527586789011457    0.06588140179693402    0.06670595963316209    
  0.06766785933026102    0.0686683734807653    0.06959950849548723    0.0703555288307066    0.07084794421043965    
  0.07101875930614589    0.06893428134043833    0.06878950665288784    0.06837301471442703    0.06773666094009095    
  0.06695997646064797    0.06613832508028641    0.06536938313428403    0.06474279807354215    0.06433280363504262    
  0.06419005815933423    0.06433281330733709    0.06474281725900198    0.06536941136585592    0.06613836158470741    
  0.06696002039719481    0.06773671153695036    0.06837307099119824    0.06878956692883534    0.06893434307886005    
  0.06878956692883534    0.06837307099119824    0.06773671153695043    0.06696002039719481    0.06613836158470737    
  0.06536941136585592    0.06474281725900204    0.06433281330733709    0.06419005815933423    0.06433280363504262    
  0.06474279807354215    0.06536938313428403    0.06613832508028644    0.06695997646064797    0.06773666094009091    
  0.06837301471442703    0.06878950665288784    0.06893428134043833    0.07101875930614589    0.07084794421043965    
  0.0703555288307066    0.06959950849548725    0.06866837348076528    0.06766785933026101    0.06670595963316209    
  0.06588140179693398    0.06527586789011457    0.06494615505901669    0.06491548029878319    0.06516876300017284    
  0.06565618383052399    0.06630287981706723    0.06701916845306267    0.06770930791861361    0.06828119152487189    
  0.06865809743148853    0.06878956692883538    0.06865809743148854    0.06828119152487189    0.06770930791861371    
  0.06701916845306267    0.06630287981706723    0.06565618383052399    0.06516876300017282    0.06491548029878319    
  0.06494615505901669    0.06527586789011457    0.06588140179693398    0.06670595963316209    0.06766785933026104    
  0.06866837348076527    0.06959950849548723    0.07035552883070662    0.07084794421043963    0.07101875930614589    
  0.07741230436109191    0.07716255963903741    0.07643993179840249    0.075320793405964    0.07392039048136248    
  0.07237524182012142    0.07082378761783958    0.06939169342965752    0.06818334044554325    0.06727508661890073    
  0.06670678776163658    0.06647493872033708    0.06653419617328414    0.06680887086143897    0.06720854428013345    
  0.06764109739328734    0.06802180717926937    0.06828119152487189    0.0683730709911982    0.06828119152487186    
  0.06802180717926937    0.06764109739328739    0.06720854428013341    0.06680887086143894    0.06653419617328414    
  0.0664749387203371    0.06670678776163658    0.06727508661890073    0.06818334044554325    0.06939169342965752    
  0.07082378761783958    0.07237524182012146    0.07392039048136248    0.07532079340596398    0.07643993179840249    
  0.07716255963903744    0.07741230436109191    0.0885572001130584    0.08817081936741328    0.08704952383413476    
  0.08530120017871123    0.08308703803948385    0.08059617531429948    0.07801877273357623    0.07552640496232191    
  0.07326288760510011    0.07133946608474408    0.0698266400396435    0.06874401353148776    0.06805823865891186    
  0.06769560955037947    0.06756393424122271    0.06757209146239392    0.06764109739328739    0.06770930791861365    
  0.0677367115369504    0.06770930791861364    0.06764109739328737    0.06757209146239393    0.06756393424122271    
  0.06769560955037943    0.06805823865891186    0.06874401353148776    0.0698266400396435    0.0713394660847441    
  0.07326288760510011    0.07552640496232191    0.07801877273357623    0.08059617531429951    0.08308703803948385    
  0.0853012001787112    0.08704952383413478    0.0881708193674133    0.0885572001130584    0.10524681458817652    
  0.10465317987921591    0.1029270031786783    0.10022390005808661    0.09677544629488063    0.09285219192166393    
  0.08872499272266045    0.08463742998761545    0.08079434531164502    0.07735846049692725    0.07444321775678275    
  0.07210107513389086    0.07031905232337117    0.06903129725554324    0.06814461806639123    0.06756393424122271    
  0.06720854428013344    0.0670191684530627    0.06696002039719481    0.06701916845306267    0.06720854428013344    
  0.06756393424122276    0.06814461806639123    0.0690312972555432    0.07031905232337118    0.07210107513389086    
  0.07444321775678275    0.07735846049692725    0.08079434531164502    0.08463742998761545    0.08872499272266045    
  0.09285219192166395    0.09677544629488063    0.10022390005808657    0.10292700317867827    0.10465317987921594    
  0.10524681458817652    0.12860562143773985    0.12771412268375365    0.12511799192894146    0.12104043670077524    
  0.11581475291972057    0.10983248996898985    0.10348860115908712    0.09714041558916565    0.09108752266925213    
  0.0855647738656935    0.08073628320952544    0.07668843064396338    0.0734303831289553    0.07090853582389973    
  0.0690312972555432    0.06769560955037947    0.06680887086143897    0.06630287981706723    0.0661383615847074    
  0.06630287981706723    0.06680887086143893    0.06769560955037952    0.0690312972555432    0.07090853582389973    
  0.0734303831289553    0.07668843064396338    0.08073628320952544    0.0855647738656935    0.09108752266925213    
  0.09714041558916565    0.10348860115908713    0.10983248996898985    0.11581475291972057    0.12104043670077519    
  0.12511799192894146    0.12771412268375368    0.12860562143773985    0.1598327695886428    0.15853631397652473    
  0.15475518559400658    0.1487991061128867    0.14113507036677894    0.1323205803303739    0.12293073405053667    
  0.1134974217946271    0.10446862030458734    0.0961849893517968    0.08887039511982342    0.08263733794363358    
  0.07750621071859624    0.0734303831289553    0.07031905232337118    0.0680582386589119    0.06653419617328414    
  0.06565618383052399    0.06536941136585585    0.06565618383052396    0.06653419617328414    0.06805823865891196    
  0.07031905232337118    0.07343038312895525    0.07750621071859624    0.08263733794363358    0.08887039511982342    
  0.09618498935179681    0.10446862030458734    0.11349742179462707    0.12293073405053667    0.13232058033037392    
  0.14113507036677894    0.1487991061128867    0.15475518559400658    0.15853631397652473    0.1598327695886428    
  0.19960064239594646    0.19780151819119193    0.19254137008848538    0.18421744119902067    0.17344222577555168    
  0.16097096567670996    0.14761459083476183    0.13415319487958388    0.12125834128887536    0.1094329579916492    
  0.09898549907294318    0.0900498235721735    0.0826373379436336    0.07668843064396338    0.07210107513389087    
  0.06874401353148776    0.0664749387203371    0.06516876300017287    0.06474281725900208    0.06516876300017284    
  0.0664749387203371    0.06874401353148776    0.07210107513389087    0.07668843064396338    0.0826373379436336    
  0.0900498235721735    0.09898549907294318    0.1094329579916492    0.12125834128887536    0.1341531948795839    
  0.14761459083476183    0.16097096567671001    0.17344222577555168    0.18421744119902064    0.19254137008848538    
  0.19780151819119193    0.19960064239594646    0.24700688334834422    0.24469014496606484    0.23787592934908894    
  0.22697747201876475    0.21268452390565734    0.19592667627430232    0.17778732758227483    0.1593770900526486    
  0.1416894458893967    0.1254755312822841    0.11118334152245879    0.09898549907294314    0.08887039511982339    
  0.08073628320952547    0.07444321775678278    0.0698266400396435    0.06670678776163658    0.06491548029878319    
  0.06433281330733702    0.06491548029878319    0.06670678776163658    0.06982664003964353    0.07444321775678278    
  0.08073628320952543    0.08887039511982339    0.09898549907294317    0.11118334152245879    0.1254755312822841    
  0.1416894458893967    0.1593770900526486    0.17778732758227483    0.19592667627430232    0.21268452390565734    
  0.22697747201876475    0.23787592934908888    0.24469014496606478    0.24700688334834422    0.29778259106982563    
  0.2951825240005584    0.2874063401480915    0.27460963995203863    0.25726324644519855    0.236288347129261    
  0.21302457012288328    0.18902148143594397    0.16574653375832224    0.14433573732007868    0.12547553128228406    
  0.10943295799164918    0.09618498935179676    0.08556477386569353    0.07735846049692721    0.07133946608474408    
  0.06727508661890072    0.06494615505901669    0.06419005815933423    0.06494615505901667    0.06727508661890072    
  0.07133946608474412    0.07735846049692721    0.0855647738656935    0.09618498935179676    0.10943295799164915    
  0.12547553128228406    0.14433573732007868    0.16574653375832224    0.18902148143594397    0.21302457012288328    
  0.236288347129261    0.25726324644519855    0.2746096399520387    0.2874063401480915    0.29518252400055833    
  0.29778259106982563    0.3419860075219818    0.33983805045811616    0.33305936794177265    0.32091200305775663    
  0.3028973995391028    0.2793783371001815    0.25177661071762963    0.22222961083142706    0.19296061893095637    
  0.16574653375832224    0.1416894458893967    0.12125834128887536    0.1044686203045873    0.09108752266925216    
  0.08079434531164503    0.07326288760510015    0.06818334044554322    0.0652758678901146    0.06433280363504262    
  0.0652758678901146    0.06818334044554322    0.07326288760510018    0.08079434531164503    0.09108752266925213    
  0.1044686203045873    0.12125834128887539    0.1416894458893967    0.16574653375832227    0.19296061893095637    
  0.22222961083142706    0.25177661071762963    0.2793783371001815    0.3028973995391028    0.32091200305775663    
  0.33305936794177265    0.3398380504581162    0.3419860075219818    0.3638916190793874    0.3635391289832804    
  0.36146135647400635    0.35510680241854464    0.34174322051006023    0.32003235336277547    0.29090092683246643    
  0.25715477506042356    0.22222961083142703    0.18902148143594394    0.1593770900526486    0.1341531948795839    
  0.11349742179462706    0.09714041558916563    0.0846374299876154    0.0755264049623219    0.06939169342965752    
  0.06588140179693402    0.06474279807354215    0.06588140179693405    0.06939169342965752    0.07552640496232191    
  0.0846374299876154    0.0971404155891656    0.11349742179462706    0.13415319487958388    0.1593770900526486    
  0.18902148143594394    0.22222961083142703    0.25715477506042356    0.29090092683246643    0.32003235336277547    
  0.34174322051006023    0.35510680241854464    0.36146135647400635    0.3635391289832804    0.3638916190793874    
  0.34863259837066296    0.35156236617465203    0.3585305035805806    0.36462891841708905    0.36366709511155093    
  0.35096418529777235    0.32566684906990423    0.29090092683246643    0.25177661071762963    0.21302457012288323    
  0.17778732758227483    0.14761459083476175    0.12293073405053663    0.10348860115908708    0.08872499272266045    
  0.0780187727335762    0.07082378761783956    0.06670595963316209    0.06536938313428402    0.06670595963316209    
  0.07082378761783956    0.07801877273357623    0.08872499272266045    0.10348860115908706    0.1229307340505366    
  0.14761459083476175    0.17778732758227483    0.21302457012288323    0.25177661071762963    0.29090092683246643    
  0.32566684906990423    0.35096418529777235    0.36366709511155093    0.36462891841708905    0.3585305035805806    
  0.351562366174652    0.34863259837066296    0.29451015590552093    0.3013023622923213    0.319508114420613    
  0.34265778133029967    0.36108435581755943    0.36538558907057367    0.35096418529777235    0.3200323533627755    
  0.2793783371001815    0.236288347129261    0.19592667627430232    0.16097096567670996    0.1323205803303739    
  0.10983248996898985    0.09285219192166393    0.08059617531429954    0.07237524182012144    0.06766785933026104    
  0.06613832508028644    0.06766785933026105    0.07237524182012141    0.08059617531429954    0.09285219192166393    
  0.10983248996898982    0.1323205803303739    0.16097096567670996    0.19592667627430232    0.236288347129261    
  0.2793783371001815    0.3200323533627755    0.35096418529777235    0.36538558907057367    0.36108435581755943    
  0.34265778133029967    0.319508114420613    0.3013023622923213    0.29451015590552093    0.21879546361151528    
  0.2284338265353453    0.2557627150918703    0.294962536307357    0.3347792150037569    0.3610843558175594    
  0.36366709511155093    0.34174322051006023    0.3028973995391027    0.2572632464451985    0.2126845239056573    
  0.17344222577555163    0.14113507036677891    0.11581475291972063    0.09677544629488063    0.08308703803948385    
  0.07392039048136238    0.0686683734807653    0.06695997646064795    0.0686683734807653    0.07392039048136238    
  0.08308703803948386    0.09677544629488062    0.11581475291972063    0.14113507036677891    0.17344222577555163    
  0.2126845239056573    0.2572632464451985    0.3028973995391027    0.34174322051006023    0.36366709511155093    
  0.3610843558175594    0.3347792150037569    0.2949625363073569    0.2557627150918703    0.2284338265353453    
  0.21879546361151528    0.14705592714486462    0.15756355388096166    0.18885199786543846    0.2379766571299817    
  0.294962536307357    0.34265778133029967    0.36462891841708905    0.3551068024185447    0.32091200305775663    
  0.27460963995203863    0.2269774720187648    0.18421744119902067    0.1487991061128867    0.12104043670077527    
  0.10022390005808655    0.08530120017871126    0.07532079340596397    0.06959950849548727    0.06773666094009097    
  0.06959950849548725    0.07532079340596397    0.08530120017871128    0.10022390005808655    0.12104043670077527    
  0.1487991061128867    0.18421744119902067    0.2269774720187648    0.27460963995203863    0.32091200305775663    
  0.35510680241854464    0.36462891841708905    0.34265778133029967    0.294962536307357    0.2379766571299817    
  0.18885199786543846    0.15756355388096172    0.14705592714486462    0.09607821562746399    0.10592260466235083    