#     DFTpy    
  CRYSTAL 
    
  PRIMVEC    
  4.006344827586211    0.0    0.0    
  0.0    4.006344827586211    0.0    
  0.0    0.0    4.006344827586211    
  PRIMCOORD    
  2    1    
  Si    0.0    0.0    0.0    
  Si    2.0031724137931004    2.0031724137931004    2.0031724137931004    
  BEGIN_BLOCK_DATAGRID_3D    
  3d_datagrid_density    
  BEGIN_DATAGRID_3D#0    
  41    41    41    
  0.0    0.0    0.0    
  4.006344842529953    0.0    0.0    
  0.0    4.006344842529953    0.0    
  0.0    0.0    4.006344842529953    
  0.061061147223100465    0.06890337347683578    0.09448218093874519    0.1415156006561331    0.2084547476654675    
  0.2817949261236147    0.33894972070283086    0.361841828549584    0.34812262566857305    0.3092040148099782    
  0.2600419356004609    0.2115384828247446    0.1691191090126494    0.13447814712713269    0.10742044529886438    
  0.08696818635724722    0.07196583331718845    0.06138867345897227    0.05443526580022596    0.050516504600269845    
  0.04925460073591289    0.05051650460026986    0.054435265800225945    0.06138867345897224    0.07196583331718845    
  0.08696818635724718    0.10742044529886438    0.13447814712713269    0.16911910901264937    0.21153848282474466    
  0.2600419356004609    0.3092040148099782    0.34812262566857305    0.36184182854958397    0.3389497207028309    
  0.2817949261236147    0.2084547476654675    0.14151560065613314    0.09448218093874522    0.06890337347683581    
  0.061061147223100465    0.06890337347683581    0.07711373514461255    0.10355780932617915    0.15121731477468345    
  0.2175526026756397    0.28857841164894876    0.3423450204817302    0.3620914496776843    0.34640613784788166    
  0.3067706074681433    0.257687099832934    0.2095909735163982    0.16763636969495951    0.13340674125804466    
  0.10667492664107604    0.0864635099490144    0.07163039809189857    0.061167092785705514    0.05428559719971326    
  0.05040618269975689    0.04915674078512406    0.05040618269975692    0.05428559719971324    0.0611670927857055    
  0.07163039809189857    0.08646350994901437    0.10667492664107604    0.13340674125804466    0.1676363696949595    
  0.2095909735163982    0.257687099832934    0.3067706074681432    0.34640613784788166    0.3620914496776843    
  0.3423450204817302    0.28857841164894876    0.2175526026756397    0.15121731477468348    0.10355780932617921    
  0.07711373514461252    0.06890337347683581    0.0944821809387452    0.10355780932617913    0.13185722476456044    
  0.180236957393239    0.24359044207331682    0.30704907270129733    0.35079406283783016    0.36171730792784623    
  0.3407578446926162    0.29936301052925446    0.25068328171514875    0.20385277228491178    0.1632870072098684    
  0.1302714562022551    0.10449584369834593    0.08498903282968984    0.07065089854944218    0.06052111616415301    
  0.05385072209873621    0.05008698485854672    0.048874204216269625    0.05008698485854674    0.05385072209873619    
  0.060521116164153003    0.07065089854944218    0.08498903282968981    0.10449584369834591    0.13027145620225514    
  0.16328700720986836    0.20385277228491178    0.25068328171514875    0.29936301052925446    0.3407578446926162    
  0.36171730792784623    0.35079406283783016    0.30704907270129733    0.24359044207331682    0.180236957393239    
  0.13185722476456044    0.10355780932617915    0.0944821809387452    0.14151560065613314    0.15121731477468345    
  0.18023695739323897    0.22644577945145566    0.28182469926489573    0.331509799192181    0.35954920367674414    
  0.3578710707197194    0.3300284760596426    0.28682707420687226    0.23927431825013934    0.19465097033381118    
  0.15636312917137626    0.12529857269835348    0.10104483694200024    0.08265483549316321    0.06910170512623219    
  0.059502809283854124    0.05316978513053595    0.04959138559139772    0.04843740080523912    0.04959138559139773    
  0.05316978513053595    0.05950280928385411    0.06910170512623219    0.08265483549316324    0.10104483694200023    
  0.12529857269835348    0.15636312917137626    0.19465097033381118    0.23927431825013928    0.28682707420687226    
  0.3300284760596426    0.35787107071971946    0.35954920367674414    0.331509799192181    0.28182469926489573    
  0.22644577945145572    0.18023695739323897    0.15121731477468345    0.14151560065613314    0.2084547476654675    
  0.2175526026756397    0.2435904420733169    0.2818246992648958    0.3226503805568683    0.3531161595606383    
  0.3623953125052907    0.3473607805714162    0.3132474008888007    0.2693310224780287    0.2240086138846922    
  0.18255383964454047    0.14733197583991892    0.11883392405655244    0.0965618862850633    0.07962198550191375    
  0.06709136039428146    0.05818828659559785    0.05229988204601785    0.04896645633497323    0.04789025675442468    
  0.048966456334973235    0.052299882046017813    0.05818828659559785    0.06709136039428146    0.07962198550191374    
  0.0965618862850633    0.11883392405655244    0.14733197583991892    0.18255383964454047    0.2240086138846922    
  0.2693310224780287    0.3132474008888007    0.3473607805714161    0.3623953125052907    0.35311615956063824    
  0.32265038055686823    0.2818246992648958    0.2435904420733169    0.2175526026756397    0.2084547476654675    
  0.2817949261236147    0.2885784116489487    0.30704907270129733    0.331509799192181    0.35311615956063824    
  0.36256654943651856    0.3541531079605155    0.3282816304635308    0.29041090274797776    0.2476414491852263    
  0.2057894815707102    0.16834616009413078    0.13679472172421528    0.11130499503102759    0.09133695166145321    
  0.07608384895251814    0.06475078888734878    0.05666976486032179    0.05130995238769052    0.04826858172081043    
  0.04728517664311968    0.04826858172081046    0.05130995238769052    0.05666976486032179    0.06475078888734878    
  0.07608384895251813    0.09133695166145323    0.11130499503102759    0.13679472172421525    0.16834616009413075    
  0.20578948157071017    0.24764144918522635    0.29041090274797776    0.3282816304635308    0.3541531079605155    
  0.3625665494365185    0.35311615956063824    0.331509799192181    0.3070490727012973    0.28857841164894876    
  0.2817949261236147    0.33894972070283086    0.3423450204817302    0.3507940628378301    0.3595492036767441    
  0.36239531250529067    0.3541531079605155    0.3329883874009381    0.3009922442058746    0.2627366713678761    
  0.22309661986295468    0.18577972951287547    0.15293857185309762    0.12541851161815656    0.10317667582671318    
  0.0856847532434323    0.07225304549886132    0.06222629706611497    0.05505088612669035    0.05027691491564035    
  0.047559971365492    0.04667969207820693    0.047559971365492    0.05027691491564032    0.05505088612669035    
  0.06222629706611497    0.0722530454988613    0.08568475324343232    0.10317667582671318    0.1254185116181565    
  0.15293857185309764    0.18577972951287547    0.22309661986295468    0.2627366713678761    0.3009922442058746    
  0.3329883874009381    0.3541531079605155    0.3623953125052907    0.35954920367674414    0.3507940628378301    
  0.3423450204817302    0.33894972070283086    0.361841828549584    0.36209144967768425    0.36171730792784623    
  0.35787107071971946    0.3473607805714161    0.3282816304635308    0.30099224420587456    0.26788807976824397    
  0.23229401309238387    0.1973151292848308    0.16520377600790132    0.13723576185836397    0.11385164584869194    
  0.09490135772658519    0.0799183149950968    0.06834788426680814    0.05967167680317189    0.05344100758178602    
  0.04928096011618734    0.04690454162567451    0.04613255825973008    0.0469045416256745    0.049280960116187336    
  0.05344100758178602    0.05967167680317189    0.06834788426680811    0.0799183149950968    0.09490135772658519    
  0.11385164584869191    0.13723576185836397    0.16520377600790132    0.19731512928483083    0.23229401309238387    
  0.26788807976824397    0.3009922442058746    0.3282816304635308    0.3473607805714161    0.35787107071971946    
  0.36171730792784623    0.36209144967768425    0.361841828549584    0.34812262566857305    0.34640613784788166    
  0.3407578446926162    0.3300284760596426    0.3132474008888007    0.29041090274797776    0.26273667136787604    
  0.23229401309238387    0.20135117777035957    0.17184898453835903    0.14515332879706633    0.12201486075397196    
  0.10264476808568633    0.08686923591975382    0.07431755628184068    0.06457106845744272    0.05723267182694641    
  0.051943698826548056    0.04839708887115675    0.04636137049567452    0.04569785464600077    0.046361370495674514    
  0.048397088871156714    0.05194369882654807    0.05723267182694641    0.06457106845744269    0.0743175562818407    
  0.08686923591975382    0.10264476808568632    0.12201486075397196    0.14515332879706633    0.17184898453835903    
  0.20135117777035957    0.23229401309238393    0.2627366713678761    0.29041090274797776    0.3132474008888007    
  0.33002847605964264    0.3407578446926162    0.34640613784788166    0.34812262566857305    0.3092040148099783    
  0.30677060746814333    0.29936301052925446    0.28682707420687226    0.2693310224780287    0.2476414491852263    
  0.22309661986295462    0.19731512928483083    0.171848984538359    0.14794917134404123    0.1264683235231855    
  0.10785368528276658    0.09220330510100351    0.07937356721278359    0.0691003906855783    0.061084332831805546    
  0.055025986537116774    0.050641120946288656    0.04768439065843308    0.0459771630106252    0.04541851890896082    
  0.04597716301062519    0.04768439065843306    0.05064112094628865    0.055025986537116774    0.06108433283180552    
  0.06910039068557831    0.07937356721278359    0.0922033051010035    0.1078536852827666    0.12646832352318552    
  0.14794917134404126    0.171848984538359    0.19731512928483086    0.22309661986295468    0.2476414491852263    
  0.2693310224780287    0.2868270742068723    0.29936301052925446    0.30677060746814333    0.3092040148099783    
  0.260041935600461    0.257687099832934    0.25068328171514875    0.23927431825013934    0.2240086138846922    
  0.20578948157071025    0.18577972951287547    0.1652037760079013    0.14515332879706633    0.12646832352318552    
  0.10969796122672969    0.09511766997879303    0.08278319904248464    0.07260401285081436    0.06440995911254252    
  0.05799216801618408    0.053123954396608164    0.04958232759039417    0.04717812643695431    0.04578078827587551    
  0.045321687943197735    0.04578078827587549    0.0471781264369543    0.04958232759039418    0.053123954396608164    
  0.05799216801618406    0.06440995911254252    0.07260401285081437    0.08278319904248461    0.09511766997879305    
  0.10969796122672971    0.12646832352318554    0.14515332879706633    0.16520377600790132    0.18577972951287547    
  0.20578948157071025    0.2240086138846922    0.2392743182501394    0.25068328171514875    0.257687099832934    
  0.260041935600461    0.21153848282474466    0.20959097351639822    0.2038527722849118    0.1946509703338112    
  0.18255383964454047    0.16834616009413078    0.15293857185309764    0.13723576185836397    0.12201486075397194    
  0.10785368528276658    0.095117669978793    0.08398994803283817    0.07451950563405192    0.06666486249877744    
  0.06032236827480819    0.055343545481350696    0.05155423355339209    0.04878252658733942    0.0468885520156794    
  0.04578147208423416    0.04541658072878342    0.04578147208423411    0.04688855201567939    0.048782526587339455    
  0.05155423355339209    0.05534354548135068    0.0603223682748082    0.06666486249877746    0.07451950563405191    
  0.08398994803283814    0.09511766997879299    0.1078536852827666    0.12201486075397194    0.13723576185836397    
  0.15293857185309767    0.1683461600941308    0.18255383964454047    0.19465097033381124    0.20385277228491178    
  0.20959097351639822    0.21153848282474466    0.1691191090126494    0.16763636969495954    0.16328700720986844    
  0.15636312917137632    0.14733197583991894    0.1367947217242153    0.1254185116181566    0.11385164584869195    
  0.10264476808568634    0.09220330510100351    0.08278319904248467    0.07451950563405196    0.06746227720405491    
  0.061599184110059976    0.056864218855421644    0.05314681648543913    0.05031260536062212    0.048232327305755    
  0.04680563701591611    0.04596975658561104    0.045694013845418616    0.045969756585611    0.04680563701591616    
  0.048232327305755    0.05031260536062212    0.05314681648543916    0.05686421885542164    0.06159918411005994    
  0.0674622772040549    0.07451950563405196    0.08278319904248468    0.09220330510100352    0.10264476808568634    
  0.11385164584869198    0.1254185116181566    0.1367947217242153    0.14733197583991894    0.15636312917137635    
  0.16328700720986844    0.16763636969495954    0.1691191090126494    0.13447814712713269    0.13340674125804466    
  0.1302714562022551    0.12529857269835346    0.11883392405655244    0.11130499503102753    0.10317667582671318    
  0.09490135772658519    0.08686923591975385    0.07937356721278362    0.07260401285081435    0.0666648624987774    
  0.06159918411005989    0.057402325826626084    0.054025800375448595    0.05138489724046661    0.04937768733821332    
  0.04790871052271248    0.04690498201740241    0.04631944613797765    0.04612688778515045    0.04631944613797765    
  0.04690498201740241    0.0479087105227125    0.04937768733821332    0.05138489724046663    0.05402580037544861    
  0.057402325826626084    0.06159918411005989    0.06666486249877746    0.07260401285081433    0.07937356721278363    
  0.08686923591975385    0.0949013577265852    0.10317667582671321    0.11130499503102753    0.11883392405655246    
  0.12529857269835346    0.13027145620225514    0.13340674125804464    0.13447814712713269    0.10742044529886441    
  0.10667492664107601    0.1044958436983459    0.10104483694200021    0.09656188628506325    0.09133695166145324    
  0.08568475324343233    0.07991831499509679    0.07431755628184068    0.0691003906855783    0.06440995911254252    
  0.06032236827480819    0.056864218855421575    0.05402580037544862    0.05176689618504023    0.05002301848348422    
  0.0487181173793576    0.04778006112811768    0.047150956752412265    0.046789893842713856    0.046672305173776844    
  0.04678989384271383    0.04715095675241224    0.04778006112811766    0.0487181173793576    0.05002301848348422    
  0.051766896185040254    0.05402580037544862    0.05686421885542159    0.06032236827480819    0.0644099591125425    
  0.06910039068557833    0.07431755628184068    0.0799183149950968    0.08568475324343233    0.0913369516614532    
  0.09656188628506324    0.10104483694200028    0.10449584369834587    0.10667492664107601    0.10742044529886441    
  0.08696818635724717    0.0864635099490144    0.08498903282968978    0.08265483549316317    0.07962198550191377    
  0.07608384895251809    0.07225304549886129    0.06834788426680811    0.06457106845744272    0.061084332831805546    
  0.057992168016184044    0.0553435454813507    0.053146816485439126    0.05138489724046661    0.05002301848348417    
  0.04901184483334275    0.04829250910391938    0.04780517296029891    0.04749742444515534    0.04732940487413897    
  0.0472762297643881    0.04732940487413894    0.04749742444515529    0.04780517296029891    0.04829250910391938    
  0.04901184483334277    0.05002301848348417    0.05138489724046661    0.053146816485439126    0.05534354548135068    
  0.05799216801618403    0.06108433283180555    0.06457106845744272    0.06834788426680813    0.07225304549886129    
  0.07608384895251807    0.07962198550191377    0.08265483549316321    0.08498903282968977    0.08646350994901442    
  0.08696818635724717    0.07196583331718848    0.07163039809189857    0.07065089854944218    0.06910170512623214    
  0.0670913603942814    0.06475078888734875    0.06222629706611497    0.05967167680317187    0.05723267182694641    
  0.05502598653711676    0.05312395439660815    0.05155423355339207    0.050312605360622    0.04937768733821332    
  0.04871811737935758    0.04829250910391938    0.04804941799640646    0.04793253498654679    0.04788962688210639    
  0.047880321737728576    0.047879951310176964    0.047880321737728555    0.04788962688210639    0.04793253498654677    
  0.04804941799640646    0.04829250910391938    0.04871811737935758    0.04937768733821332    0.05031260536062203    
  0.05155423355339207    0.053123954396608115    0.05502598653711681    0.05723267182694641    0.05967167680317189    
  0.062226297066114995    0.06475078888734875    0.0670913603942814    0.06910170512623216    0.07065089854944218    
  0.07163039809189858    0.07196583331718848    0.06138867345897224    0.06116709278570549    0.060521116164152976    
  0.0595028092838541    0.05818828659559783    0.05666976486032178    0.05505088612669035    0.05344100758178599    
  0.05194369882654807    0.050641120946288656    0.04958232759039417    0.048782526587339434    0.048232327305754955    
  0.04790871052271248    0.04778006112811766    0.04780517296029889    0.04793253498654681    0.048105117811146285    
  0.04826960182017743    0.048384845159610335    0.04842598245119415    0.04838484515961031    0.04826960182017739    
  0.048105117811146285    0.04793253498654681    0.04780517296029887    0.04778006112811766    0.04790871052271248    
  0.04823232730575498    0.04878252658733942    0.04958232759039418    0.05064112094628867    0.05194369882654807    
  0.053441007581786035    0.05505088612669037    0.056669764860321756    0.058188286595597834    0.05950280928385416    
  0.060521116164152955    0.06116709278570549    0.06138867345897224    0.054435265800225924    0.05428559719971322    
  0.05385072209873613    0.0531697851305359    0.05229988204601777    0.05130995238769052    0.050276914915640285    
  0.04928096011618727    0.0483970888711567    0.04768439065843303    0.04717812643695427    0.04688855201567941    
  0.04680563701591609    0.04690498201740241    0.04715095675241224    0.04749742444515534    0.04788962688210639    
  0.04826960182017736    0.048583847675512895    0.04879016908879018    0.0488619585703975    0.04879016908879013    
  0.048583847675512846    0.04826960182017736    0.04788962688210639    0.04749742444515532    0.04715095675241224    
  0.04690498201740238    0.04680563701591611    0.0468885520156794    0.047178126436954286    0.047684390658433044    
  0.0483970888711567    0.04928096011618728    0.05027691491564031    0.05130995238769048    0.05229988204601777    
  0.05316978513053593    0.05385072209873613    0.05428559719971322    0.054435265800225924    0.05051650460026983    
  0.05040618269975694    0.05008698485854674    0.04959138559139771    0.04896645633497318    0.04826858172081045    
  0.04755997136549204    0.04690454162567447    0.046361370495674535    0.04597716301062514    0.04578078827587553    
  0.04578147208423411    0.045969756585611    0.04631944613797767    0.04678989384271388    0.04732940487413899    
  0.047880321737728576    0.048384845159610335    0.048790169088790206    0.049052934582109305    0.04914398520158894    
  0.049052934582109305    0.04879016908879016    0.048384845159610335    0.047880321737728576    0.04732940487413897    
  0.04678989384271388    0.04631944613797767    0.04596975658561097    0.04578147208423411    0.04578078827587551    
  0.04597716301062516    0.046361370495674535    0.0469045416256745    0.04755997136549204    0.04826858172081042    
  0.04896645633497321    0.04959138559139774    0.05008698485854674    0.05040618269975695    0.05051650460026983    
  0.04925460073591295    0.049156740785124074    0.04887420421626964    0.04843740080523912    0.047890256754424675    
  0.0472851766431197    0.04667969207820695    0.046132558259730075    0.04569785464600081    0.04541851890896085    
  0.0453216879431977    0.04541658072878339    0.045694013845418616    0.04612688778515047    0.046672305173776886    
  0.04727622976438807    0.04787995131017701    0.04842598245119417    0.048861958570397594    0.04914398520158899    
  0.049241672854905445    0.04914398520158897    0.048861958570397546    0.04842598245119417    0.04787995131017701    
  0.0472762297643881    0.046672305173776886    0.04612688778515047    0.045694013845418664    0.04541658072878339    
  0.04532168794319772    0.045418518908960835    0.04569785464600081    0.04613255825973008    0.04667969207820695    
  0.047285176643119695    0.0478902567544247    0.048437400805239145    0.048874204216269646    0.04915674078512406    
  0.04925460073591295    0.050516504600269845    0.050406182699756975    0.05008698485854676    0.04959138559139773    
  0.04896645633497322    0.04826858172081046    0.047559971365492046    0.04690454162567448    0.04636137049567451    
  0.04597716301062519    0.045780788275875534    0.04578147208423414    0.045969756585611    0.04631944613797767    
  0.046789893842713856    0.04732940487413904    0.047880321737728576    0.048384845159610265    0.048790169088790206    
  0.049052934582109325    0.04914398520158889    0.04905293458210928    0.048790169088790206    0.048384845159610265    
  0.047880321737728576    0.04732940487413901    0.04678989384271388    0.04631944613797767    0.045969756585611    
  0.04578147208423414    0.045780788275875534    0.04597716301062519    0.04636137049567451    0.04690454162567451    
  0.04755997136549204    0.04826858172081044    0.048966456334973235    0.04959138559139773    0.050086984858546776    
  0.050406182699756934    0.050516504600269845    0.054435265800225924    0.05428559719971325    0.05385072209873611    
  0.05316978513053593    0.05229988204601781    0.051309952387690476    0.05027691491564029    0.049280960116187274    
  0.0483970888711567    0.04768439065843301    0.047178126436954265    0.04688855201567941    0.04680563701591609    
  0.04690498201740243    0.04715095675241224    0.04749742444515536    0.04788962688210642    0.04826960182017739    
  0.048583847675512944    0.048790169088790226    0.0488619585703975    0.04879016908879018    0.048583847675512895    
  0.04826960182017739    0.04788962688210642    0.04749742444515536    0.04715095675241224    0.04690498201740243    
  0.04680563701591611    0.0468885520156794    0.047178126436954265    0.04768439065843306    0.0483970888711567    
  0.049280960116187295    0.0502769149156403    0.051309952387690476    0.0522998820460178    0.05316978513053595    
  0.05385072209873614    0.05428559719971326    0.054435265800225924    0.06138867345897224    0.0611670927857055    
  0.060521116164153003    0.0595028092838541    0.05818828659559783    0.05666976486032178    0.05505088612669035    
  0.05344100758178599    0.051943698826548056    0.0506411209462886    0.04958232759039419    0.048782526587339455    
  0.04823232730575498    0.047908710522712526    0.04778006112811764    0.04780517296029887    0.04793253498654679    
  0.048105117811146306    0.04826960182017743    0.04838484515961031    0.04842598245119412    0.04838484515961031    
  0.04826960182017736    0.04810511781114633    0.04793253498654679    0.04780517296029891    0.04778006112811766    
  0.047908710522712526    0.048232327305755    0.04878252658733945    0.04958232759039417    0.05064112094628862    
  0.051943698826548056    0.05344100758178602    0.05505088612669034    0.05666976486032177    0.058188286595597834    
  0.059502809283854145    0.060521116164152976    0.061167092785705514    0.06138867345897224    0.07196583331718848    
  0.07163039809189857    0.07065089854944218    0.06910170512623214    0.0670913603942814    0.06475078888734875    
  0.06222629706611497    0.05967167680317187    0.05723267182694641    0.05502598653711676    0.05312395439660815    
  0.05155423355339207    0.050312605360622    0.04937768733821332    0.04871811737935758    0.04829250910391938    
  0.04804941799640646    0.04793253498654679    0.04788962688210639    0.047880321737728576    0.047879951310176964    
  0.047880321737728555    0.04788962688210639    0.04793253498654677    0.04804941799640646    0.04829250910391938    
  0.04871811737935758    0.04937768733821332    0.05031260536062203    0.05155423355339207    0.053123954396608115    
  0.05502598653711681    0.05723267182694641    0.05967167680317189    0.062226297066114995    0.06475078888734875    
  0.0670913603942814    0.06910170512623216    0.07065089854944218    0.07163039809189858    0.07196583331718848    
  0.08696818635724719    0.08646350994901437    0.08498903282968977    0.08265483549316317    0.07962198550191374    
  0.07608384895251809    0.07225304549886129    0.0683478842668081    0.06457106845744269    0.061084332831805546    
  0.05799216801618403    0.05534354548135066    0.0531468164854391    0.05138489724046661    0.05002301848348417    
  0.04901184483334277    0.048292509103919426    0.04780517296029891    0.04749742444515536    0.04732940487413892    
  0.04727622976438812    0.04732940487413897    0.04749742444515534    0.04780517296029891    0.048292509103919426    
  0.04901184483334275    0.05002301848348417    0.05138489724046661    0.053146816485439126    0.05534354548135066    
  0.057992168016184016    0.06108433283180559    0.06457106845744269    0.06834788426680814    0.07225304549886129    
  0.07608384895251807    0.07962198550191373    0.0826548354931632    0.08498903282968974    0.08646350994901439    
  0.08696818635724719    0.10742044529886438    0.10667492664107599    0.10449584369834589    0.1010448369420002    
  0.09656188628506324    0.09133695166145327    0.0856847532434323    0.07991831499509679    0.07431755628184065    
  0.06910039068557831    0.06440995911254252    0.06032236827480819    0.056864218855421624    0.05402580037544862    
  0.051766896185040254    0.05002301848348424    0.04871811737935755    0.04778006112811768    0.04715095675241231    
  0.04678989384271388    0.046672305173776865    0.046789893842713856    0.04715095675241224    0.04778006112811766    
  0.04871811737935755    0.05002301848348422    0.051766896185040254    0.05402580037544864    0.056864218855421624    
  0.06032236827480819    0.06440995911254252    0.06910039068557834    0.07431755628184065    0.07991831499509677    
  0.0856847532434323    0.0913369516614532    0.09656188628506324    0.10104483694200023    0.10449584369834589    
  0.10667492664107599    0.10742044529886438    0.13447814712713269    0.1334067412580446    0.13027145620225514    
  0.12529857269835346    0.11883392405655242    0.11130499503102753    0.10317667582671321    0.09490135772658519    
  0.08686923591975383    0.07937356721278357    0.07260401285081435    0.0666648624987774    0.06159918411005992    
  0.057402325826626084    0.054025800375448595    0.05138489724046661    0.04937768733821332    0.0479087105227125    
  0.04690498201740241    0.04631944613797765    0.04612688778515042    0.04631944613797763    0.04690498201740238    
  0.0479087105227125    0.04937768733821332    0.05138489724046661    0.054025800375448595    0.057402325826626084    
  0.06159918411005989    0.0666648624987774    0.07260401285081432    0.07937356721278359    0.08686923591975383    
  0.0949013577265852    0.10317667582671321    0.11130499503102753    0.11883392405655242    0.12529857269835348    
  0.1302714562022551    0.13340674125804466    0.13447814712713269    0.16911910901264943    0.1676363696949595    
  0.16328700720986844    0.15636312917137632    0.14733197583991892    0.1367947217242153    0.1254185116181566    
  0.11385164584869194    0.10264476808568637    0.09220330510100351    0.08278319904248464    0.07451950563405195    
  0.06746227720405487    0.06159918411005996    0.05686421885542166    0.05314681648543916    0.05031260536062205    
  0.04823232730575503    0.04680563701591618    0.04596975658561107    0.045694013845418616    0.04596975658561104    
  0.04680563701591616    0.04823232730575503    0.05031260536062205    0.05314681648543915    0.05686421885542166    
  0.06159918411005996    0.06746227720405489    0.07451950563405196    0.08278319904248464    0.09220330510100352    
  0.10264476808568637    0.11385164584869195    0.1254185116181566    0.1367947217242153    0.14733197583991892    
  0.15636312917137632    0.16328700720986844    0.1676363696949595    0.16911910901264943    0.21153848282474466    
  0.20959097351639822    0.2038527722849118    0.1946509703338112    0.18255383964454047    0.1683461600941308    
  0.15293857185309767    0.137235761858364    0.12201486075397194    0.10785368528276663    0.09511766997879302    
  0.08398994803283817    0.07451950563405191    0.06666486249877746    0.06032236827480821    0.05534354548135072    
  0.05155423355339211    0.048782526587339434    0.04688855201567942    0.04578147208423416    0.04541658072878342    
  0.04578147208423416    0.04688855201567939    0.048782526587339434    0.05155423355339211    0.055343545481350696    
  0.060322368274808226    0.06666486249877746    0.07451950563405192    0.08398994803283813    0.09511766997879302    
  0.10785368528276663    0.12201486075397194    0.137235761858364    0.15293857185309767    0.1683461600941308    
  0.1825538396445405    0.19465097033381126    0.2038527722849118    0.2095909735163982    0.21153848282474466    
  0.26004193560046096    0.257687099832934    0.25068328171514875    0.23927431825013934    0.2240086138846922    
  0.20578948157071017    0.1857797295128755    0.16520377600790132    0.14515332879706633    0.12646832352318552    
  0.10969796122672967    0.09511766997879305    0.08278319904248467    0.07260401285081432    0.06440995911254252    
  0.05799216801618408    0.05312395439660818    0.0495823275903942    0.04717812643695431    0.04578078827587551    