#     DFTpy    
  CRYSTAL 
    
  PRIMVEC    
  3.430965517241381    0.0    0.0    
  0.0    3.430965517241381    0.0    
  0.0    0.0    3.430965517241381    
  PRIMCOORD    
  2    1    
  Si    0.0    0.0    0.0    
  Si    1.7154827586206904    1.7154827586206904    1.7154827586206904    
  BEGIN_BLOCK_DATAGRID_3D    
  3d_datagrid_density    
  BEGIN_DATAGRID_3D#0    
  33    33    33    
  0.0    0.0    0.0    
  3.4309655300389474    0.0    0.0    
  0.0    3.4309655300389474    0.0    
  0.0    0.0    3.4309655300389474    
  0.05785797203228641    0.06666011764409616    0.09577093459649702    0.1497389422274097    0.22511910928677983    
  0.30267379927884985    0.35500991072636406    0.36602136939924135    0.3404405875795904    0.2951264849199568    
  0.24582097703925132    0.20156672077596155    0.16585614714731858    0.13924292478478384    0.12110372582418727    
  0.11060359636215597    0.10716715435264679    0.11060359636215597    0.12110372582418727    0.13924292478478384    
  0.16585614714731858    0.20156672077596155    0.24582097703925132    0.2951264849199568    0.3404405875795904    
  0.36602136939924135    0.35500991072636406    0.30267379927884985    0.22511910928677983    0.1497389422274097    
  0.09577093459649702    0.06666011764409616    0.05785797203228641    0.06666011764409617    0.07596108276967657    
  0.10622254278484729    0.16093000872223298    0.23530339594388422    0.30972173731898284    0.35800304453019033    
  0.36577636497493005    0.33857417851967714    0.29294576511133796    0.24396634713275103    0.20020606702452196    
  0.16494613864944477    0.1386744298821831    0.1207608932845938    0.1103850411158135    0.10698779450448483    
  0.1103850411158135    0.1207608932845938    0.1386744298821831    0.16494613864944477    0.20020606702452196    
  0.24396634713275103    0.29294576511133796    0.33857417851967714    0.36577636497493005    0.35800304453019033    
  0.30972173731898284    0.23530339594388422    0.16093000872223298    0.10622254278484729    0.07596108276967657    
  0.06666011764409617    0.09577093459649702    0.10622254278484722    0.13886168213714223    0.1941495121764534    
  0.2639951982966709    0.3284317301191408    0.36501370816592216    0.3639582028422543    0.33259042610678474    
  0.2863635718547529    0.23847066690297383    0.19620408585680194    0.16228273347273775    0.13702078446869823    
  0.11977402627507636    0.10976584475781483    0.10648473241041435    0.10976584475781483    0.11977402627507636    
  0.13702078446869823    0.16228273347273775    0.19620408585680194    0.23847066690297383    0.2863635718547529    
  0.33259042610678474    0.3639582028422543    0.36501370816592216    0.3284317301191408    0.2639951982966709    
  0.1941495121764534    0.13886168213714223    0.10622254278484722    0.09577093459649702    0.14973894222740966    
  0.16093000872223304    0.1941495121764534    0.24581913267738958    0.30454090166902714    0.35170363995535664    
  0.37085731802630506    0.3579323809431189    0.3216654920897124    0.27539079483222206    0.22958086766423505    
  0.18981002537196354    0.15806097800673716    0.13442521069452895    0.11825193945161877    0.10883779208000857    
  0.10574501015805464    0.10883779208000857    0.11825193945161877    0.13442521069452895    0.15806097800673716    
  0.18981002537196354    0.22958086766423505    0.27539079483222206    0.3216654920897124    0.3579323809431189    
  0.37085731802630506    0.35170363995535664    0.30454090166902714    0.24581913267738958    0.1941495121764534    
  0.16093000872223304    0.14973894222740966    0.22511910928677975    0.23530339594388427    0.26399519829667095    
  0.30454090166902714    0.3445632427426178    0.3693421644360333    0.3692900979832517    0.34504202871114825    
  0.30527760367636153    0.2603581720536322    0.21779898900038877    0.18145414087004152    0.15259175765186    
  0.13109800864374266    0.116340575012329    0.1077154113275266    0.1048744092963324    0.1077154113275266    
  0.116340575012329    0.13109800864374266    0.15259175765186    0.18145414087004152    0.21779898900038877    
  0.2603581720536322    0.30527760367636153    0.34504202871114825    0.3692900979832517    0.3693421644360333    
  0.3445632427426178    0.30454090166902714    0.26399519829667095    0.23530339594388427    0.22511910928677975    
  0.30267379927884985    0.30972173731898284    0.3284317301191408    0.3517036399553566    0.3693421644360332    
  0.37204513951358925    0.35597480202421844    0.3241791182607736    0.2838135810376176    0.24207616752734487    
  0.20389512810851226    0.17172734150080093    0.14627922977235172    0.12729797661494102    0.11420771721186712    
  0.10652181298923699    0.10398336266371988    0.10652181298923699    0.11420771721186712    0.12729797661494102    
  0.14627922977235172    0.17172734150080093    0.20389512810851226    0.24207616752734487    0.2838135810376176    
  0.3241791182607736    0.35597480202421844    0.37204513951358925    0.3693421644360332    0.3517036399553566    
  0.3284317301191408    0.30972173731898284    0.30267379927884985    0.355009910726364    0.35800304453019033    
  0.36501370816592216    0.37085731802630506    0.3692900979832517    0.35597480202421844    0.3305591636806979    
  0.29643394584211064    0.2586454758195114    0.22175655822687546    0.18881406437860945    0.16130888768756518    
  0.13957744481500972    0.12331488956601203    0.11204206532225869    0.10539502676297327    0.10319499427561492    
  0.10539502676297327    0.11204206532225869    0.12331488956601203    0.13957744481500972    0.16130888768756518    
  0.18881406437860945    0.22175655822687546    0.2586454758195114    0.29643394584211064    0.3305591636806979    
  0.35597480202421844    0.3692900979832517    0.37085731802630506    0.36501370816592216    0.35800304453019033    
  0.355009910726364    0.3660213693992413    0.36577636497493005    0.3639582028422544    0.35793238094311886    
  0.3450420287111483    0.32417911826077356    0.2964339458421106    0.2645420255471193    0.23173343437370986    
  0.20077597538597008    0.1735221626650263    0.15086071947917667    0.13292415637291113    0.11943572180922542    
  0.11004015618838488    0.1044846208835154    0.1026443111773265    0.1044846208835154    0.11004015618838488    
  0.11943572180922542    0.13292415637291113    0.15086071947917667    0.1735221626650263    0.20077597538597008    
  0.23173343437370986    0.2645420255471193    0.2964339458421106    0.32417911826077356    0.3450420287111483    
  0.35793238094311886    0.3639582028422544    0.36577636497493005    0.3660213693992413    0.34044058757959045    
  0.33857417851967714    0.33259042610678474    0.3216654920897124    0.3052776036763616    0.28381358103761756    
  0.2586454758195114    0.23173343437370986    0.2051003002995045    0.1804343651105685    0.15886936873466453    
  0.14093382248334996    0.1266753854575979    0.11589738592867387    0.10836858003337688    0.1039179567030052    
  0.10244556465743569    0.1039179567030052    0.10836858003337688    0.11589738592867387    0.1266753854575979    
  0.14093382248334996    0.15886936873466453    0.1804343651105685    0.2051003002995045    0.23173343437370986    
  0.2586454758195114    0.28381358103761756    0.3052776036763616    0.3216654920897124    0.33259042610678474    
  0.33857417851967714    0.34044058757959045    0.2951264849199568    0.29294576511133796    0.28636357185475286    
  0.27539079483222206    0.2603581720536322    0.2420761675273449    0.2217565582268754    0.20077597538597008    
  0.18043436511056848    0.16177977746499217    0.1455033163903926    0.1319232336332176    0.12107484459054324    
  0.11285396966379313    0.10712354114689854    0.10375415114777321    0.10264444586601862    0.10375415114777321    
  0.10712354114689854    0.11285396966379313    0.12107484459054324    0.1319232336332176    0.1455033163903926    
  0.16177977746499217    0.18043436511056848    0.20077597538597008    0.2217565582268754    0.2420761675273449    
  0.2603581720536322    0.27539079483222206    0.28636357185475286    0.29294576511133796    0.2951264849199568    
  0.24582097703925132    0.2439663471327511    0.23847066690297383    0.22958086766423505    0.21779898900038883    
  0.20389512810851224    0.1888140643786094    0.17352216266502626    0.15886936873466453    0.1455033163903925    
  0.13383814795591562    0.12407603033535791    0.11626840363842508    0.11037930951226421    0.10631923472412944    
  0.10396383168341564    0.10319525927444524    0.10396383168341564    0.10631923472412944    0.11037930951226421    
  0.11626840363842508    0.12407603033535791    0.13383814795591562    0.1455033163903925    0.15886936873466453    
  0.17352216266502626    0.1888140643786094    0.20389512810851224    0.21779898900038883    0.22958086766423505    
  0.23847066690297383    0.2439663471327511    0.24582097703925132    0.2015667207759615    0.20020606702452193    
  0.1962040858568019    0.18981002537196356    0.18145414087004147    0.1717273415008009    0.16130888768756524    
  0.15086071947917662    0.1409338224833499    0.13192323363321756    0.12407603033535791    0.11752822567268456    
  0.11233747471173343    0.10849240608618327    0.10590956271837892    0.10445122122697419    0.10398374988862617    
  0.10445122122697419    0.10590956271837892    0.10849240608618327    0.11233747471173343    0.11752822567268456    
  0.12407603033535791    0.13192323363321756    0.1409338224833499    0.15086071947917662    0.16130888768756524    
  0.1717273415008009    0.18145414087004147    0.18981002537196356    0.1962040858568019    0.20020606702452193    
  0.2015667207759615    0.16585614714731856    0.1649461386494448    0.16228273347273778    0.1580609780067371    
  0.15259175765186003    0.14627922977235172    0.13957744481500975    0.1329241563729111    0.12667538545759793    
  0.12107484459054324    0.11626840363842512    0.11233747471173343    0.10931499195089908    0.10717438759586706    
  0.1058176307336932    0.10509666495421148    0.10487490671983589    0.10509666495421148    0.1058176307336932    
  0.10717438759586706    0.10931499195089908    0.11233747471173343    0.11626840363842512    0.12107484459054324    
  0.12667538545759793    0.1329241563729111    0.13957744481500975    0.14627922977235172    0.15259175765186003    
  0.1580609780067371    0.16228273347273778    0.1649461386494448    0.16585614714731856    0.13924292478478384    
  0.13867442988218306    0.13702078446869828    0.13442521069452895    0.13109800864374263    0.12729797661494102    
  0.12331488956601203    0.11943572180922542    0.11589738592867387    0.11285396966379319    0.11037930951226418    
  0.10849240608618323    0.10717438759586703    0.10636361557402461    0.10594803732878895    0.10578373534558037    
  0.10574560046804198    0.10578373534558037    0.10594803732878895    0.10636361557402461    0.10717438759586703    
  0.10849240608618323    0.11037930951226418    0.11285396966379319    0.11589738592867387    0.11943572180922542    
  0.12331488956601203    0.12729797661494102    0.13109800864374263    0.13442521069452895    0.13702078446869828    
  0.13867442988218306    0.13924292478478384    0.1211037258241872    0.1207608932845938    0.11977402627507636    
  0.11825193945161874    0.11634057501232895    0.11420771721186711    0.1120420653222587    0.11004015618838478    
  0.10836858003337681    0.10712354114689847    0.1063192347241294    0.10590956271837892    0.10581763073369319    
  0.10594803732878888    0.10618481712844137    0.10639964109527542    0.10648539256881577    0.10639964109527542    
  0.10618481712844137    0.10594803732878888    0.10581763073369319    0.10590956271837892    0.1063192347241294    
  0.10712354114689847    0.10836858003337681    0.11004015618838478    0.1120420653222587    0.11420771721186711    
  0.11634057501232895    0.11825193945161874    0.11977402627507636    0.1207608932845938    0.1211037258241872    
  0.11060359636215598    0.11038504111581354    0.10976584475781492    0.1088377920800086    0.10771541132752657    
  0.10652181298923696    0.10539502676297334    0.10448462088351537    0.10391795670300517    0.10375415114777328    
  0.10396383168341569    0.10445122122697421    0.10509666495421147    0.10578373534558037    0.1063996410952755    
  0.1068320494208665    0.10698849748893631    0.1068320494208665    0.1063996410952755    0.10578373534558037    
  0.10509666495421147    0.10445122122697421    0.10396383168341569    0.10375415114777328    0.10391795670300517    
  0.10448462088351537    0.10539502676297334    0.10652181298923696    0.10771541132752657    0.1088377920800086    
  0.10976584475781492    0.11038504111581354    0.11060359636215598    0.10716715435264683    0.10698779450448485    
  0.10648473241041435    0.10574501015805465    0.1048744092963324    0.1039833626637199    0.10319499427561489    
  0.10264431117732653    0.10244556465743566    0.10264444586601865    0.10319525927444531    0.1039837498886262    
  0.10487490671983588    0.10574560046804203    0.10648539256881583    0.10698849748893638    0.10716787167198291    
  0.10698849748893638    0.10648539256881583    0.10574560046804203    0.10487490671983588    0.1039837498886262    
  0.10319525927444531    0.10264444586601865    0.10244556465743566    0.10264431117732653    0.10319499427561489    
  0.1039833626637199    0.1048744092963324    0.10574501015805465    0.10648473241041435    0.10698779450448485    
  0.10716715435264683    0.11060359636215598    0.11038504111581354    0.10976584475781492    0.1088377920800086    
  0.10771541132752657    0.10652181298923696    0.10539502676297334    0.10448462088351537    0.10391795670300517    
  0.10375415114777328    0.10396383168341569    0.10445122122697421    0.10509666495421147    0.10578373534558037    
  0.1063996410952755    0.1068320494208665    0.10698849748893631    0.1068320494208665    0.1063996410952755    
  0.10578373534558037    0.10509666495421147    0.10445122122697421    0.10396383168341569    0.10375415114777328    
  0.10391795670300517    0.10448462088351537    0.10539502676297334    0.10652181298923696    0.10771541132752657    
  0.1088377920800086    0.10976584475781492    0.11038504111581354    0.11060359636215598    0.1211037258241872    
  0.1207608932845938    0.11977402627507636    0.11825193945161874    0.11634057501232895    0.11420771721186711    
  0.1120420653222587    0.11004015618838478    0.10836858003337681    0.10712354114689847    0.1063192347241294    
  0.10590956271837892    0.10581763073369319    0.10594803732878888    0.10618481712844137    0.10639964109527542    
  0.10648539256881577    0.10639964109527542    0.10618481712844137    0.10594803732878888    0.10581763073369319    
  0.10590956271837892    0.1063192347241294    0.10712354114689847    0.10836858003337681    0.11004015618838478    
  0.1120420653222587    0.11420771721186711    0.11634057501232895    0.11825193945161874    0.11977402627507636    
  0.1207608932845938    0.1211037258241872    0.13924292478478384    0.13867442988218306    0.13702078446869828    
  0.13442521069452895    0.13109800864374263    0.12729797661494102    0.12331488956601203    0.11943572180922542    
  0.11589738592867387    0.11285396966379319    0.11037930951226418    0.10849240608618323    0.10717438759586703    
  0.10636361557402461    0.10594803732878895    0.10578373534558037    0.10574560046804198    0.10578373534558037    
  0.10594803732878895    0.10636361557402461    0.10717438759586703    0.10849240608618323    0.11037930951226418    
  0.11285396966379319    0.11589738592867387    0.11943572180922542    0.12331488956601203    0.12729797661494102    
  0.13109800864374263    0.13442521069452895    0.13702078446869828    0.13867442988218306    0.13924292478478384    
  0.16585614714731856    0.1649461386494448    0.16228273347273778    0.1580609780067371    0.15259175765186003    
  0.14627922977235172    0.13957744481500975    0.1329241563729111    0.12667538545759793    0.12107484459054324    
  0.11626840363842512    0.11233747471173343    0.10931499195089908    0.10717438759586706    0.1058176307336932    
  0.10509666495421148    0.10487490671983589    0.10509666495421148    0.1058176307336932    0.10717438759586706    
  0.10931499195089908    0.11233747471173343    0.11626840363842512    0.12107484459054324    0.12667538545759793    
  0.1329241563729111    0.13957744481500975    0.14627922977235172    0.15259175765186003    0.1580609780067371    
  0.16228273347273778    0.1649461386494448    0.16585614714731856    0.2015667207759615    0.20020606702452193    
  0.1962040858568019    0.18981002537196356    0.18145414087004147    0.1717273415008009    0.16130888768756524    
  0.15086071947917662    0.1409338224833499    0.13192323363321756    0.12407603033535791    0.11752822567268456    
  0.11233747471173343    0.10849240608618327    0.10590956271837892    0.10445122122697419    0.10398374988862617    
  0.10445122122697419    0.10590956271837892    0.10849240608618327    0.11233747471173343    0.11752822567268456    
  0.12407603033535791    0.13192323363321756    0.1409338224833499    0.15086071947917662    0.16130888768756524    
  0.1717273415008009    0.18145414087004147    0.18981002537196356    0.1962040858568019    0.20020606702452193    
  0.2015667207759615    0.24582097703925132    0.2439663471327511    0.23847066690297383    0.22958086766423505    
  0.21779898900038883    0.20389512810851224    0.1888140643786094    0.17352216266502626    0.15886936873466453    
  0.1455033163903925    0.13383814795591562    0.12407603033535791    0.11626840363842508    0.11037930951226421    
  0.10631923472412944    0.10396383168341564    0.10319525927444524    0.10396383168341564    0.10631923472412944    
  0.11037930951226421    0.11626840363842508    0.12407603033535791    0.13383814795591562    0.1455033163903925    
  0.15886936873466453    0.17352216266502626    0.1888140643786094    0.20389512810851224    0.21779898900038883    
  0.22958086766423505    0.23847066690297383    0.2439663471327511    0.24582097703925132    0.2951264849199568    
  0.29294576511133796    0.28636357185475286    0.27539079483222206    0.2603581720536322    0.2420761675273449    
  0.2217565582268754    0.20077597538597008    0.18043436511056848    0.16177977746499217    0.1455033163903926    
  0.1319232336332176    0.12107484459054324    0.11285396966379313    0.10712354114689854    0.10375415114777321    
  0.10264444586601862    0.10375415114777321    0.10712354114689854    0.11285396966379313    0.12107484459054324    
  0.1319232336332176    0.1455033163903926    0.16177977746499217    0.18043436511056848    0.20077597538597008    
  0.2217565582268754    0.2420761675273449    0.2603581720536322    0.27539079483222206    0.28636357185475286    
  0.29294576511133796    0.2951264849199568    0.34044058757959045    0.33857417851967714    0.33259042610678474    
  0.3216654920897124    0.3052776036763616    0.28381358103761756    0.2586454758195114    0.23173343437370986    
  0.2051003002995045    0.1804343651105685    0.15886936873466453    0.14093382248334996    0.1266753854575979    
  0.11589738592867387    0.10836858003337688    0.1039179567030052    0.10244556465743569    0.1039179567030052    
  0.10836858003337688    0.11589738592867387    0.1266753854575979    0.14093382248334996    0.15886936873466453    
  0.1804343651105685    0.2051003002995045    0.23173343437370986    0.2586454758195114    0.28381358103761756    
  0.3052776036763616    0.3216654920897124    0.33259042610678474    0.33857417851967714    0.34044058757959045    
  0.3660213693992413    0.36577636497493005    0.3639582028422544    0.35793238094311886    0.3450420287111483    
  0.32417911826077356    0.2964339458421106    0.2645420255471193    0.23173343437370986    0.20077597538597008    
  0.1735221626650263    0.15086071947917667    0.13292415637291113    0.11943572180922542    0.11004015618838488    
  0.1044846208835154    0.1026443111773265    0.1044846208835154    0.11004015618838488    0.11943572180922542    
  0.13292415637291113    0.15086071947917667    0.1735221626650263    0.20077597538597008    0.23173343437370986    
  0.2645420255471193    0.2964339458421106    0.32417911826077356    0.3450420287111483    0.35793238094311886    
  0.3639582028422544    0.36577636497493005    0.3660213693992413    0.355009910726364    0.35800304453019033    
  0.36501370816592216    0.37085731802630506    0.3692900979832517    0.35597480202421844    0.3305591636806979    
  0.29643394584211064    0.2586454758195114    0.22175655822687546    0.18881406437860945    0.16130888768756518    
  0.13957744481500972    0.12331488956601203    0.11204206532225869    0.10539502676297327    0.10319499427561492    
  0.10539502676297327    0.11204206532225869    0.12331488956601203    0.13957744481500972    0.16130888768756518    
  0.18881406437860945    0.22175655822687546    0.2586454758195114    0.29643394584211064    0.3305591636806979    
  0.35597480202421844    0.3692900979832517    0.37085731802630506    0.36501370816592216    0.35800304453019033    
  0.355009910726364    0.30267379927884985    0.30972173731898284    0.3284317301191408    0.3517036399553566    
  0.3693421644360332    0.37204513951358925    0.35597480202421844    0.3241791182607736    0.2838135810376176    
  0.24207616752734487    0.20389512810851226    0.17172734150080093    0.14627922977235172    0.12729797661494102    
  0.11420771721186712    0.10652181298923699    0.10398336266371988    0.10652181298923699    0.11420771721186712    
  0.12729797661494102    0.14627922977235172    0.17172734150080093    0.20389512810851226    0.24207616752734487    
  0.2838135810376176    0.3241791182607736    0.35597480202421844    0.37204513951358925    0.3693421644360332    
  0.3517036399553566    0.3284317301191408    0.30972173731898284    0.30267379927884985    0.22511910928677975    
  0.23530339594388427    0.26399519829667095    0.30454090166902714    0.3445632427426178    0.3693421644360333    
  0.3692900979832517    0.34504202871114825    0.30527760367636153    0.2603581720536322    0.21779898900038877    
  0.18145414087004152    0.15259175765186    0.13109800864374266    0.116340575012329    0.1077154113275266    
  0.1048744092963324    0.1077154113275266    0.116340575012329    0.13109800864374266    0.15259175765186    
  0.18145414087004152    0.21779898900038877    0.2603581720536322    0.30527760367636153    0.34504202871114825    
  0.3692900979832517    0.3693421644360333    0.3445632427426178    0.30454090166902714    0.26399519829667095    
  0.23530339594388427    0.22511910928677975    0.14973894222740966    0.16093000872223304    0.1941495121764534    
  0.24581913267738958    0.30454090166902714    0.35170363995535664    0.37085731802630506    0.3579323809431189    
  0.3216654920897124    0.27539079483222206    0.22958086766423505    0.18981002537196354    0.15806097800673716    
  0.13442521069452895    0.11825193945161877    0.10883779208000857    0.10574501015805464    0.10883779208000857    
  0.11825193945161877    0.13442521069452895    0.15806097800673716    0.18981002537196354    0.22958086766423505    
  0.27539079483222206    0.3216654920897124    0.3579323809431189    0.37085731802630506    0.35170363995535664    
  0.30454090166902714    0.24581913267738958    0.1941495121764534    0.16093000872223304    0.14973894222740966    
  0.09577093459649702    0.10622254278484722    0.13886168213714223    0.1941495121764534    0.2639951982966709    
  0.3284317301191408    0.36501370816592216    0.3639582028422543    0.33259042610678474    0.2863635718547529    
  0.23847066690297383    0.19620408585680194    0.16228273347273775    0.13702078446869823    0.11977402627507636    
  0.10976584475781483    0.10648473241041435    0.10976584475781483    0.11977402627507636    0.13702078446869823    
  0.16228273347273775    0.19620408585680194    0.23847066690297383    0.2863635718547529    0.33259042610678474    
  0.3639582028422543    0.36501370816592216    0.3284317301191408    0.2639951982966709    0.1941495121764534    
  0.13886168213714223    0.10622254278484722    0.09577093459649702    0.06666011764409617    0.07596108276967657    
  0.10622254278484729    0.16093000872223298    0.23530339594388422    0.30972173731898284    0.35800304453019033    
  0.36577636497493005    0.33857417851967714    0.29294576511133796    0.24396634713275103    0.20020606702452196    
  0.16494613864944477    0.1386744298821831    0.1207608932845938    0.1103850411158135    0.10698779450448483    
  0.1103850411158135    0.1207608932845938    0.1386744298821831    0.16494613864944477    0.20020606702452196    
  0.24396634713275103    0.29294576511133796    0.33857417851967714    0.36577636497493005    0.35800304453019033    
  0.30972173731898284    0.23530339594388422    0.16093000872223298    0.10622254278484729    0.07596108276967657    
  0.06666011764409617    0.05785797203228641    0.06666011764409616    0.09577093459649702    0.1497389422274097    
  0.22511910928677983    0.30267379927884985    0.35500991072636406    0.36602136939924135    0.3404405875795904    
  0.2951264849199568    0.24582097703925132    0.20156672077596155    0.16585614714731858    0.13924292478478384    
  0.12110372582418727    0.11060359636215597    0.10716715435264679    0.11060359636215597    0.12110372582418727    
  0.13924292478478384    0.16585614714731858    0.20156672077596155    0.24582097703925132    0.2951264849199568    
  0.3404405875795904    0.36602136939924135    0.35500991072636406    0.30267379927884985    0.22511910928677983    
  0.1497389422274097    0.09577093459649702    0.06666011764409616    0.05785797203228641    0.06666011764409611    
  0.07596108276967652    0.10622254278484725    0.16093000872223304    0.23530339594388422    0.3097217373189829    
  0.35800304453019033    0.3657763649749301    0.3385741785196771    0.29294576511133796    0.243966347132751    
  0.20020606702452196    0.16494613864944477    0.1386744298821831    0.12076089328459384    0.1103850411158135    
  0.10698779450448478    0.1103850411158135    0.12076089328459384    0.1386744298821831    0.16494613864944477    
  0.20020606702452196    0.243966347132751    0.29294576511133796    0.3385741785196771    0.3657763649749301    
  0.35800304453019033    0.3097217373189829    0.23530339594388422    0.16093000872223304    0.10622254278484725    
  0.07596108276967652    0.06666011764409611    0.0759610827696766    0.08570695216382006    0.11694710088180157    
  0.17212302466283985    0.24523157849204583    0.3164077627390638    0.3607052026486709    0.36538656590805274    
  0.33667979233974626    0.29079360253359104    0.24215543769315315    0.19888703964010082    0.1640714673424052    
  0.13813553686543953    0.12044373637795477    0.11019005306882036    0.10683136084222447    0.11019005306882036    
  0.12044373637795477    0.13813553686543953    0.1640714673424052    0.19888703964010082    0.24215543769315315    
  0.29079360253359104    0.33667979233974626    0.36538656590805274    0.3607052026486709    0.3164077627390638    
  0.24523157849204583    0.17212302466283985    0.11694710088180157    0.08570695216382006    0.0759610827696766    
  0.10622254278484722    0.1169471008818015    0.15005083862453564    0.20506573824410904    0.27301413392708523    
  0.33402637765359233    0.36689879430014083    0.36318439028616506    0.3306360291364716    0.2843028166096646    
  0.23679010548602386    0.19500844002822873    0.1615135091926223    0.13657115867700292    0.11953515054649029    
  0.10964330788023535    0.10639899531001228    0.10964330788023535    0.11953515054649029    0.13657115867700292    
  0.1615135091926223    0.19500844002822873    0.23679010548602386    0.2843028166096646    0.3306360291364716    
  0.36318439028616506    0.36689879430014083    0.33402637765359233    0.27301413392708523    0.20506573824410904    
  0.15005083862453564    0.1169471008818015    0.10622254278484722    0.16093000872223298    0.17212302466283988    
  0.20506573824410906    0.2555406725903596    0.31175867182428274    0.35555295106841067    0.37158144989216535    
  0.3566722427684696    0.3196782854763005    0.2734962328550844    0.2281133980595684    0.18881465336095574    
  0.15746542817766487    0.13412573084263854    0.1181474954055289    0.10884154273418956    0.10578315888442345    
  0.10884154273418956    0.1181474954055289    0.13412573084263854    0.15746542817766487    0.18881465336095574    
  0.2281133980595684    0.2734962328550844    0.3196782854763005    0.3566722427684696    0.37158144989216535    
  0.35555295106841067    0.31175867182428274    0.2555406725903596    0.20506573824410906    0.17212302466283988    
  0.16093000872223298    0.23530339594388416    0.24523157849204588    0.2730141339270853    0.31175867182428274    
  0.34916168095695693    0.3711053196728437    0.3688127771971087    0.3433703967410821    0.3033492503548375    
  0.2587120695062267    0.21661808212030553    0.18072696011635894    0.15223386103451778    0.13101001178568303    
  0.11643063305641155    0.10790519868017831    0.10509618039907166    0.10790519868017831    0.11643063305641155    
  0.13101001178568303    0.15223386103451778    0.18072696011635894    0.21661808212030553    0.2587120695062267    
  0.3033492503548375    0.3433703967410821    0.3688127771971087    0.3711053196728437    0.34916168095695693    
  0.31175867182428274    0.2730141339270853    0.24523157849204588    0.23530339594388416    0.3097217373189829    
  0.3164077627390638    0.33402637765359233    0.3555529510684106    0.37110531967284366    0.3719068293279955    