#     DFTpy    
  CRYSTAL 
    
  PRIMVEC    
  3.30310344827586    0.0    0.0    
  0.0    3.30310344827586    0.0    
  0.0    0.0    3.30310344827586    
  PRIMCOORD    
  2    1    
  Si    0.0    0.0    0.0    
  Si    1.6515517241379307    1.6515517241379307    1.6515517241379307    
  BEGIN_BLOCK_DATAGRID_3D    
  3d_datagrid_density    
  BEGIN_DATAGRID_3D#0    
  33    33    33    
  0.0    0.0    0.0    
  3.3031034605964993    0.0    0.0    
  0.0    3.3031034605964993    0.0    
  0.0    0.0    3.3031034605964993    
  0.05670584858547365    0.06478551495768266    0.09144356334027956    0.14111821059907823    0.21218508835183142    
  0.2894112141631956    0.3481242396305759    0.3702338704609403    0.35556852022686675    0.3175878226917312    
  0.27165407918327145    0.22798655287144357    0.19135353469451005    0.16328076491415153    0.14381326842987663    
  0.13246372227469283    0.12874490956593432    0.13246372227469283    0.14381326842987663    0.16328076491415153    
  0.19135353469451005    0.22798655287144357    0.27165407918327145    0.3175878226917312    0.35556852022686675    
  0.3702338704609403    0.3481242396305759    0.2894112141631956    0.21218508835183142    0.14111821059907823    
  0.09144356334027956    0.06478551495768266    0.05670584858547365    0.06478551495768266    0.0733044313665779    
  0.10101205320644047    0.15150612295308494    0.22203030731767315    0.29684595091522636    0.35206642117706644    
  0.3710578482840951    0.3545544383243159    0.3159617469754859    0.27012108135081336    0.22679970699969634    
  0.19053449605043024    0.16276533525830783    0.1435123364853231    0.1322867047639769    0.12860791225109452    
  0.1322867047639769    0.1435123364853231    0.16276533525830783    0.19053449605043024    0.22679970699969634    
  0.27012108135081336    0.3159617469754859    0.3545544383243159    0.3710578482840951    0.35206642117706644    
  0.29684595091522636    0.22203030731767315    0.15150612295308494    0.10101205320644047    0.0733044313665779    
  0.06478551495768266    0.09144356334027966    0.10101205320644051    0.13102699135869256    0.18265187398141788    
  0.2502169977685762    0.3171159810304227    0.3620323596303412    0.37232070243238247    0.3509257612104982    
  0.3108686511941478    0.26546801353559235    0.22324060870356693    0.18809543432958606    0.16124061326650668    
  0.14263018703202807    0.1317746844651656    0.1282152834891922    0.1317746844651656    0.14263018703202807    
  0.16124061326650668    0.18809543432958606    0.22324060870356693    0.26546801353559235    0.3108686511941478    
  0.3509257612104982    0.37232070243238247    0.3620323596303412    0.3171159810304227    0.2502169977685762    
  0.18265187398141788    0.13102699135869256    0.10101205320644051    0.09144356334027966    0.14111821059907814    
  0.15150612295308485    0.18265187398141774    0.23230695647555932    0.29156212949232674    0.34404259380900404    
  0.3729366057525799    0.370945006371418    0.3432958213179679    0.3018667900931559    0.2576378837236909    
  0.21737045253360385    0.18412083522301237    0.1587850871493415    0.14123264422175583    0.13098367096603625    
  0.12761956267782634    0.13098367096603625    0.14123264422175583    0.1587850871493415    0.18412083522301237    
  0.21737045253360385    0.2576378837236909    0.3018667900931559    0.3432958213179679    0.370945006371418    
  0.3729366057525799    0.34404259380900404    0.29156212949232674    0.23230695647555932    0.18265187398141774    
  0.15150612295308485    0.14111821059907814    0.21218508835183142    0.2220303073176731    0.2502169977685761    
  0.2915621294923268    0.33551187186815645    0.3680699708702136    0.37814858446291766    0.3634530566612828    
  0.33037505678024376    0.2887441577257481    0.24679555988651014    0.209426562551751    0.17882101212255008    
  0.15555942774072928    0.139436318901616    0.13000274744886037    0.1269008276841982    0.13000274744886037    
  0.139436318901616    0.15555942774072928    0.17882101212255008    0.209426562551751    0.24679555988651014    
  0.2887441577257481    0.33037505678024376    0.3634530566612828    0.37814858446291766    0.3680699708702136    
  0.33551187186815645    0.2915621294923268    0.2502169977685761    0.2220303073176731    0.21218508835183142    
  0.2894112141631956    0.2968459509152263    0.31711598103042266    0.3440425938090041    0.36806997087021354    
  0.3793502691602919    0.37222874560761765    0.34770889313424996    0.31184246429533763    0.2718913191958978    
  0.23347984364261043    0.19988503383455777    0.17255479072011157    0.15180991853254377    0.1374039135353226    
  0.1289468464656702    0.12615901652841624    0.1289468464656702    0.1374039135353226    0.15180991853254377    
  0.17255479072011157    0.19988503383455777    0.23347984364261043    0.2718913191958978    0.31184246429533763    
  0.34770889313424996    0.37222874560761765    0.3793502691602919    0.36806997087021354    0.3440425938090041    
  0.31711598103042266    0.2968459509152263    0.2894112141631956    0.34812423963057604    0.35206642117706655    
  0.3620323596303412    0.37293660575258003    0.3781485844629177    0.3722287456076177    0.3533873123643567    
  0.32395188584912654    0.2886570262248971    0.2523369613242943    0.21855833076709436    0.18940095819524513    
  0.16577691020269342    0.14783114052477597    0.13532251819913024    0.12794573124260486    0.1255065760131842    
  0.12794573124260486    0.13532251819913024    0.14783114052477597    0.16577691020269342    0.18940095819524513    
  0.21855833076709436    0.2523369613242943    0.2886570262248971    0.32395188584912654    0.3533873123643567    
  0.3722287456076177    0.3781485844629177    0.37293660575258003    0.3620323596303412    0.35206642117706655    
  0.34812423963057604    0.3702338704609405    0.3710578482840951    0.37232070243238236    0.370945006371418    
  0.3634530566612829    0.3477088931342501    0.3239518858491265    0.29452729875358885    0.2626969177003021    
  0.23146965906389724    0.20302657117075454    0.17866141000336372    0.15893573242644773    0.14390270051135054    
  0.13336931250852335    0.12712619994465574    0.12505580417465895    0.12712619994465574    0.13336931250852335    
  0.14390270051135054    0.15893573242644773    0.17866141000336372    0.20302657117075454    0.23146965906389724    
  0.2626969177003021    0.29452729875358885    0.3239518858491265    0.3477088931342501    0.3634530566612829    
  0.370945006371418    0.37232070243238236    0.3710578482840951    0.3702338704609405    0.35556852022686675    
  0.35455443832431566    0.35092576121049807    0.3432958213179678    0.3303750567802437    0.31184246429533763    
  0.288657026224897    0.262696917700302    0.23608900065299362    0.2106773529729711    0.1877958559891093    
  0.16824932024873218    0.15238715600062716    0.1402372074257469    0.13167829352055757    0.12658604865348305    
  0.12489432089299372    0.12658604865348305    0.13167829352055757    0.1402372074257469    0.15238715600062716    
  0.16824932024873218    0.1877958559891093    0.2106773529729711    0.23608900065299362    0.262696917700302    
  0.288657026224897    0.31184246429533763    0.3303750567802437    0.3432958213179678    0.35092576121049807    
  0.35455443832431566    0.35556852022686675    0.31758782269173125    0.3159617469754859    0.3108686511941477    
  0.30186679009315603    0.2887441577257482    0.27189131919589793    0.25233696132429423    0.2314696590638972    
  0.21067735297297113    0.1911063974827885    0.1735765840699886    0.15858809900685275    0.14637133178004094    
  0.1369674443017742    0.1303233169621571    0.12636874036764578    0.125055858224569    0.12636874036764578    
  0.1303233169621571    0.1369674443017742    0.14637133178004094    0.15858809900685275    0.1735765840699886    
  0.1911063974827885    0.21067735297297113    0.2314696590638972    0.25233696132429423    0.27189131919589793    
  0.2887441577257482    0.30186679009315603    0.3108686511941477    0.3159617469754859    0.31758782269173125    
  0.2716540791832715    0.27012108135081336    0.2654680135355923    0.25763788372369095    0.24679555988651014    
  0.23347984364261043    0.21855833076709436    0.20302657117075454    0.18779585598910933    0.17357658406998866    
  0.16086218659095633    0.14996227850200808    0.14104400970677933    0.13416855434637442    0.12932331713469356    
  0.12645485782051785    0.125506682848774    0.12645485782051785    0.12932331713469356    0.13416855434637442    
  0.14104400970677933    0.14996227850200808    0.16086218659095633    0.17357658406998866    0.18779585598910933    
  0.20302657117075454    0.21855833076709436    0.23347984364261043    0.24679555988651014    0.25763788372369095    
  0.2654680135355923    0.27012108135081336    0.2716540791832715    0.22798655287144357    0.22679970699969626    
  0.2232406087035669    0.21737045253360385    0.20942656255175093    0.19988503383455783    0.18940095819524508    
  0.1786614100033637    0.16824932024873224    0.1585880990068527    0.14996227850200802    0.14256329105301718    
  0.13651714520104216    0.1318854519548439    0.12865975301937796    0.12677604385766786    0.12615917277231667    
  0.12677604385766786    0.12865975301937796    0.1318854519548439    0.13651714520104216    0.14256329105301718    
  0.14996227850200802    0.1585880990068527    0.16824932024873224    0.1786614100033637    0.18940095819524508    
  0.19988503383455783    0.20942656255175093    0.21737045253360385    0.2232406087035669    0.22679970699969626    
  0.22798655287144357    0.19135353469451014    0.1905344960504302    0.18809543432958603    0.18412083522301242    
  0.17882101212255014    0.17255479072011165    0.16577691020269347    0.1589357324264478    0.1523871560006272    
  0.14637133178004091    0.14104400970677936    0.13651714520104222    0.13287132268231916    0.13013925202437068    
  0.12828933505009943    0.12723887784364937    0.12690102765439087    0.12723887784364937    0.12828933505009943    
  0.13013925202437068    0.13287132268231916    0.13651714520104222    0.14104400970677936    0.14637133178004091    
  0.1523871560006272    0.1589357324264478    0.16577691020269347    0.17255479072011165    0.17882101212255014    
  0.18412083522301242    0.18809543432958603    0.1905344960504302    0.19135353469451014    0.16328076491415164    
  0.16276533525830783    0.16124061326650665    0.1587850871493415    0.15555942774072928    0.15180991853254377    
  0.14783114052477592    0.1439027005113506    0.14023720742574694    0.13696744430177427    0.13416855434637437    
  0.13188545195484389    0.1301392520243707    0.1289137752318503    0.12814616351214497    0.1277429280024927    
  0.12761979928955997    0.1277429280024927    0.12814616351214497    0.1289137752318503    0.1301392520243707    
  0.13188545195484389    0.13416855434637437    0.13696744430177427    0.14023720742574694    0.1439027005113506    
  0.14783114052477592    0.15180991853254377    0.15555942774072928    0.1587850871493415    0.16124061326650665    
  0.16276533525830783    0.16328076491415164    0.14381326842987663    0.14351233648532308    0.14263018703202804    
  0.14123264422175585    0.139436318901616    0.13740391353532264    0.1353225181991301    0.13336931250852335    
  0.13167829352055763    0.13032331696215715    0.12932331713469356    0.12865975301937796    0.12828933505009948    
  0.12814616351214497    0.12814396938536673    0.12819090757253257    0.1282155487574154    0.12819090757253257    
  0.12814396938536673    0.12814616351214497    0.12828933505009948    0.12865975301937796    0.12932331713469356    
  0.13032331696215715    0.13167829352055763    0.13336931250852335    0.1353225181991301    0.13740391353532264    
  0.139436318901616    0.14123264422175585    0.14263018703202804    0.14351233648532308    0.14381326842987663    
  0.1324637222746929    0.13228670476397678    0.1317746844651656    0.13098367096603625    0.13000274744886037    
  0.12894684646567028    0.1279457312426048    0.12712619994465563    0.12658604865348316    0.12636874036764578    
  0.12645485782051782    0.12677604385766786    0.12723887784364937    0.12774292800249265    0.12819090757253257    
  0.1284986800387154    0.12860819644540153    0.1284986800387154    0.12819090757253257    0.12774292800249265    
  0.12723887784364937    0.12677604385766786    0.12645485782051782    0.12636874036764578    0.12658604865348316    
  0.12712619994465563    0.1279457312426048    0.12894684646567028    0.13000274744886037    0.13098367096603625    
  0.1317746844651656    0.13228670476397678    0.1324637222746929    0.12874490956593432    0.12860791225109441    
  0.12821528348919214    0.12761956267782637    0.12690082768419816    0.12615901652841624    0.12550657601318407    
  0.12505580417465886    0.12489432089299382    0.12505585822456894    0.1255066828487739    0.12615917277231659    
  0.1269010276543908    0.1276197992895599    0.12821554875741528    0.12860819644540145    0.12874520048145496    
  0.12860819644540145    0.12821554875741528    0.1276197992895599    0.1269010276543908    0.12615917277231659    
  0.1255066828487739    0.12505585822456894    0.12489432089299382    0.12505580417465886    0.12550657601318407    
  0.12615901652841624    0.12690082768419816    0.12761956267782637    0.12821528348919214    0.12860791225109441    
  0.12874490956593432    0.1324637222746929    0.13228670476397678    0.1317746844651656    0.13098367096603625    
  0.13000274744886037    0.12894684646567028    0.1279457312426048    0.12712619994465563    0.12658604865348316    
  0.12636874036764578    0.12645485782051782    0.12677604385766786    0.12723887784364937    0.12774292800249265    
  0.12819090757253257    0.1284986800387154    0.12860819644540153    0.1284986800387154    0.12819090757253257    
  0.12774292800249265    0.12723887784364937    0.12677604385766786    0.12645485782051782    0.12636874036764578    
  0.12658604865348316    0.12712619994465563    0.1279457312426048    0.12894684646567028    0.13000274744886037    
  0.13098367096603625    0.1317746844651656    0.13228670476397678    0.1324637222746929    0.14381326842987663    
  0.14351233648532308    0.14263018703202804    0.14123264422175585    0.139436318901616    0.13740391353532264    
  0.1353225181991301    0.13336931250852335    0.13167829352055763    0.13032331696215715    0.12932331713469356    
  0.12865975301937796    0.12828933505009948    0.12814616351214497    0.12814396938536673    0.12819090757253257    
  0.1282155487574154    0.12819090757253257    0.12814396938536673    0.12814616351214497    0.12828933505009948    
  0.12865975301937796    0.12932331713469356    0.13032331696215715    0.13167829352055763    0.13336931250852335    
  0.1353225181991301    0.13740391353532264    0.139436318901616    0.14123264422175585    0.14263018703202804    
  0.14351233648532308    0.14381326842987663    0.16328076491415164    0.16276533525830783    0.16124061326650665    
  0.1587850871493415    0.15555942774072928    0.15180991853254377    0.14783114052477592    0.1439027005113506    
  0.14023720742574694    0.13696744430177427    0.13416855434637437    0.13188545195484389    0.1301392520243707    
  0.1289137752318503    0.12814616351214497    0.1277429280024927    0.12761979928955997    0.1277429280024927    
  0.12814616351214497    0.1289137752318503    0.1301392520243707    0.13188545195484389    0.13416855434637437    
  0.13696744430177427    0.14023720742574694    0.1439027005113506    0.14783114052477592    0.15180991853254377    
  0.15555942774072928    0.1587850871493415    0.16124061326650665    0.16276533525830783    0.16328076491415164    
  0.19135353469451014    0.1905344960504302    0.18809543432958603    0.18412083522301242    0.17882101212255014    
  0.17255479072011165    0.16577691020269347    0.1589357324264478    0.1523871560006272    0.14637133178004091    
  0.14104400970677936    0.13651714520104222    0.13287132268231916    0.13013925202437068    0.12828933505009943    
  0.12723887784364937    0.12690102765439087    0.12723887784364937    0.12828933505009943    0.13013925202437068    
  0.13287132268231916    0.13651714520104222    0.14104400970677936    0.14637133178004091    0.1523871560006272    
  0.1589357324264478    0.16577691020269347    0.17255479072011165    0.17882101212255014    0.18412083522301242    
  0.18809543432958603    0.1905344960504302    0.19135353469451014    0.22798655287144357    0.22679970699969626    
  0.2232406087035669    0.21737045253360385    0.20942656255175093    0.19988503383455783    0.18940095819524508    
  0.1786614100033637    0.16824932024873224    0.1585880990068527    0.14996227850200802    0.14256329105301718    
  0.13651714520104216    0.1318854519548439    0.12865975301937796    0.12677604385766786    0.12615917277231667    
  0.12677604385766786    0.12865975301937796    0.1318854519548439    0.13651714520104216    0.14256329105301718    
  0.14996227850200802    0.1585880990068527    0.16824932024873224    0.1786614100033637    0.18940095819524508    
  0.19988503383455783    0.20942656255175093    0.21737045253360385    0.2232406087035669    0.22679970699969626    
  0.22798655287144357    0.2716540791832715    0.27012108135081336    0.2654680135355923    0.25763788372369095    
  0.24679555988651014    0.23347984364261043    0.21855833076709436    0.20302657117075454    0.18779585598910933    
  0.17357658406998866    0.16086218659095633    0.14996227850200808    0.14104400970677933    0.13416855434637442    
  0.12932331713469356    0.12645485782051785    0.125506682848774    0.12645485782051785    0.12932331713469356    
  0.13416855434637442    0.14104400970677933    0.14996227850200808    0.16086218659095633    0.17357658406998866    
  0.18779585598910933    0.20302657117075454    0.21855833076709436    0.23347984364261043    0.24679555988651014    
  0.25763788372369095    0.2654680135355923    0.27012108135081336    0.2716540791832715    0.31758782269173125    
  0.3159617469754859    0.3108686511941477    0.30186679009315603    0.2887441577257482    0.27189131919589793    
  0.25233696132429423    0.2314696590638972    0.21067735297297113    0.1911063974827885    0.1735765840699886    
  0.15858809900685275    0.14637133178004094    0.1369674443017742    0.1303233169621571    0.12636874036764578    
  0.125055858224569    0.12636874036764578    0.1303233169621571    0.1369674443017742    0.14637133178004094    
  0.15858809900685275    0.1735765840699886    0.1911063974827885    0.21067735297297113    0.2314696590638972    
  0.25233696132429423    0.27189131919589793    0.2887441577257482    0.30186679009315603    0.3108686511941477    
  0.3159617469754859    0.31758782269173125    0.35556852022686675    0.35455443832431566    0.35092576121049807    
  0.3432958213179678    0.3303750567802437    0.31184246429533763    0.288657026224897    0.262696917700302    
  0.23608900065299362    0.2106773529729711    0.1877958559891093    0.16824932024873218    0.15238715600062716    
  0.1402372074257469    0.13167829352055757    0.12658604865348305    0.12489432089299372    0.12658604865348305    
  0.13167829352055757    0.1402372074257469    0.15238715600062716    0.16824932024873218    0.1877958559891093    
  0.2106773529729711    0.23608900065299362    0.262696917700302    0.288657026224897    0.31184246429533763    
  0.3303750567802437    0.3432958213179678    0.35092576121049807    0.35455443832431566    0.35556852022686675    
  0.3702338704609405    0.3710578482840951    0.37232070243238236    0.370945006371418    0.3634530566612829    
  0.3477088931342501    0.3239518858491265    0.29452729875358885    0.2626969177003021    0.23146965906389724    
  0.20302657117075454    0.17866141000336372    0.15893573242644773    0.14390270051135054    0.13336931250852335    
  0.12712619994465574    0.12505580417465895    0.12712619994465574    0.13336931250852335    0.14390270051135054    
  0.15893573242644773    0.17866141000336372    0.20302657117075454    0.23146965906389724    0.2626969177003021    
  0.29452729875358885    0.3239518858491265    0.3477088931342501    0.3634530566612829    0.370945006371418    
  0.37232070243238236    0.3710578482840951    0.3702338704609405    0.34812423963057604    0.35206642117706655    
  0.3620323596303412    0.37293660575258003    0.3781485844629177    0.3722287456076177    0.3533873123643567    
  0.32395188584912654    0.2886570262248971    0.2523369613242943    0.21855833076709436    0.18940095819524513    
  0.16577691020269342    0.14783114052477597    0.13532251819913024    0.12794573124260486    0.1255065760131842    
  0.12794573124260486    0.13532251819913024    0.14783114052477597    0.16577691020269342    0.18940095819524513    
  0.21855833076709436    0.2523369613242943    0.2886570262248971    0.32395188584912654    0.3533873123643567    
  0.3722287456076177    0.3781485844629177    0.37293660575258003    0.3620323596303412    0.35206642117706655    
  0.34812423963057604    0.2894112141631956    0.2968459509152263    0.31711598103042266    0.3440425938090041    
  0.36806997087021354    0.3793502691602919    0.37222874560761765    0.34770889313424996    0.31184246429533763    
  0.2718913191958978    0.23347984364261043    0.19988503383455777    0.17255479072011157    0.15180991853254377    
  0.1374039135353226    0.1289468464656702    0.12615901652841624    0.1289468464656702    0.1374039135353226    
  0.15180991853254377    0.17255479072011157    0.19988503383455777    0.23347984364261043    0.2718913191958978    
  0.31184246429533763    0.34770889313424996    0.37222874560761765    0.3793502691602919    0.36806997087021354    
  0.3440425938090041    0.31711598103042266    0.2968459509152263    0.2894112141631956    0.21218508835183142    
  0.2220303073176731    0.2502169977685761    0.2915621294923268    0.33551187186815645    0.3680699708702136    
  0.37814858446291766    0.3634530566612828    0.33037505678024376    0.2887441577257481    0.24679555988651014    
  0.209426562551751    0.17882101212255008    0.15555942774072928    0.139436318901616    0.13000274744886037    
  0.1269008276841982    0.13000274744886037    0.139436318901616    0.15555942774072928    0.17882101212255008    
  0.209426562551751    0.24679555988651014    0.2887441577257481    0.33037505678024376    0.3634530566612828    
  0.37814858446291766    0.3680699708702136    0.33551187186815645    0.2915621294923268    0.2502169977685761    
  0.2220303073176731    0.21218508835183142    0.14111821059907814    0.15150612295308485    0.18265187398141774    
  0.23230695647555932    0.29156212949232674    0.34404259380900404    0.3729366057525799    0.370945006371418    
  0.3432958213179679    0.3018667900931559    0.2576378837236909    0.21737045253360385    0.18412083522301237    
  0.1587850871493415    0.14123264422175583    0.13098367096603625    0.12761956267782634    0.13098367096603625    
  0.14123264422175583    0.1587850871493415    0.18412083522301237    0.21737045253360385    0.2576378837236909    
  0.3018667900931559    0.3432958213179679    0.370945006371418    0.3729366057525799    0.34404259380900404    
  0.29156212949232674    0.23230695647555932    0.18265187398141774    0.15150612295308485    0.14111821059907814    
  0.09144356334027966    0.10101205320644051    0.13102699135869256    0.18265187398141788    0.2502169977685762    
  0.3171159810304227    0.3620323596303412    0.37232070243238247    0.3509257612104982    0.3108686511941478    
  0.26546801353559235    0.22324060870356693    0.18809543432958606    0.16124061326650668    0.14263018703202807    
  0.1317746844651656    0.1282152834891922    0.1317746844651656    0.14263018703202807    0.16124061326650668    
  0.18809543432958606    0.22324060870356693    0.26546801353559235    0.3108686511941478    0.3509257612104982    
  0.37232070243238247    0.3620323596303412    0.3171159810304227    0.2502169977685762    0.18265187398141788    
  0.13102699135869256    0.10101205320644051    0.09144356334027966    0.06478551495768266    0.0733044313665779    
  0.10101205320644047    0.15150612295308494    0.22203030731767315    0.29684595091522636    0.35206642117706644    
  0.3710578482840951    0.3545544383243159    0.3159617469754859    0.27012108135081336    0.22679970699969634    
  0.19053449605043024    0.16276533525830783    0.1435123364853231    0.1322867047639769    0.12860791225109452    
  0.1322867047639769    0.1435123364853231    0.16276533525830783    0.19053449605043024    0.22679970699969634    
  0.27012108135081336    0.3159617469754859    0.3545544383243159    0.3710578482840951    0.35206642117706644    
  0.29684595091522636    0.22203030731767315    0.15150612295308494    0.10101205320644047    0.0733044313665779    
  0.06478551495768266    0.05670584858547365    0.06478551495768266    0.09144356334027956    0.14111821059907823    
  0.21218508835183142    0.2894112141631956    0.3481242396305759    0.3702338704609403    0.35556852022686675    
  0.3175878226917312    0.27165407918327145    0.22798655287144357    0.19135353469451005    0.16328076491415153    
  0.14381326842987663    0.13246372227469283    0.12874490956593432    0.13246372227469283    0.14381326842987663    
  0.16328076491415153    0.19135353469451005    0.22798655287144357    0.27165407918327145    0.3175878226917312    
  0.35556852022686675    0.3702338704609403    0.3481242396305759    0.2894112141631956    0.21218508835183142    
  0.14111821059907823    0.09144356334027956    0.06478551495768266    0.05670584858547365    0.0647855149576827    
  0.07330443136657785    0.10101205320644041    0.151506122953085    0.22203030731767304    0.29684595091522636    
  0.35206642117706644    0.37105784828409505    0.35455443832431577    0.3159617469754859    0.27012108135081336    
  0.22679970699969634    0.19053449605043024    0.16276533525830783    0.14351233648532313    0.13228670476397686    
  0.12860791225109452    0.13228670476397686    0.14351233648532313    0.16276533525830783    0.19053449605043024    
  0.22679970699969634    0.27012108135081336    0.3159617469754859    0.35455443832431577    0.37105784828409505    
  0.35206642117706644    0.29684595091522636    0.22203030731767304    0.151506122953085    0.10101205320644041    
  0.07330443136657785    0.0647855149576827    0.07330443136657787    0.08222028702590767    0.11084188212640436    
  0.16193584444643908    0.23169206929992478    0.30397767136964715    0.3557314738182372    0.3717131007631738    
  0.3534760618945936    0.314333404011971    0.26861200765648724    0.22564488098104488    0.18974860951297615    
  0.16228169104794782    0.14324114505758698    0.13213778663039183    0.12849840245404778    0.13213778663039183    
  0.14324114505758698    0.16228169104794782    0.18974860951297615    0.22564488098104488    0.26861200765648724    
  0.314333404011971    0.3534760618945936    0.3717131007631738    0.3557314738182372    0.30397767136964715    
  0.23169206929992478    0.16193584444643908    0.11084188212640436    0.08222028702590767    0.07330443136657787    
  0.10101205320644051    0.11084188212640442    0.14136085712134425    0.19297287690917608    0.259196850747406    
  0.3233173654510652    0.36490778362629345    0.3725201873741401    0.3496882726102559    0.3092507996906542    
  0.26403898547013155    0.2221863155780689    0.18741197280473154    0.16085472870703638    0.14245051036784603    
  0.13171242784655643    0.1281906486637455    0.13171242784655643    0.14245051036784603    0.16085472870703638    
  0.18741197280473154    0.2221863155780689    0.26403898547013155    0.3092507996906542    0.3496882726102559    
  0.3725201873741401    0.36490778362629345    0.3233173654510652    0.259196850747406    0.19297287690917608    
  0.14136085712134425    0.11084188212640442    0.10101205320644051    0.15150612295308497    0.16193584444643896    
  0.192972876909176    0.2418105439893572    0.2991078355475492    0.3487042875923823    0.3746557281845227    
  0.3705431990559412    0.3418917834565613    0.30031468628880703    0.25636441892341105    0.21649513980024285    
  0.18361534772626473    0.1585679711103491    0.14121122937541955    0.13107195808027255    0.12774269752868814    
  0.13107195808027255    0.14121122937541955    0.1585679711103491    0.18361534772626473    0.21649513980024285    
  0.25636441892341105    0.30031468628880703    0.3418917834565613    0.3705431990559412    0.3746557281845227    
  0.3487042875923823    0.2991078355475492    0.2418105439893572    0.192972876909176    0.16193584444643896    
  0.15150612295308497    0.2220303073176731    0.23169206929992472    0.2591968507474059    0.2991078355475493    
  0.3408330828083365    0.3707950957451378    0.3786093201161923    0.3624974180794363    0.32889946135813664    
  0.28735691501671407    0.2457701148657139    0.2088153001982251    0.17857202037083836    0.15558427867828084    
  0.1396426933417157    0.13030912667806832    0.12723868395232113    0.13030912667806832    0.1396426933417157    
  0.15558427867828084    0.17857202037083836    0.2088153001982251    0.2457701148657139    0.28735691501671407    
  0.32889946135813664    0.3624974180794363    0.3786093201161923    0.3707950957451378    0.3408330828083365    
  0.2991078355475493    0.2591968507474059    0.23169206929992472    0.2220303073176731    0.29684595091522636    
  0.3039776713696471    0.3233173654510651    0.3487042875923824    0.37079509574513775    0.3801753308952436    
  0.3716434560917886    0.34641748835910885    0.31046023334345396    0.27078793529421064    0.23279543828411198    