#     DFTpy    
  CRYSTAL 
    
  PRIMVEC    
  2.8555862068965503    0.0    0.0    
  0.0    2.8555862068965503    0.0    
  0.0    0.0    2.8555862068965503    
  PRIMCOORD    
  2    1    
  Si    0.0    0.0    0.0    
  Si    1.4277931034482803    1.4277931034482803    1.4277931034482803    
  BEGIN_BLOCK_DATAGRID_3D    
  3d_datagrid_density    
  BEGIN_DATAGRID_3D#0    
  28    28    28    
  0.0    0.0    0.0    
  2.855586217547941    0.0    0.0    
  0.0    2.855586217547941    0.0    
  0.0    0.0    2.855586217547941    
  0.05228530135129641    0.06075076445329973    0.08912445553384336    0.1431385734389853    0.2219110829805232    
  0.3090701210737157    0.3775508401695592    0.4078139418970336    0.40007292249849913    0.36896536127345714    
  0.33083657240283554    0.2966632780420911    0.2720016850739434    0.25924167081791366    0.25924167081791366    
  0.27200168507394334    0.2966632780420911    0.33083657240283554    0.36896536127345714    0.40007292249849913    
  0.4078139418970336    0.3775508401695592    0.3090701210737157    0.22191108298052326    0.14313857343898534    
  0.08912445553384336    0.06075076445329968    0.05228530135129641    0.06075076445329961    0.06977068549267196    
  0.09951499548485274    0.1547648793651209    0.2333131199989123    0.3181582156846732    0.38307746376573343    
  0.41011294519501795    0.4004323693742776    0.36860607783464566    0.3304538481048268    0.2965090980505277    
  0.2720903295743915    0.25947603054338264    0.2594760305433826    0.2720903295743914    0.2965090980505277    
  0.3304538481048268    0.36860607783464566    0.4004323693742776    0.41011294519501795    0.38307746376573343    
  0.3181582156846731    0.2333131199989123    0.1547648793651209    0.09951499548485278    0.06977068549267192    
  0.06075076445329961    0.08912445553384327    0.09951499548485288    0.13242640694579572    0.18984470690628197    
  0.2661321762704876    0.3431673793695317    0.3975173980612061    0.4155449816755145    0.4007197618066618    
  0.367164627778244    0.32915349855811965    0.2959877911559397    0.2723368526578472    0.2601738354508023    
  0.26017383545080225    0.2723368526578471    0.2959877911559397    0.32915349855811965    0.367164627778244    
  0.4007197618066618    0.4155449816755145    0.3975173980612061    0.3431673793695317    0.2661321762704876    
  0.189844706906282    0.13242640694579574    0.09951499548485288    0.08912445553384327    0.14313857343898528    
  0.15476487936512084    0.18984470690628186    0.2463677426181601    0.3148321052335383    0.37722387866191176    
  0.41503989940383496    0.4203872463512739    0.3990337829122514    0.3638099741559795    0.32659730767149536    
  0.29495673357363955    0.27266700787807374    0.2612793660677367    0.2612793660677367    0.27266700787807363    
  0.29495673357363955    0.32659730767149536    0.3638099741559795    0.3990337829122514    0.4203872463512739    
  0.41503989940383496    0.37722387866191176    0.3148321052335383    0.2463677426181601    0.18984470690628188    
  0.15476487936512084    0.14313857343898528    0.2219110829805232    0.23331311999891238    0.2661321762704875    
  0.3148321052335383    0.36783920574139106    0.40967211985997826    0.42806402311187564    0.4203961125247486    
  0.3934595475049398    0.3578112955688183    0.3225116268223438    0.2932631628875302    0.27292569389020754    
  0.26261336479483927    0.26261336479483927    0.2729256938902075    0.2932631628875302    0.32251162682234386    
  0.3578112955688183    0.3934595475049398    0.4203961125247486    0.42806402311187564    0.40967211985997826    
  0.36783920574139106    0.3148321052335383    0.2661321762704875    0.23331311999891233    0.2219110829805232    
  0.3090701210737156    0.3181582156846732    0.3431673793695316    0.37722387866191187    0.40967211985997826    
  0.429510559514537    0.4302940416082704    0.41274404395403397    0.3830538304579982    0.3489695788419065    
  0.31685910301295805    0.29080131433720313    0.2728820863631954    0.2638571281809775    0.2638571281809775    
  0.27288208636319533    0.29080131433720313    0.31685910301295805    0.3489695788419065    0.3830538304579982    
  0.41274404395403397    0.4302940416082704    0.429510559514537    0.40967211985997826    0.37722387866191187    
  0.3431673793695316    0.3181582156846732    0.3090701210737156    0.3775508401695592    0.38307746376573343    
  0.3975173980612061    0.415039899403835    0.42806402311187564    0.4302940416082704    0.4193172906083207    
  0.3970623977259271    0.36813752709947273    0.3376507906946514    0.30982596342957064    0.28752645745528205    
  0.2722858167518841    0.2646377256695192    0.2646377256695192    0.2722858167518841    0.28752645745528205    
  0.30982596342957064    0.3376507906946514    0.36813752709947273    0.3970623977259271    0.4193172906083207    
  0.4302940416082704    0.42806402311187564    0.415039899403835    0.39751739806120606    0.38307746376573343    
  0.3775508401695592    0.4078139418970335    0.410112945195018    0.4155449816755145    0.4203872463512739    
  0.42039611252474873    0.4127440439540341    0.3970623977259271    0.3751533169819918    0.34994898445936323    
  0.3245615837989471    0.3017220073492897    0.2834608242152349    0.27096111263516176    0.26467572602065187    
  0.26467572602065176    0.27096111263516176    0.2834608242152349    0.3017220073492897    0.3245615837989471    
  0.34994898445936323    0.3751533169819918    0.3970623977259271    0.41274404395403413    0.42039611252474873    
  0.4203872463512739    0.4155449816755145    0.410112945195018    0.4078139418970335    0.400072922498499    
  0.4004323693742777    0.40071976180666163    0.39903378291225144    0.3934595475049398    0.3830538304579982    
  0.3681375270994728    0.3499489844593631    0.33015935358799176    0.31057570302219345    0.29294865950074095    
  0.27873595714543214    0.26890138231777955    0.2639108535278425    0.26391085352784244    0.2689013823177795    
  0.27873595714543214    0.29294865950074095    0.31057570302219345    0.33015935358799176    0.34994898445936307    
  0.3681375270994728    0.3830538304579982    0.3934595475049398    0.39903378291225144    0.40071976180666163    
  0.4004323693742777    0.400072922498499    0.36896536127345697    0.36860607783464566    0.36716462777824393    
  0.3638099741559795    0.35781129556881835    0.34896957884190655    0.3376507906946514    0.32456158379894706    
  0.31057570302219345    0.29670284827121474    0.2840468269187294    0.27364934185313544    0.2663133563382448    
  0.26253403011776555    0.26253403011776555    0.2663133563382447    0.2736493418531355    0.2840468269187294    
  0.29670284827121474    0.31057570302219345    0.32456158379894706    0.33765079069465137    0.34896957884190655    
  0.3578112955688183    0.3638099741559795    0.36716462777824393    0.36860607783464566    0.36896536127345697    
  0.3308365724028355    0.3304538481048268    0.32915349855811954    0.32659730767149536    0.32251162682234386    
  0.3168591030129581    0.30982596342957064    0.3017220073492896    0.29294865950074095    0.28404682691872946    
  0.27570512762006066    0.26866307152184427    0.26357343748115925    0.26090662467013254    0.2609066246701325    
  0.2635734374811592    0.26866307152184427    0.27570512762006066    0.28404682691872946    0.29294865950074095    
  0.3017220073492896    0.30982596342957064    0.31685910301295805    0.3225116268223438    0.32659730767149536    
  0.32915349855811954    0.3304538481048268    0.3308365724028355    0.29666327804209097    0.2965090980505277    
  0.2959877911559397    0.2949567335736396    0.2932631628875302    0.29080131433720313    0.28752645745528205    
  0.28346082421523483    0.27873595714543214    0.27364934185313544    0.2686630715218443    0.26431730210446125    
  0.26111073362595294    0.2594112805329104    0.2594112805329104    0.26111073362595294    0.26431730210446125    
  0.2686630715218443    0.27364934185313544    0.2787359571454322    0.28346082421523483    0.287526457455282    
  0.29080131433720313    0.2932631628875302    0.2949567335736396    0.2959877911559397    0.2965090980505277    
  0.29666327804209097    0.2720016850739433    0.2720903295743914    0.27233685265784713    0.27266700787807374    
  0.2729256938902075    0.27288208636319533    0.2722858167518841    0.27096111263516176    0.2689013823177795    
  0.2663133563382447    0.26357343748115925    0.26111073362595294    0.25928441699443205    0.2583212566461741    
  0.25832125664617406    0.259284416994432    0.26111073362595294    0.26357343748115925    0.2663133563382447    
  0.26890138231777955    0.27096111263516176    0.2722858167518841    0.27288208636319533    0.2729256938902075    
  0.2726670078780737    0.2723368526578471    0.2720903295743914    0.2720016850739433    0.25924167081791355    
  0.25947603054338264    0.2601738354508022    0.2612793660677367    0.26261336479483927    0.2638571281809775    
  0.26463772566951926    0.26467572602065165    0.2639108535278425    0.26253403011776544    0.2609066246701324    
  0.2594112805329104    0.25832125664617417    0.2577615849886086    0.2577615849886087    0.2583212566461741    
  0.25941128053291035    0.2609066246701325    0.26253403011776544    0.2639108535278425    0.26467572602065165    
  0.26463772566951926    0.2638571281809775    0.26261336479483927    0.2612793660677367    0.2601738354508022    
  0.25947603054338264    0.25924167081791355    0.2592416708179136    0.25947603054338264    0.2601738354508022    
  0.2612793660677367    0.2626133647948393    0.2638571281809775    0.26463772566951915    0.2646757260206517    
  0.2639108535278425    0.26253403011776544    0.2609066246701325    0.2594112805329104    0.25832125664617417    
  0.2577615849886087    0.2577615849886087    0.2583212566461741    0.25941128053291035    0.2609066246701325    
  0.26253403011776544    0.2639108535278425    0.2646757260206517    0.2646377256695192    0.2638571281809775    
  0.2626133647948393    0.2612793660677367    0.2601738354508022    0.25947603054338264    0.2592416708179136    
  0.2720016850739433    0.2720903295743914    0.27233685265784713    0.27266700787807363    0.2729256938902075    
  0.27288208636319533    0.2722858167518841    0.2709611126351617    0.2689013823177795    0.2663133563382448    
  0.26357343748115925    0.26111073362595294    0.25928441699443205    0.25832125664617417    0.2583212566461741    
  0.259284416994432    0.26111073362595294    0.26357343748115925    0.2663133563382448    0.2689013823177795    
  0.2709611126351617    0.2722858167518841    0.2728820863631953    0.2729256938902075    0.2726670078780737    
  0.2723368526578471    0.2720903295743914    0.2720016850739433    0.29666327804209097    0.2965090980505277    
  0.29598779115593965    0.2949567335736396    0.2932631628875302    0.29080131433720313    0.287526457455282    
  0.28346082421523494    0.2787359571454322    0.27364934185313544    0.2686630715218443    0.26431730210446136    
  0.261110733625953    0.2594112805329104    0.2594112805329104    0.26111073362595294    0.26431730210446136    
  0.2686630715218443    0.27364934185313544    0.2787359571454322    0.28346082421523494    0.28752645745528205    
  0.29080131433720313    0.2932631628875302    0.29495673357363966    0.29598779115593965    0.2965090980505277    
  0.29666327804209097    0.3308365724028355    0.3304538481048268    0.32915349855811954    0.32659730767149536    
  0.3225116268223438    0.31685910301295805    0.3098259634295707    0.30172200734928967    0.29294865950074095    
  0.2840468269187294    0.27570512762006066    0.2686630715218443    0.26357343748115925    0.2609066246701325    
  0.2609066246701324    0.26357343748115925    0.2686630715218443    0.27570512762006066    0.2840468269187294    
  0.29294865950074095    0.30172200734928967    0.3098259634295707    0.31685910301295805    0.3225116268223438    
  0.32659730767149536    0.32915349855811954    0.3304538481048268    0.3308365724028355    0.36896536127345697    
  0.36860607783464566    0.36716462777824393    0.3638099741559795    0.35781129556881835    0.34896957884190655    
  0.3376507906946514    0.32456158379894706    0.31057570302219345    0.29670284827121474    0.2840468269187294    
  0.27364934185313544    0.2663133563382448    0.26253403011776555    0.26253403011776555    0.2663133563382447    
  0.2736493418531355    0.2840468269187294    0.29670284827121474    0.31057570302219345    0.32456158379894706    
  0.33765079069465137    0.34896957884190655    0.3578112955688183    0.3638099741559795    0.36716462777824393    
  0.36860607783464566    0.36896536127345697    0.40007292249849913    0.4004323693742777    0.40071976180666163    
  0.39903378291225144    0.3934595475049397    0.3830538304579982    0.3681375270994728    0.3499489844593631    
  0.33015935358799176    0.31057570302219345    0.29294865950074095    0.27873595714543214    0.26890138231777955    
  0.26391085352784244    0.26391085352784244    0.2689013823177795    0.27873595714543214    0.29294865950074095    
  0.31057570302219345    0.33015935358799176    0.3499489844593631    0.36813752709947273    0.3830538304579982    
  0.3934595475049397    0.3990337829122514    0.40071976180666163    0.4004323693742777    0.40007292249849913    
  0.4078139418970335    0.410112945195018    0.4155449816755145    0.4203872463512739    0.42039611252474873    
  0.4127440439540341    0.3970623977259271    0.3751533169819918    0.34994898445936323    0.3245615837989471    
  0.30172200734928967    0.28346082421523483    0.27096111263516176    0.26467572602065176    0.26467572602065176    
  0.2709611126351617    0.2834608242152349    0.3017220073492897    0.3245615837989471    0.34994898445936323    
  0.3751533169819918    0.3970623977259271    0.4127440439540341    0.42039611252474873    0.4203872463512739    
  0.4155449816755145    0.410112945195018    0.4078139418970335    0.3775508401695592    0.38307746376573343    
  0.3975173980612061    0.415039899403835    0.42806402311187564    0.4302940416082703    0.41931729060832074    
  0.3970623977259271    0.36813752709947273    0.3376507906946514    0.30982596342957064    0.287526457455282    
  0.2722858167518841    0.26463772566951926    0.26463772566951915    0.2722858167518841    0.28752645745528205    
  0.30982596342957064    0.3376507906946514    0.3681375270994728    0.3970623977259271    0.41931729060832074    
  0.4302940416082704    0.42806402311187564    0.415039899403835    0.3975173980612061    0.38307746376573343    
  0.3775508401695592    0.3090701210737156    0.3181582156846732    0.3431673793695316    0.37722387866191187    
  0.40967211985997826    0.429510559514537    0.4302940416082704    0.412744043954034    0.3830538304579982    
  0.3489695788419065    0.31685910301295805    0.29080131433720313    0.2728820863631954    0.2638571281809775    
  0.2638571281809775    0.27288208636319533    0.2908013143372031    0.31685910301295805    0.3489695788419065    
  0.3830538304579982    0.412744043954034    0.4302940416082704    0.429510559514537    0.40967211985997826    
  0.37722387866191187    0.3431673793695316    0.3181582156846732    0.3090701210737156    0.2219110829805232    
  0.23331311999891238    0.2661321762704875    0.31483210523353833    0.36783920574139106    0.40967211985997826    
  0.42806402311187564    0.42039611252474857    0.3934595475049398    0.3578112955688183    0.32251162682234374    
  0.2932631628875302    0.27292569389020754    0.26261336479483927    0.26261336479483927    0.27292569389020743    
  0.2932631628875302    0.3225116268223438    0.3578112955688183    0.3934595475049398    0.42039611252474857    
  0.42806402311187564    0.40967211985997826    0.36783920574139106    0.31483210523353833    0.2661321762704875    
  0.23331311999891238    0.2219110829805232    0.14313857343898528    0.1547648793651209    0.1898447069062819    
  0.2463677426181601    0.3148321052335383    0.37722387866191176    0.41503989940383496    0.4203872463512739    
  0.3990337829122514    0.3638099741559795    0.32659730767149536    0.2949567335736395    0.27266700787807374    
  0.2612793660677367    0.2612793660677367    0.2726670078780737    0.2949567335736395    0.32659730767149536    
  0.3638099741559795    0.3990337829122514    0.42038724635127384    0.41503989940383496    0.37722387866191176    
  0.3148321052335383    0.2463677426181601    0.18984470690628194    0.1547648793651209    0.14313857343898528    
  0.08912445553384327    0.09951499548485288    0.13242640694579574    0.18984470690628197    0.2661321762704876    
  0.3431673793695317    0.3975173980612061    0.4155449816755145    0.4007197618066618    0.36716462777824393    
  0.32915349855811965    0.29598779115593976    0.2723368526578472    0.2601738354508023    0.26017383545080225    
  0.27233685265784713    0.29598779115593976    0.32915349855811965    0.36716462777824393    0.4007197618066618    
  0.4155449816755145    0.3975173980612061    0.3431673793695317    0.2661321762704876    0.189844706906282    
  0.13242640694579574    0.09951499548485288    0.08912445553384327    0.06075076445329964    0.06977068549267196    
  0.09951499548485274    0.1547648793651209    0.2333131199989123    0.3181582156846732    0.38307746376573343    
  0.41011294519501795    0.4004323693742777    0.36860607783464566    0.3304538481048268    0.29650909805052766    
  0.27209032957439144    0.25947603054338264    0.2594760305433826    0.27209032957439144    0.29650909805052766    
  0.3304538481048268    0.36860607783464566    0.4004323693742777    0.41011294519501795    0.38307746376573343    
  0.3181582156846732    0.23331311999891233    0.15476487936512093    0.09951499548485274    0.06977068549267192    
  0.06075076445329964    0.05228530135129641    0.06075076445329973    0.08912445553384336    0.1431385734389853    
  0.2219110829805232    0.3090701210737157    0.3775508401695592    0.4078139418970336    0.40007292249849913    
  0.36896536127345714    0.33083657240283554    0.2966632780420911    0.2720016850739434    0.25924167081791366    
  0.25924167081791366    0.27200168507394334    0.2966632780420911    0.33083657240283554    0.36896536127345714    
  0.40007292249849913    0.4078139418970336    0.3775508401695592    0.3090701210737157    0.22191108298052326    
  0.14313857343898534    0.08912445553384336    0.06075076445329968    0.05228530135129641    0.06075076445329966    
  0.06977068549267196    0.09951499548485278    0.15476487936512084    0.23331311999891238    0.3181582156846731    
  0.38307746376573343    0.41011294519501795    0.4004323693742776    0.3686060778346457    0.3304538481048268    
  0.29650909805052766    0.2720903295743915    0.25947603054338264    0.25947603054338264    0.27209032957439144    
  0.29650909805052766    0.3304538481048268    0.3686060778346457    0.4004323693742776    0.41011294519501795    
  0.38307746376573343    0.3181582156846731    0.23331311999891238    0.15476487936512084    0.09951499548485278    
  0.06977068549267192    0.06075076445329966    0.06977068549267182    0.07930003024293875    0.1102655584592834    
  0.16650096839754439    0.24456354620482337    0.3269562705129828    0.3883468982515738    0.412284208089813    
  0.4007885375789042    0.36831777954315204    0.33017275647321964    0.2964641125279368    0.2722873103172727    
  0.259816815114863    0.25981681511486293    0.2722873103172726    0.2964641125279368    0.33017275647321964    
  0.36831777954315204    0.40078853757890426    0.412284208089813    0.3883468982515738    0.3269562705129828    
  0.24456354620482337    0.1665009683975444    0.11026555845928343    0.07930003024293875    0.06977068549267182    
  0.0995149954848527    0.11026555845928354    0.14393712423473665    0.2016366631019195    0.2767723264426956    
  0.3510679760630655    0.4020575194516536    0.41737870808845934    0.40108615087744487    0.3670861161535094    
  0.3291619512211577    0.296250565780832    0.2728378735963621    0.2608127594232489    0.2608127594232489    
  0.27283787359636197    0.296250565780832    0.3291619512211577    0.3670861161535094    0.40108615087744487    
  0.41737870808845934    0.4020575194516536    0.3510679760630655    0.2767723264426956    0.20163666310191952    
  0.14393712423473665    0.11026555845928357    0.0995149954848527    0.15476487936512082    0.16650096839754433    
  0.2016366631019194    0.25750801911545795    0.3241027583449563    0.38363130436686294    0.4185259141221022    
  0.42179879666057346    0.39947222681011646    0.3640685292431144    0.3270428881648646    0.295676224390668    
  0.2736166589707006    0.26235731367785436    0.2623573136778543    0.27361665897070053    0.295676224390668    
  0.3270428881648646    0.3640685292431144    0.39947222681011646    0.42179879666057346    0.4185259141221022    
  0.38363130436686294    0.3241027583449562    0.257508019115458    0.2016366631019194    0.16650096839754433    
  0.15476487936512082    0.2333131199989123    0.24456354620482343    0.2767723264426955    0.3241027583449562    
  0.3749264533807441    0.4142139856463392    0.43043491644378645    0.42146434773798624    0.3940806733673144    
  0.3585124585959347    0.323491693658852    0.29453180034200427    0.274413279408586    0.26421777820292847    
  0.26421777820292847    0.2744132794085859    0.2945318003420042    0.323491693658852    0.3585124585959347    
  0.3940806733673144    0.42146434773798624    0.43043491644378645    0.41421398564633916    0.3749264533807441    
  0.3241027583449563    0.2767723264426955    0.24456354620482343    0.2333131199989123    0.31815821568467306    
  0.32695627051298287    0.3510679760630655    0.383631304366863    0.41421398564633916    0.43226668811177227    
  0.4317919928917491    0.4136833178871211    0.38399209269828727    0.3501915590630762    0.31842887255266156    
  0.2926697163648435    0.2749592735963219    0.26604087319883496    0.26604087319883496    0.2749592735963219    
  0.29266971636484346    0.31842887255266156    0.3501915590630762    0.38399209269828727    0.4136833178871211    
  0.4317919928917491    0.4322666881117722    0.41421398564633916    0.383631304366863    0.35106797606306545    
  0.32695627051298287    0.31815821568467306    0.38307746376573343    0.3883468982515738    0.4020575194516535    
  0.4185259141221022    0.43043491644378645    0.4317919928917491    0.4203822765392287    0.39813765554632174    
  0.3695178875696289    0.33944744628812196    0.3120173076018092    0.2900265290429888    0.27499007846694484    
  0.26744226172629565    0.26744226172629565    0.2749900784669448    0.29002652904298887    0.31201730760180924    
  0.33944744628812196    0.3695178875696289    0.39813765554632174    0.4203822765392287    0.4317919928917491    
  0.43043491644378645    0.4185259141221022    0.4020575194516535    0.3883468982515738    0.38307746376573343    
  0.41011294519501784    0.41228420808981303    0.4173787080884593    0.42179879666057346    0.4214643477379863    
  0.4136833178871212    0.39813765554632174    0.37658594521620614    0.351860360679316    0.3269667727495478    
  0.30455680921556144    0.28661934285652857    0.27432752855974146    0.268141646267049    0.26814164626704895    
  0.2743275285597414    0.28661934285652857    0.30455680921556144    0.3269667727495478    0.351860360679316    
  0.37658594521620614    0.39813765554632174    0.4136833178871212    0.4214643477379863    0.42179879666057346    
  0.4173787080884592    0.41228420808981303    0.41011294519501784    0.4004323693742776    0.40078853757890426    
  0.4010861508774447    0.3994722268101165    0.3940806733673144    0.38399209269828727    0.3695178875696289    
  0.35186036067931586    0.33263799822285023    0.3135973589459147    0.29643311419362517    0.2825667575405398    
  0.27295276591125717    0.26806676293943205    0.268066762939432    0.2729527659112571    0.2825667575405398    
  0.29643311419362517    0.3135973589459147    0.33263799822285023    0.3518603606793158    0.3695178875696289    
  0.38399209269828727    0.3940806733673144    0.3994722268101165    0.4010861508774447    0.4007885375789043    
  0.4004323693742776    0.36860607783464566    0.368317779543152    0.36708611615350933    0.3640685292431144    
  0.35851245859593484    0.35019155906307625    0.3394474462881219    0.3269667727495478    0.3135973589459148    
  0.3003074380983744    0.28815046810914235    0.2781293238287025    0.27103432607211086    0.2673694726648806    
  0.26736947266488054    0.27103432607211086    0.2781293238287025    0.2881504681091424    0.3003074380983744    
  0.3135973589459148    0.3269667727495478    0.3394474462881219    0.35019155906307625    0.35851245859593484    
  0.3640685292431144    0.3670861161535093    0.36831777954315204    0.36860607783464566    0.3304538481048268    
  0.33017275647321964    0.3291619512211576    0.3270428881648646    0.323491693658852    0.31842887255266156    
  0.3120173076018092    0.3045568092155614    0.29643311419362517    0.2881504681091424    0.28034549675357534    
  0.2737135076844191    0.2688894497439085    0.26634978310027846    0.26634978310027835    0.26888944974390844    
  0.2737135076844191    0.28034549675357534    0.2881504681091424    0.29643311419362517    0.3045568092155614    
  0.3120173076018092    0.31842887255266156    0.323491693658852    0.3270428881648646    0.3291619512211576    
  0.3301727564732197    0.3304538481048268    0.2965090980505276    0.2964641125279368    0.296250565780832    
  0.29567622439066804    0.2945318003420042    0.29266971636484346    0.29002652904298887    0.28661934285652857    
  0.28256675754053984    0.2781293238287024    0.2737135076844192    0.2698092738113541    0.26689177455917995    
  0.26533170793184757    0.26533170793184757    0.2668917745591799    0.2698092738113541    0.2737135076844192    
  0.2781293238287024    0.28256675754053984    0.28661934285652857    0.2900265290429888    0.29266971636484346    
  0.2945318003420042    0.29567622439066804    0.296250565780832    0.2964641125279368    0.2965090980505276    
  0.27209032957439144    0.2722873103172726    0.27283787359636197    0.2736166589707006    0.2744132794085859    
  0.2749592735963219    0.2749900784669448    0.2743275285597414    0.2729527659112571    0.27103432607211086    
  0.26888944974390844    0.26689177455917995    0.2653720617813537    0.2645573251398246    0.26455732513982455    
  0.26537206178135364    0.2668917745591799    0.26888944974390844    0.27103432607211086    0.2729527659112571    
  0.2743275285597414    0.2749900784669448    0.27495927359632183    0.2744132794085859    0.2736166589707006    
  0.27283787359636197    0.2722873103172726    0.27209032957439144    0.25947603054338253    0.25981681511486304    
  0.2608127594232488    0.26235731367785436    0.26421777820292847    0.266040873198835    0.2674422617262957    
  0.26814164626704884    0.26806676293943205    0.2673694726648804    0.26634978310027835    0.2653317079318475    
  0.2645573251398246    0.2641506488050038    0.26415064880500383    0.2645573251398246    0.2653317079318475    
  0.26634978310027835    0.2673694726648804    0.26806676293943205    0.26814164626704884    0.2674422617262957    
  0.26604087319883507    0.26421777820292847    0.26235731367785436    0.2608127594232488    0.25981681511486304    
  0.25947603054338253    0.2594760305433826    0.25981681511486304    0.2608127594232488    0.26235731367785436    
  0.26421777820292847    0.266040873198835    0.26744226172629565    0.2681416462670489    0.26806676293943205    
  0.2673694726648804    0.26634978310027835    0.2653317079318475    0.26455732513982466    0.26415064880500383    
  0.26415064880500383    0.2645573251398246    0.26533170793184746    0.26634978310027835    0.2673694726648804    
  0.26806676293943205    0.2681416462670489    0.26744226172629565    0.26604087319883507    0.2642177782029285    
  0.26235731367785436    0.2608127594232488    0.259816815114863    0.2594760305433826    0.2720903295743914    
  0.2722873103172726    0.27283787359636197    0.27361665897070053    0.2744132794085859    0.27495927359632183    
  0.27499007846694484    0.2743275285597414    0.2729527659112571    0.27103432607211086    0.2688894497439085    
  0.26689177455917995    0.2653720617813537    0.26455732513982466    0.2645573251398246    0.26537206178135364    
  0.26689177455917995    0.2688894497439085    0.27103432607211086    0.2729527659112571    0.2743275285597414    
  0.2749900784669448    0.27495927359632183    0.2744132794085859    0.2736166589707006    0.27283787359636197    
  0.2722873103172726    0.2720903295743914    0.2965090980505276    0.2964641125279368    0.2962505657808319    
  0.29567622439066804    0.29453180034200427    0.29266971636484346    0.2900265290429888    0.2866193428565286    
  0.28256675754053984    0.2781293238287024    0.27371350768441916    0.26980927381135417    0.26689177455918    
  0.26533170793184757    0.26533170793184757    0.2668917745591799    0.26980927381135417    0.2737135076844192    
  0.2781293238287024    0.28256675754053984    0.2866193428565286    0.29002652904298887    0.29266971636484346    
  0.29453180034200427    0.29567622439066804    0.296250565780832    0.2964641125279368    0.2965090980505276    
  0.3304538481048268    0.33017275647321964    0.3291619512211576    0.32704288816486465    0.323491693658852    
  0.31842887255266156    0.31201730760180924    0.3045568092155614    0.29643311419362517    0.28815046810914235    
  0.28034549675357534    0.2737135076844192    0.2688894497439085    0.26634978310027835    0.26634978310027835    