#     DFTpy    
  CRYSTAL 
    
  PRIMVEC    
  3.1752413793103402    0.0    0.0    
  0.0    3.1752413793103402    0.0    
  0.0    0.0    3.1752413793103402    
  PRIMCOORD    
  2    1    
  Si    0.0    0.0    0.0    
  Si    1.5876206896551701    1.5876206896551701    1.5876206896551701    
  BEGIN_BLOCK_DATAGRID_3D    
  3d_datagrid_density    
  BEGIN_DATAGRID_3D#0    
  31    31    31    
  0.0    0.0    0.0    
  3.175241391154051    0.0    0.0    
  0.0    3.175241391154051    0.0    
  0.0    0.0    3.175241391154051    
  0.05557796209085559    0.06404044548726706    0.0921438846394224    0.1447813190278796    0.21975749831185434    
  0.299666959198803    0.3578225527485243    0.37661436297948925    0.3583343046197729    0.3184139905820501    
  0.27263493420527407    0.23084681483195515    0.19748752414273194    0.17392906794689386    0.16012717853932856    
  0.1556077963959959    0.16012717853932856    0.1739290679468938    0.19748752414273194    0.23084681483195515    
  0.27263493420527407    0.3184139905820501    0.35833430461977284    0.37661436297948925    0.3578225527485243    
  0.29966695919880304    0.21975749831185434    0.1447813190278796    0.09214388463942241    0.06404044548726706    
  0.05557796209085559    0.06404044548726705    0.0730034548389361    0.10230241212161602    0.15586393404445348    
  0.23020767635480063    0.30742291448899445    0.3618063189168723    0.3773783702651412    0.3573209063238648    
  0.31689724497170596    0.27129392072383235    0.22989328687177588    0.19690569868613003    0.17362234358736905    
  0.159981490234752    0.15551419407425127    0.159981490234752    0.173622343587369    0.19690569868613003    
  0.22989328687177588    0.2712939207238324    0.31689724497170596    0.35732090632386476    0.3773783702651412    
  0.3618063189168723    0.30742291448899456    0.23020767635480066    0.15586393404445348    0.10230241212161605    
  0.07300345483893605    0.06404044548726705    0.09214388463942237    0.10230241212161599    0.13422130558576556    
  0.189032423915724    0.25998834787023695    0.3284217888613117    0.37177309541079034    0.37845805980453007    
  0.35375099390031384    0.3121963166867408    0.267265985132708    0.22706260856880076    0.19518670549733216    
  0.17271660264459032    0.1595490320462205    0.15523439031952974    0.15954903204622048    0.17271660264459027    
  0.19518670549733216    0.2270626085688008    0.267265985132708    0.3121963166867408    0.3537509939003138    
  0.37845805980453007    0.37177309541079034    0.3284217888613117    0.259988347870237    0.189032423915724    
  0.13422130558576556    0.10230241212161599    0.09214388463942237    0.14478131902787955    0.15586393404445342    
  0.18903242391572392    0.24154736394129586    0.30315845489856813    0.3558424710763292    0.38234940261423067    
  0.3767897598566813    0.3463751249448061    0.30400729657292974    0.26059064423816125    0.22246569111757247    
  0.1924233641160172    0.17126896406743033    0.15885959481331366    0.1547883767561368    0.15885959481331366    
  0.1712689640674303    0.1924233641160172    0.22246569111757247    0.26059064423816125    0.3040072965729298    
  0.34637512494480605    0.3767897598566813    0.38234940261423067    0.3558424710763292    0.3031584548985682    
  0.24154736394129586    0.18903242391572392    0.15586393404445342    0.14478131902787955    0.21975749831185434    
  0.23020767635480063    0.259988347870237    0.3031584548985682    0.3479399129346838    0.3793891386861425    
  0.3866932292690599    0.3689798769647567    0.3340431314292084    0.29220807634539664    0.25146461509506673    
  0.21633074139913902    0.18879276200422368    0.16939838834001625    0.15799279840725233    0.15424238635367798    
  0.15799279840725233    0.1693983883400162    0.18879276200422368    0.216330741399139    0.25146461509506673    
  0.29220807634539664    0.3340431314292083    0.3689798769647567    0.3866932292690599    0.3793891386861425    
  0.34793991293468385    0.3031584548985682    0.25998834787023695    0.23020767635480063    0.21975749831185434    
  0.299666959198803    0.30742291448899445    0.3284217888613117    0.3558424710763292    0.3793891386861425    
  0.3889609371040697    0.37949951880194266    0.35307646246692426    0.31650437990796604    0.27714352656636504    
  0.24031837566029698    0.20900982911951596    0.1845444425625139    0.16727419440667496    0.15707181745642967    
  0.15370521261426268    0.15707181745642967    0.16727419440667493    0.1845444425625139    0.20900982911951596    
  0.24031837566029698    0.277143526566365    0.316504379907966    0.3530764624669242    0.37949951880194266    
  0.3889609371040697    0.37938913868614255    0.3558424710763292    0.3284217888613117    0.30742291448899445    
  0.299666959198803    0.3578225527485243    0.3618063189168723    0.3717730954107904    0.38234940261423067    
  0.3866932292690599    0.3794995188019427    0.35948653206658565    0.32955183883528244    0.2947032493667958    
  0.25968388047529056    0.22780579862646289    0.20094656569785802    0.1799599721800788    0.16507409450655933    
  0.15622237529936445    0.15328781749072773    0.15622237529936445    0.16507409450655924    0.1799599721800788    
  0.20094656569785793    0.22780579862646289    0.2596838804752905    0.2947032493667957    0.32955183883528244    
  0.35948653206658565    0.37949951880194266    0.3866932292690599    0.38234940261423067    0.3717730954107904    
  0.3618063189168723    0.3578225527485243    0.37661436297948925    0.37737837026514115    0.37845805980453    
  0.3767897598566813    0.3689798769647567    0.3530764624669242    0.32955183883528244    0.30091817533893167    
  0.2704540979414707    0.24104978750334158    0.21471767795172353    0.19262505593958026    0.17531381385511627    
  0.16294751610776145    0.1555345562517152    0.1530639512319561    0.15553455625171517    0.16294751610776137    
  0.17531381385511627    0.19262505593958024    0.21471767795172353    0.24104978750334152    0.2704540979414707    
  0.3009181753389317    0.32955183883528244    0.35307646246692426    0.36897987696475676    0.3767897598566813    
  0.37845805980453007    0.37737837026514115    0.37661436297948925    0.35833430461977295    0.35732090632386476    
  0.35375099390031384    0.34637512494480605    0.33404313142920844    0.3165043799079659    0.2947032493667957    
  0.27045409794147063    0.24580814935733253    0.22252748289136853    0.20185299891986314    0.1845120989741359    
  0.17085072813196814    0.16100748536697038    0.1550570847419046    0.1530638236133811    0.15505708474190458    
  0.1610074853669703    0.17085072813196814    0.1845120989741359    0.20185299891986314    0.22252748289136842    
  0.24580814935733244    0.27045409794147063    0.2947032493667957    0.31650437990796587    0.3340431314292085    
  0.34637512494480605    0.3537509939003139    0.35732090632386476    0.35833430461977295    0.3184139905820501    
  0.3168972449717059    0.3121963166867408    0.3040072965729298    0.29220807634539664    0.27714352656636504    
  0.2596838804752905    0.24104978750334152    0.22252748289136853    0.20521538900408418    0.1898881363954617    
  0.17699685474003662    0.1667692038158329    0.1593358823564928    0.15480960966610516    0.15328743970453118    
  0.1548096096661051    0.15933588235649274    0.1667692038158329    0.1769968547400366    0.1898881363954617    
  0.2052153890040841    0.22252748289136842    0.24104978750334152    0.2596838804752905    0.27714352656636504    
  0.29220807634539675    0.3040072965729298    0.3121963166867408    0.3168972449717059    0.3184139905820501    
  0.2726349342052741    0.27129392072383235    0.267265985132708    0.26059064423816114    0.25146461509506673    
  0.24031837566029693    0.22780579862646289    0.21471767795172347    0.2018529989198631    0.1898881363954617    
  0.17929550810378714    0.17034984396971695    0.16320539770706952    0.15797870759350716    0.1547818358334843    
  0.15370459997675753    0.15478183583348426    0.1579787075935071    0.16320539770706952    0.17034984396971695    
  0.17929550810378714    0.18988813639546165    0.20185299891986302    0.21471767795172347    0.22780579862646289    
  0.24031837566029687    0.25146461509506673    0.26059064423816114    0.267265985132708    0.27129392072383235    
  0.2726349342052741    0.2308468148319552    0.22989328687177596    0.22706260856880087    0.22246569111757247    
  0.21633074139913908    0.20900982911951596    0.20094656569785802    0.1926250559395802    0.184512098974136    
  0.17699685474003662    0.17034984396971706    0.16472971854104404    0.16023204194113402    0.15693679477968944    
  0.15492070516472486    0.15424156404454523    0.1549207051647249    0.15693679477968941    0.16023204194113402    
  0.16472971854104404    0.17034984396971703    0.1769968547400366    0.18451209897413595    0.1926250559395802    
  0.20094656569785802    0.20900982911951596    0.21633074139913913    0.22246569111757247    0.22706260856880087    
  0.2298932868717759    0.2308468148319552    0.19748752414273196    0.1969056986861301    0.19518670549733227    
  0.19242336411601724    0.18879276200422368    0.1845444425625139    0.17995997218007875    0.17531381385511632    
  0.17085072813196828    0.16676920381583293    0.16320539770706952    0.16023204194113405    0.15788132277284456    
  0.15617471612607492    0.1551363199763564    0.15478737847683968    0.1551363199763564    0.1561747161260749    
  0.15788132277284456    0.16023204194113405    0.16320539770706952    0.1667692038158329    0.17085072813196822    
  0.17531381385511632    0.17995997218007875    0.1845444425625139    0.18879276200422374    0.1924233641160172    
  0.19518670549733227    0.1969056986861301    0.19748752414273196    0.1739290679468939    0.1736223435873691    
  0.17271660264459032    0.17126896406743033    0.1693983883400162    0.167274194406675    0.16507409450655933    
  0.16294751610776137    0.16100748536697038    0.1593358823564928    0.15797870759350716    0.15693679477968941    
  0.15617471612607484    0.15564990248042967    0.15533769789407706    0.15523325731878898    0.15533769789407706    
  0.1556499024804296    0.15617471612607484    0.15693679477968947    0.15797870759350716    0.1593358823564927    
  0.16100748536697035    0.16294751610776137    0.16507409450655933    0.16727419440667496    0.16939838834001625    
  0.17126896406743033    0.17271660264459035    0.17362234358736908    0.1739290679468939    0.16012717853932856    
  0.159981490234752    0.1595490320462205    0.1588595948133137    0.1579927984072524    0.15707181745642967    
  0.15622237529936442    0.15553455625171525    0.15505708474190463    0.15480960966610519    0.1547818358334843    
  0.1549207051647248    0.15513631997635632    0.15533769789407706    0.15546892359425968    0.15551297537477812    
  0.1554689235942597    0.15533769789407703    0.15513631997635632    0.1549207051647248    0.15478183583348426    
  0.15480960966610513    0.15505708474190458    0.1555345562517152    0.15622237529936442    0.15707181745642967    
  0.15799279840725244    0.1588595948133137    0.1595490320462205    0.15998149023475194    0.16012717853932856    
  0.15560779639599592    0.1555141940742513    0.15523439031952976    0.1547883767561368    0.15424238635367804    
  0.15370521261426268    0.15328781749072773    0.153063951231956    0.1530638236133812    0.15328743970453118    
  0.1537045999767576    0.15424156404454514    0.1547873784768397    0.15523325731878895    0.15551297537477818    
  0.15560654811843588    0.1555129753747782    0.15523325731878895    0.1547873784768397    0.15424156404454517    
  0.1537045999767576    0.15328743970453113    0.15306382361338114    0.153063951231956    0.15328781749072773    
  0.15370521261426265    0.15424238635367804    0.1547883767561368    0.15523439031952974    0.15551419407425127    
  0.15560779639599592    0.1601271785393286    0.15998149023475192    0.15954903204622053    0.15885959481331371    
  0.15799279840725233    0.15707181745642967    0.15622237529936445    0.15553455625171525    0.15505708474190463    
  0.15480960966610516    0.15478183583348434    0.15492070516472486    0.15513631997635638    0.15533769789407711    
  0.1554689235942597    0.15551297537477812    0.15546892359425968    0.15533769789407703    0.15513631997635638    
  0.15492070516472486    0.15478183583348432    0.15480960966610507    0.15505708474190458    0.15553455625171522    
  0.15622237529936445    0.15707181745642967    0.15799279840725242    0.15885959481331371    0.15954903204622056    
  0.15998149023475192    0.1601271785393286    0.17392906794689383    0.17362234358736914    0.17271660264459032    
  0.1712689640674304    0.16939838834001625    0.16727419440667493    0.16507409450655938    0.1629475161077614    
  0.16100748536697043    0.15933588235649274    0.15797870759350716    0.15693679477968941    0.1561747161260748    
  0.15564990248042967    0.15533769789407711    0.15523325731878895    0.15533769789407711    0.15564990248042962    
  0.1561747161260748    0.15693679477968944    0.15797870759350716    0.15933588235649268    0.16100748536697035    
  0.16294751610776137    0.16507409450655938    0.16727419440667493    0.16939838834001625    0.1712689640674304    
  0.17271660264459035    0.17362234358736908    0.17392906794689383    0.19748752414273196    0.1969056986861301    
  0.19518670549733227    0.19242336411601724    0.18879276200422368    0.1845444425625139    0.17995997218007875    
  0.17531381385511632    0.17085072813196828    0.16676920381583293    0.16320539770706952    0.16023204194113405    
  0.15788132277284456    0.15617471612607492    0.1551363199763564    0.15478737847683968    0.1551363199763564    
  0.1561747161260749    0.15788132277284456    0.16023204194113405    0.16320539770706952    0.1667692038158329    
  0.17085072813196822    0.17531381385511632    0.17995997218007875    0.1845444425625139    0.18879276200422374    
  0.1924233641160172    0.19518670549733227    0.1969056986861301    0.19748752414273196    0.23084681483195524    
  0.2298932868717759    0.2270626085688008    0.22246569111757247    0.216330741399139    0.20900982911951596    
  0.20094656569785793    0.19262505593958015    0.184512098974136    0.1769968547400366    0.17034984396971706    
  0.16472971854104404    0.16023204194113405    0.15693679477968947    0.1549207051647249    0.1542415640445452    
  0.15492070516472486    0.15693679477968941    0.16023204194113405    0.16472971854104407    0.17034984396971703    
  0.17699685474003654    0.18451209897413598    0.19262505593958018    0.20094656569785793    0.20900982911951593    
  0.21633074139913902    0.22246569111757247    0.2270626085688008    0.22989328687177588    0.23084681483195524    
  0.2726349342052741    0.27129392072383235    0.26726598513270794    0.2605906442381612    0.25146461509506673    
  0.24031837566029693    0.22780579862646289    0.21471767795172353    0.2018529989198631    0.1898881363954617    
  0.1792955081037871    0.17034984396971695    0.16320539770706952    0.15797870759350713    0.15478183583348426    
  0.15370459997675753    0.1547818358334843    0.15797870759350707    0.16320539770706952    0.17034984396971695    
  0.17929550810378708    0.18988813639546162    0.20185299891986308    0.21471767795172353    0.22780579862646289    
  0.24031837566029693    0.25146461509506673    0.2605906442381612    0.26726598513270794    0.27129392072383235    
  0.2726349342052741    0.3184139905820501    0.31689724497170596    0.3121963166867408    0.3040072965729298    
  0.2922080763453967    0.27714352656636504    0.2596838804752905    0.24104978750334152    0.22252748289136856    
  0.20521538900408415    0.1898881363954617    0.17699685474003662    0.16676920381583293    0.1593358823564927    
  0.15480960966610513    0.15328743970453115    0.15480960966610516    0.15933588235649268    0.16676920381583293    
  0.17699685474003654    0.18988813639546165    0.2052153890040841    0.22252748289136848    0.24104978750334152    
  0.2596838804752905    0.27714352656636504    0.2922080763453967    0.3040072965729298    0.3121963166867408    
  0.3168972449717059    0.3184139905820501    0.35833430461977295    0.35732090632386476    0.3537509939003138    
  0.34637512494480605    0.3340431314292084    0.316504379907966    0.2947032493667957    0.2704540979414706    
  0.24580814935733247    0.22252748289136842    0.20185299891986314    0.18451209897413592    0.17085072813196817    
  0.1610074853669704    0.1550570847419046    0.15306382361338114    0.15505708474190458    0.1610074853669703    
  0.17085072813196817    0.18451209897413595    0.20185299891986314    0.22252748289136834    0.24580814935733244    
  0.2704540979414706    0.2947032493667957    0.3165043799079659    0.3340431314292084    0.34637512494480605    
  0.35375099390031384    0.3573209063238647    0.35833430461977295    0.37661436297948925    0.3773783702651411    
  0.37845805980453007    0.3767897598566813    0.3689798769647567    0.3530764624669242    0.3295518388352825    
  0.3009181753389316    0.2704540979414707    0.24104978750334163    0.21471767795172353    0.1926250559395802    
  0.17531381385511632    0.16294751610776148    0.1555345562517152    0.153063951231956    0.15553455625171517    
  0.16294751610776137    0.17531381385511632    0.1926250559395802    0.21471767795172353    0.24104978750334158    
  0.27045409794147063    0.30091817533893167    0.3295518388352825    0.3530764624669242    0.36897987696475676    
  0.3767897598566813    0.37845805980453007    0.3773783702651411    0.37661436297948925    0.3578225527485243    
  0.3618063189168723    0.3717730954107904    0.38234940261423067    0.3866932292690599    0.3794995188019427    
  0.35948653206658565    0.32955183883528244    0.2947032493667958    0.25968388047529056    0.22780579862646289    
  0.20094656569785802    0.1799599721800788    0.16507409450655933    0.15622237529936445    0.15328781749072773    
  0.15622237529936445    0.16507409450655924    0.1799599721800788    0.20094656569785793    0.22780579862646289    
  0.2596838804752905    0.2947032493667957    0.32955183883528244    0.35948653206658565    0.37949951880194266    
  0.3866932292690599    0.38234940261423067    0.3717730954107904    0.3618063189168723    0.3578225527485243    
  0.299666959198803    0.3074229144889944    0.3284217888613117    0.3558424710763292    0.3793891386861425    
  0.3889609371040697    0.37949951880194266    0.3530764624669242    0.316504379907966    0.27714352656636504    
  0.24031837566029698    0.20900982911951596    0.1845444425625139    0.16727419440667501    0.15707181745642962    
  0.15370521261426268    0.15707181745642962    0.16727419440667496    0.1845444425625139    0.20900982911951596    
  0.24031837566029698    0.27714352656636504    0.316504379907966    0.35307646246692426    0.37949951880194266    
  0.3889609371040697    0.37938913868614255    0.3558424710763292    0.3284217888613117    0.30742291448899445    
  0.299666959198803    0.21975749831185434    0.23020767635480066    0.259988347870237    0.30315845489856813    
  0.3479399129346838    0.3793891386861425    0.3866932292690599    0.3689798769647567    0.3340431314292084    
  0.2922080763453967    0.25146461509506673    0.216330741399139    0.18879276200422368    0.16939838834001625    
  0.15799279840725233    0.15424238635367796    0.15799279840725233    0.16939838834001616    0.18879276200422368    
  0.21633074139913902    0.25146461509506673    0.29220807634539664    0.3340431314292083    0.3689798769647567    
  0.3866932292690599    0.3793891386861425    0.34793991293468385    0.30315845489856813    0.259988347870237    
  0.23020767635480066    0.21975749831185434    0.14478131902787955    0.15586393404445342    0.18903242391572392    
  0.24154736394129586    0.30315845489856813    0.3558424710763292    0.38234940261423067    0.3767897598566813    
  0.3463751249448061    0.30400729657292974    0.2605906442381612    0.22246569111757247    0.1924233641160172    
  0.17126896406743033    0.15885959481331371    0.1547883767561368    0.1588595948133137    0.17126896406743033    
  0.1924233641160172    0.22246569111757247    0.26059064423816125    0.30400729657292974    0.34637512494480605    
  0.3767897598566813    0.38234940261423067    0.3558424710763293    0.30315845489856824    0.24154736394129586    
  0.18903242391572392    0.15586393404445342    0.14478131902787955    0.09214388463942237    0.10230241212161595    
  0.1342213055857656    0.18903242391572395    0.25998834787023695    0.3284217888613117    0.3717730954107904    
  0.37845805980453007    0.3537509939003138    0.31219631668674086    0.267265985132708    0.22706260856880076    
  0.19518670549733214    0.17271660264459035    0.1595490320462205    0.1552343903195297    0.1595490320462205    
  0.1727166026445903    0.19518670549733214    0.22706260856880076    0.267265985132708    0.3121963166867408    
  0.3537509939003137    0.37845805980453007    0.3717730954107904    0.3284217888613117    0.25998834787023695    
  0.18903242391572395    0.1342213055857656    0.1023024121216159    0.09214388463942237    0.06404044548726709    
  0.07300345483893605    0.10230241212161606    0.15586393404445342    0.23020767635480066    0.30742291448899445    
  0.36180631891687226    0.3773783702651412    0.3573209063238648    0.31689724497170596    0.27129392072383235    
  0.22989328687177582    0.19690569868613003    0.17362234358736903    0.15998149023475203    0.1555141940742513    
  0.159981490234752    0.17362234358736903    0.19690569868613003    0.22989328687177582    0.27129392072383235    
  0.3168972449717059    0.35732090632386476    0.37737837026514115    0.36180631891687226    0.30742291448899456    
  0.23020767635480066    0.15586393404445345    0.10230241212161605    0.07300345483893608    0.06404044548726709    
  0.05557796209085559    0.06404044548726706    0.0921438846394224    0.1447813190278796    0.21975749831185434    
  0.299666959198803    0.3578225527485243    0.37661436297948925    0.3583343046197729    0.3184139905820501    
  0.27263493420527407    0.23084681483195515    0.19748752414273194    0.17392906794689386    0.16012717853932856    
  0.1556077963959959    0.16012717853932856    0.1739290679468938    0.19748752414273194    0.23084681483195515    
  0.27263493420527407    0.3184139905820501    0.35833430461977284    0.37661436297948925    0.3578225527485243    
  0.29966695919880304    0.21975749831185434    0.1447813190278796    0.09214388463942241    0.06404044548726706    
  0.05557796209085559    0.06404044548726705    0.07300345483893601    0.10230241212161609    0.15586393404445342    
  0.23020767635480058    0.3074229144889945    0.36180631891687237    0.37737837026514115    0.35732090632386476    
  0.3168972449717059    0.2712939207238323    0.22989328687177588    0.1969056986861301    0.17362234358736908    
  0.15998149023475197    0.15551419407425124    0.15998149023475197    0.17362234358736903    0.1969056986861301    
  0.22989328687177588    0.27129392072383235    0.3168972449717059    0.35732090632386465    0.3773783702651411    
  0.36180631891687237    0.30742291448899456    0.23020767635480066    0.15586393404445345    0.10230241212161612    
  0.07300345483893603    0.06404044548726705    0.07300345483893599    0.08241783628245614    0.11275359548807196    
  0.16698241748550977    0.24043601094042225    0.3148311569384354    0.36548613751991166    0.37796876914903194    
  0.35625125460610696    0.3153911715973316    0.26999161880752975    0.22898782680743637    0.196374279521833    
  0.1733659842749181    0.15988559488466936    0.15547011330578783    0.15988559488466936    0.17336598427491803    
  0.196374279521833    0.22898782680743632    0.2699916188075298    0.3153911715973316    0.3562512546061069    
  0.37796876914903194    0.36548613751991166    0.3148311569384354    0.2404360109404223    0.16698241748550977    
  0.11275359548807196    0.08241783628245614    0.07300345483893599    0.10230241212161602    0.11275359548807189    
  0.1452288694064187    0.1999947108122107    0.26941419718655896    0.33478088857640326    0.37460395996285734    
  0.37859433696609157    0.35255613157709886    0.31074483473530895    0.2660905052070964    0.2263062569811544    
  0.1948085774153649    0.17261202679032953    0.15960260508846164    0.1553388031101887    0.15960260508846158    
  0.17261202679032947    0.1948085774153649    0.2263062569811544    0.26609050520709643    0.31074483473530895    
  0.3525561315770988    0.37859433696609157    0.37460395996285734    0.33478088857640326    0.269414197186559    
  0.1999947108122107    0.1452288694064187    0.11275359548807191    0.10230241212161602    0.15586393404445337    
  0.1669824174855097    0.19999471081221062    0.25154638850886846    0.31095522290980276    0.36051907501823377    
  0.3839858070600792    0.3763691763713028    0.3450928494902574    0.30270595841701875    0.2596524795702068    
  0.22196813869424697    0.1923034266306849    0.17141637989976488    0.15915971648544344    0.1551372911719332    
  0.15915971648544344    0.17141637989976485    0.1923034266306849    0.22196813869424692    0.2596524795702068    
  0.30270595841701875    0.34509284949025737    0.3763691763713028    0.3839858070600792    0.3605190750182338    
  0.3109552229098028    0.25154638850886846    0.19999471081221062    0.1669824174855097    0.15586393404445337    
  0.23020767635480063    0.24043601094042222    0.269414197186559    0.3109552229098028    0.3533047824761684    
  0.38204005730723434    0.3871098244882108    0.36811896441654074    0.3328216771792308    0.2911961644595731    
  0.25088705444712767    0.21620128817084333    0.1890295746427529    0.1698889751508647    0.15862648473199256    
  0.15492149994832197    0.1586264847319926    0.16988897515086468    0.18902957464275288    0.21620128817084333    
  0.25088705444712767    0.2911961644595731    0.33282167717923067    0.36811896441654074    0.3871098244882108    
  0.38204005730723434    0.3533047824761685    0.3109552229098028    0.269414197186559    0.24043601094042225    
  0.23020767635480063    0.3074229144889945    0.31483115693843533    0.3347808885764032    0.36051907501823377    
  0.38204005730723434    0.389737917101227    0.37900256158754575    0.3520536584206444    0.31554556292383923    
  0.27656442678398174    0.24021144201802536    0.20933951011384133    0.18521733437278345    0.16818032103279532    
  0.15810797111264238    0.15478241946762406    0.15810797111264238    0.16818032103279523    0.18521733437278345    
  0.20933951011384133    0.24021144201802536    0.2765644267839817    0.3155455629238392    0.3520536584206444    
  0.37900256158754575    0.389737917101227    0.38204005730723434    0.36051907501823377    0.3347808885764032    
  0.31483115693843533    0.3074229144889945    0.3618063189168723    0.36548613751991166    0.37460395996285734    
  0.3839858070600792    0.38710982448821074    0.37900256158754575    0.35856904902143444    0.32868131724638655    
  0.2941834446493533    0.2596403259784138    0.22823981213582545    0.2017915227792618    0.18111856919932046    
  0.1664429295152395    0.1577077608923798    0.15480995624195873    0.15770776089237978    0.16644292951523942    
  0.18111856919932046    0.2017915227792618    0.22823981213582545    0.2596403259784138    0.29418344464935325    
  0.32868131724638655    0.35856904902143444    0.37900256158754575    0.3871098244882108    0.3839858070600792    
  0.3746039599628574    0.36548613751991166    0.3618063189168723    0.3773783702651411    0.37796876914903194    
  0.3785943369660915    0.3763691763713028    0.36811896441654074    0.35205365842064434    0.32868131724638655    
  0.3004352878056266    0.27047208851412124    0.24158037787777462    0.21571098236094655    0.19399943881558412    
  0.17697430511992673    0.16479962240005724    0.1574937402351576    0.15505717830344018    0.15749374023515758    
  0.1647996224000572    0.17697430511992673    0.19399943881558412    0.21571098236094655    0.24158037787777456    
  0.27047208851412124    0.30043528780562667    0.32868131724638655    0.3520536584206444    0.36811896441654074    
  0.3763691763713028    0.37859433696609157    0.3779687691490319    0.3773783702651411    0.35732090632386476    
  0.3562512546061069    0.3525561315770989    0.34509284949025737    0.3328216771792308    0.3155455629238391    
  0.29418344464935325    0.2704720885141212    0.24638001880342658    0.22361162515508792    0.20337769977475198    
  0.1863927817158002    0.1729993428245402    0.16333901927029512    0.15749360927758915    0.15553439114483036    
  0.15749360927758912    0.16333901927029504    0.1729993428245402    0.18639278171580023    0.20337769977475198    
  0.22361162515508784    0.24638001880342647    0.2704720885141212    0.29418344464935325    0.31554556292383906    
  0.33282167717923083    0.34509284949025737    0.3525561315770989    0.3562512546061069    0.35732090632386476    
  0.3168972449717059    0.3153911715973315    0.31074483473530895    0.30270595841701875    0.2911961644595731    
  0.2765644267839818    0.2596403259784138    0.24158037787777456    0.22361162515508792    0.206794582552494    
  0.19188713858523135    0.1793363729048769    0.16937081045489255    0.16212302691968847    0.15770737333870613    
  0.15622195627980165    0.15770737333870607    0.16212302691968847    0.16937081045489255    0.1793363729048769    
  0.19188713858523135    0.20679458255249394    0.22361162515508784    0.24158037787777456    0.2596403259784138    