#     DFTpy    
  CRYSTAL 
    
  PRIMVEC    
  2.7277241379310304    0.0    0.0    
  0.0    2.7277241379310304    0.0    
  0.0    0.0    2.7277241379310304    
  PRIMCOORD    
  2    1    
  Si    0.0    0.0    0.0    
  Si    1.3638620689655203    1.3638620689655203    1.3638620689655203    
  BEGIN_BLOCK_DATAGRID_3D    
  3d_datagrid_density    
  BEGIN_DATAGRID_3D#0    
  26    26    26    
  0.0    0.0    0.0    
  2.7277241481054935    0.0    0.0    
  0.0    2.7277241481054935    0.0    
  0.0    0.0    2.7277241481054935    
  0.05115152376146866    0.060262957575764046    0.09117997885909554    0.15079687750359716    0.23794019975673908    
  0.3330619307742973    0.40544206890250856    0.4354545894918215    0.4266752543717409    0.3968995464572186    
  0.36346672426171783    0.33704993068141575    0.3228172843584401    0.3228172843584401    0.33704993068141575    
  0.36346672426171783    0.3968995464572186    0.4266752543717409    0.4354545894918215    0.40544206890250856    
  0.3330619307742973    0.23794019975673908    0.15079687750359716    0.09117997885909554    0.060262957575764046    
  0.05115152376146866    0.060262957575764095    0.07004089622183353    0.10261065453319737    0.16371743382026688    
  0.2505930857365807    0.34301920203543673    0.4114147745450239    0.4380269678302169    0.4273843028749155    
  0.3970405167234494    0.36367920489860045    0.33749136544528396    0.3234147463538774    0.3234147463538774    
  0.33749136544528396    0.36367920489860045    0.3970405167234494    0.4273843028749155    0.4380269678302169    
  0.4114147745450239    0.34301920203543673    0.2505930857365807    0.16371743382026688    0.10261065453319737    
  0.07004089622183353    0.060262957575764095    0.09117997885909554    0.10261065453319727    0.13900639907140358    
  0.20273838350173928    0.2869649949404056    0.37040333553231053    0.4271121688571372    0.4443401184008034    
  0.4288030908523137    0.39711412593551726    0.36408993351689445    0.33861352416905927    0.3250053803185552    
  0.3250053803185552    0.33861352416905927    0.36408993351689445    0.39711412593551726    0.4288030908523137    
  0.4443401184008034    0.4271121688571372    0.37040333553231053    0.2869649949404056    0.20273838350173928    
  0.13900639907140358    0.10261065453319727    0.09117997885909554    0.1507968775035971    0.16371743382026685    
  0.20273838350173928    0.265471690237643    0.34065789735408647    0.4075862488893701    0.44641426558411335    
  0.4507304772078897    0.4291280319552161    0.3962314718768653    0.3641185110039309    0.33990085643546286    
  0.32707703980809183    0.32707703980809183    0.33990085643546286    0.3641185110039309    0.3962314718768653    
  0.4291280319552161    0.4507304772078897    0.44641426558411335    0.4075862488893701    0.34065789735408647    
  0.265471690237643    0.20273838350173928    0.16371743382026685    0.1507968775035971    0.23794019975673908    
  0.25059308573658057    0.2869649949404056    0.34065789735408647    0.3983507415922326    0.44274656425369247    
  0.46124516969679374    0.4527988110709453    0.4262846962766166    0.3933642879144758    0.3630797712206676    
  0.3407445245804491    0.32902757263852317    0.32902757263852317    0.3407445245804491    0.3630797712206676    
  0.3933642879144758    0.4262846962766166    0.4527988110709453    0.46124516969679374    0.44274656425369247    
  0.3983507415922326    0.34065789735408647    0.2869649949404056    0.25059308573658057    0.23794019975673908    
  0.33306193077429735    0.34301920203543673    0.37040333553231053    0.4075862488893701    0.4427465642536926    
  0.4639550381417629    0.4648714112339076    0.4473537030630773    0.4188732133550974    0.3878034299261755    
  0.36046594527505105    0.34067059730559557    0.33037679041884077    0.33037679041884077    0.34067059730559557    
  0.36046594527505105    0.3878034299261755    0.4188732133550974    0.4473537030630773    0.4648714112339076    
  0.4639550381417629    0.4427465642536926    0.4075862488893701    0.37040333553231053    0.34301920203543673    
  0.33306193077429735    0.40544206890250845    0.4114147745450238    0.42711216885713715    0.44641426558411346    
  0.4612451696967938    0.4648714112339076    0.4548881000443953    0.4337558222684981    0.4067752208161492    
  0.3794819390243387    0.3561453189911142    0.339467898980655    0.3308585384606012    0.3308585384606012    
  0.339467898980655    0.3561453189911142    0.3794819390243387    0.4067752208161492    0.4337558222684981    
  0.4548881000443953    0.4648714112339076    0.4612451696967938    0.44641426558411346    0.42711216885713715    
  0.4114147745450238    0.40544206890250845    0.43545458949182136    0.4380269678302169    0.4443401184008034    
  0.45073047720788983    0.4527988110709453    0.4473537030630771    0.4337558222684982    0.413910727836541    
  0.3911665756435013    0.36904056232391663    0.3504070126479825    0.33718750752215115    0.33039259403173094    
  0.33039259403173094    0.33718750752215115    0.3504070126479825    0.36904056232391663    0.3911665756435013    
  0.413910727836541    0.4337558222684982    0.4473537030630771    0.4527988110709453    0.45073047720788983    
  0.4443401184008034    0.4380269678302169    0.43545458949182136    0.4266752543717408    0.4273843028749155    
  0.4288030908523137    0.4291280319552162    0.4262846962766166    0.41887321335509736    0.4067752208161491    
  0.3911665756435012    0.37404966543917095    0.35763816435883217    0.34385908968550694    0.33407326620916045    
  0.3290338411349802    0.3290338411349802    0.33407326620916045    0.34385908968550694    0.35763816435883217    
  0.37404966543917095    0.3911665756435012    0.4067752208161491    0.41887321335509736    0.4262846962766166    
  0.4291280319552162    0.4288030908523137    0.4273843028749155    0.4266752543717408    0.3968995464572186    
  0.39704051672344937    0.39711412593551726    0.3962314718768653    0.39336428791447575    0.3878034299261753    
  0.3794819390243388    0.3690405623239165    0.35763816435883217    0.34662902175421484    0.3372638070484846    
  0.33050786963143614    0.3269825033509607    0.3269825033509607    0.33050786963143614    0.3372638070484846    
  0.34662902175421484    0.35763816435883217    0.3690405623239165    0.3794819390243388    0.3878034299261753    
  0.39336428791447575    0.3962314718768653    0.39711412593551726    0.39704051672344937    0.3968995464572186    
  0.36346672426171783    0.36367920489860045    0.36408993351689445    0.3641185110039309    0.36307977122066765    
  0.360465945275051    0.3561453189911144    0.35040701264798274    0.34385908968550705    0.33726380704848463    
  0.33140378922301944    0.32699983385437953    0.3246314863011228    0.3246314863011228    0.32699983385437953    
  0.33140378922301944    0.33726380704848463    0.34385908968550705    0.35040701264798274    0.3561453189911144    
  0.360465945275051    0.36307977122066765    0.3641185110039309    0.36408993351689445    0.36367920489860045    
  0.36346672426171783    0.3370499306814157    0.3374913654452839    0.3386135241690592    0.3399008564354628    
  0.34074452458044907    0.34067059730559557    0.33946789898065505    0.33718750752215104    0.33407326620916045    
  0.3305078696314361    0.3269998338543794    0.324152794808048    0.32254668248330454    0.32254668248330454    
  0.324152794808048    0.3269998338543794    0.3305078696314361    0.33407326620916045    0.33718750752215104    
  0.33946789898065505    0.34067059730559557    0.34074452458044907    0.3399008564354628    0.3386135241690592    
  0.3374913654452839    0.3370499306814157    0.3228172843584401    0.3234147463538774    0.32500538031855514    
  0.32707703980809183    0.32902757263852317    0.33037679041884077    0.3308585384606013    0.330392594031731    
  0.32903384113498024    0.32698250335096074    0.3246314863011229    0.32254668248330465    0.3213150457726741    
  0.3213150457726741    0.32254668248330465    0.3246314863011229    0.32698250335096074    0.32903384113498024    
  0.330392594031731    0.3308585384606013    0.33037679041884077    0.32902757263852317    0.32707703980809183    
  0.32500538031855514    0.3234147463538774    0.3228172843584401    0.3228172843584401    0.3234147463538774    
  0.32500538031855514    0.32707703980809183    0.32902757263852317    0.33037679041884077    0.3308585384606013    
  0.330392594031731    0.32903384113498024    0.32698250335096074    0.3246314863011229    0.32254668248330465    
  0.3213150457726741    0.3213150457726741    0.32254668248330465    0.3246314863011229    0.32698250335096074    
  0.32903384113498024    0.330392594031731    0.3308585384606013    0.33037679041884077    0.32902757263852317    
  0.32707703980809183    0.32500538031855514    0.3234147463538774    0.3228172843584401    0.3370499306814157    
  0.3374913654452839    0.3386135241690592    0.3399008564354628    0.34074452458044907    0.34067059730559557    
  0.33946789898065505    0.33718750752215104    0.33407326620916045    0.3305078696314361    0.3269998338543794    
  0.324152794808048    0.32254668248330454    0.32254668248330454    0.324152794808048    0.3269998338543794    
  0.3305078696314361    0.33407326620916045    0.33718750752215104    0.33946789898065505    0.34067059730559557    
  0.34074452458044907    0.3399008564354628    0.3386135241690592    0.3374913654452839    0.3370499306814157    
  0.36346672426171783    0.36367920489860045    0.36408993351689445    0.3641185110039309    0.36307977122066765    
  0.360465945275051    0.3561453189911144    0.35040701264798274    0.34385908968550705    0.33726380704848463    
  0.33140378922301944    0.32699983385437953    0.3246314863011228    0.3246314863011228    0.32699983385437953    
  0.33140378922301944    0.33726380704848463    0.34385908968550705    0.35040701264798274    0.3561453189911144    
  0.360465945275051    0.36307977122066765    0.3641185110039309    0.36408993351689445    0.36367920489860045    
  0.36346672426171783    0.3968995464572186    0.39704051672344937    0.39711412593551726    0.3962314718768653    
  0.39336428791447575    0.3878034299261753    0.3794819390243388    0.3690405623239165    0.35763816435883217    
  0.34662902175421484    0.3372638070484846    0.33050786963143614    0.3269825033509607    0.3269825033509607    
  0.33050786963143614    0.3372638070484846    0.34662902175421484    0.35763816435883217    0.3690405623239165    
  0.3794819390243388    0.3878034299261753    0.39336428791447575    0.3962314718768653    0.39711412593551726    
  0.39704051672344937    0.3968995464572186    0.4266752543717408    0.4273843028749155    0.4288030908523137    
  0.4291280319552162    0.4262846962766166    0.41887321335509736    0.4067752208161491    0.3911665756435012    
  0.37404966543917095    0.35763816435883217    0.34385908968550694    0.33407326620916045    0.3290338411349802    
  0.3290338411349802    0.33407326620916045    0.34385908968550694    0.35763816435883217    0.37404966543917095    
  0.3911665756435012    0.4067752208161491    0.41887321335509736    0.4262846962766166    0.4291280319552162    
  0.4288030908523137    0.4273843028749155    0.4266752543717408    0.43545458949182136    0.4380269678302169    
  0.4443401184008034    0.45073047720788983    0.4527988110709453    0.4473537030630771    0.4337558222684982    
  0.413910727836541    0.3911665756435013    0.36904056232391663    0.3504070126479825    0.33718750752215115    
  0.33039259403173094    0.33039259403173094    0.33718750752215115    0.3504070126479825    0.36904056232391663    
  0.3911665756435013    0.413910727836541    0.4337558222684982    0.4473537030630771    0.4527988110709453    
  0.45073047720788983    0.4443401184008034    0.4380269678302169    0.43545458949182136    0.40544206890250845    
  0.4114147745450238    0.42711216885713715    0.44641426558411346    0.4612451696967938    0.4648714112339076    
  0.4548881000443953    0.4337558222684981    0.4067752208161492    0.3794819390243387    0.3561453189911142    
  0.339467898980655    0.3308585384606012    0.3308585384606012    0.339467898980655    0.3561453189911142    
  0.3794819390243387    0.4067752208161492    0.4337558222684981    0.4548881000443953    0.4648714112339076    
  0.4612451696967938    0.44641426558411346    0.42711216885713715    0.4114147745450238    0.40544206890250845    
  0.33306193077429735    0.34301920203543673    0.37040333553231053    0.4075862488893701    0.4427465642536926    
  0.4639550381417629    0.4648714112339076    0.4473537030630773    0.4188732133550974    0.3878034299261755    
  0.36046594527505105    0.34067059730559557    0.33037679041884077    0.33037679041884077    0.34067059730559557    
  0.36046594527505105    0.3878034299261755    0.4188732133550974    0.4473537030630773    0.4648714112339076    
  0.4639550381417629    0.4427465642536926    0.4075862488893701    0.37040333553231053    0.34301920203543673    
  0.33306193077429735    0.23794019975673908    0.25059308573658057    0.2869649949404056    0.34065789735408647    
  0.3983507415922326    0.44274656425369247    0.46124516969679374    0.4527988110709453    0.4262846962766166    
  0.3933642879144758    0.3630797712206676    0.3407445245804491    0.32902757263852317    0.32902757263852317    
  0.3407445245804491    0.3630797712206676    0.3933642879144758    0.4262846962766166    0.4527988110709453    
  0.46124516969679374    0.44274656425369247    0.3983507415922326    0.34065789735408647    0.2869649949404056    
  0.25059308573658057    0.23794019975673908    0.1507968775035971    0.16371743382026685    0.20273838350173928    
  0.265471690237643    0.34065789735408647    0.4075862488893701    0.44641426558411335    0.4507304772078897    
  0.4291280319552161    0.3962314718768653    0.3641185110039309    0.33990085643546286    0.32707703980809183    
  0.32707703980809183    0.33990085643546286    0.3641185110039309    0.3962314718768653    0.4291280319552161    
  0.4507304772078897    0.44641426558411335    0.4075862488893701    0.34065789735408647    0.265471690237643    
  0.20273838350173928    0.16371743382026685    0.1507968775035971    0.09117997885909554    0.10261065453319727    
  0.13900639907140358    0.20273838350173928    0.2869649949404056    0.37040333553231053    0.4271121688571372    
  0.4443401184008034    0.4288030908523137    0.39711412593551726    0.36408993351689445    0.33861352416905927    
  0.3250053803185552    0.3250053803185552    0.33861352416905927    0.36408993351689445    0.39711412593551726    
  0.4288030908523137    0.4443401184008034    0.4271121688571372    0.37040333553231053    0.2869649949404056    
  0.20273838350173928    0.13900639907140358    0.10261065453319727    0.09117997885909554    0.060262957575764095    
  0.07004089622183353    0.10261065453319737    0.16371743382026688    0.2505930857365807    0.34301920203543673    
  0.4114147745450239    0.4380269678302169    0.4273843028749155    0.3970405167234494    0.36367920489860045    
  0.33749136544528396    0.3234147463538774    0.3234147463538774    0.33749136544528396    0.36367920489860045    
  0.3970405167234494    0.4273843028749155    0.4380269678302169    0.4114147745450239    0.34301920203543673    
  0.2505930857365807    0.16371743382026688    0.10261065453319737    0.07004089622183353    0.060262957575764095    
  0.05115152376146866    0.060262957575764046    0.09117997885909554    0.15079687750359716    0.23794019975673908    
  0.3330619307742973    0.40544206890250856    0.4354545894918215    0.4266752543717409    0.3968995464572186    
  0.36346672426171783    0.33704993068141575    0.3228172843584401    0.3228172843584401    0.33704993068141575    
  0.36346672426171783    0.3968995464572186    0.4266752543717409    0.4354545894918215    0.40544206890250856    
  0.3330619307742973    0.23794019975673908    0.15079687750359716    0.09117997885909554    0.060262957575764046    
  0.05115152376146866    0.060262957575764095    0.07004089622183353    0.10261065453319733    0.1637174338202669    
  0.2505930857365807    0.34301920203543673    0.41141477454502395    0.438026967830217    0.4273843028749155    
  0.3970405167234494    0.36367920489860045    0.33749136544528396    0.32341474635387746    0.32341474635387746    
  0.33749136544528396    0.36367920489860045    0.3970405167234494    0.4273843028749155    0.438026967830217    
  0.41141477454502395    0.34301920203543673    0.2505930857365807    0.1637174338202669    0.10261065453319733    
  0.07004089622183353    0.060262957575764095    0.07004089622183357    0.08043494782903146    0.11448710370752707    
  0.17679706824451383    0.2631144174636752    0.3527081916181107    0.4171743697946624    0.4405279618965343    
  0.4281361923369873    0.3972762545305767    0.3639962442535446    0.33803184059148195    0.32410568520873345    
  0.32410568520873345    0.33803184059148195    0.3639962442535446    0.3972762545305767    0.4281361923369873    
  0.4405279618965343    0.4171743697946624    0.3527081916181107    0.2631144174636752    0.17679706824451383    
  0.11448710370752707    0.08043494782903146    0.07004089622183357    0.10261065453319733    0.114487103707527    
  0.15183578971513453    0.2159663200724501    0.2989022334799068    0.37924056218294006    0.4322545147579277    
  0.4466493424913946    0.4296860274339324    0.39762659891640734    0.3647145178001522    0.33945026355562496    
  0.3259795252038931    0.3259795252038931    0.33945026355562496    0.3647145178001522    0.39762659891640734    
  0.4296860274339324    0.4466493424913946    0.4322545147579277    0.37924056218294006    0.2989022334799068    
  0.2159663200724501    0.15183578971513453    0.114487103707527    0.10261065453319733    0.16371743382026682    
  0.1767970682445138    0.2159663200724501    0.2780506422245101    0.3511877070054159    0.41496148519622444    
  0.45063944671186684    0.45280329982394685    0.4302446817512235    0.3971879461336132    0.365240105319273    
  0.3412287260758308    0.32852965493995057    0.32852965493995057    0.3412287260758308    0.365240105319273    
  0.3971879461336132    0.4302446817512235    0.45280329982394685    0.45063944671186684    0.41496148519622444    
  0.3511877070054159    0.2780506422245101    0.2159663200724501    0.1767970682445138    0.16371743382026682    
  0.2505930857365807    0.26311441746367514    0.2989022334799068    0.3511877070054159    0.40656737961113215    
  0.44825821617140277    0.46448605598785137    0.45471764252376795    0.4277679633255689    0.39491976210975044    
  0.36487067742572815    0.34274864622151324    0.33115010020990726    0.33115010020990726    0.34274864622151324    
  0.36487067742572815    0.39491976210975044    0.4277679633255689    0.45471764252376795    0.46448605598785137    
  0.44825821617140277    0.40656737961113215    0.3511877070054159    0.2989022334799068    0.26311441746367514    
  0.2505930857365807    0.34301920203543673    0.35270819161811073    0.37924056218294006    0.41496148519622444    
  0.4482582161714028    0.46767900611029634    0.4673608753883158    0.4493285144497511    0.42088052724147146    
  0.39009422277188155    0.36306700555833915    0.3435024213683439    0.33332709761202295    0.33332709761202295    
  0.3435024213683439    0.36306700555833915    0.39009422277188155    0.42088052724147146    0.4493285144497511    
  0.4673608753883158    0.46767900611029634    0.4482582161714028    0.41496148519622444    0.37924056218294006    
  0.35270819161811073    0.34301920203543673    0.41141477454502384    0.4171743697946622    0.4322545147579275    
  0.45063944671186684    0.46448605598785137    0.4673608753883158    0.4570629473971701    0.43604817041657534    
  0.4094482758302163    0.38259941778006273    0.3596367961443336    0.34320917050185273    0.3347206406690536    
  0.3347206406690536    0.34320917050185273    0.3596367961443336    0.38259941778006273    0.4094482758302163    
  0.43604817041657534    0.4570629473971701    0.4673608753883158    0.46448605598785137    0.45063944671186684    
  0.4322545147579275    0.4171743697946622    0.41141477454502384    0.4380269678302169    0.4405279618965343    
  0.4466493424913946    0.45280329982394696    0.45471764252376795    0.4493285144497509    0.4360481704165755    
  0.4167246886422337    0.3945787481026568    0.37300003205593757    0.35478309094171073    0.3418262197766394    
  0.33515333727102853    0.33515333727102853    0.3418262197766394    0.35478309094171073    0.37300003205593757    
  0.3945787481026568    0.4167246886422337    0.4360481704165755    0.4493285144497509    0.45471764252376795    
  0.45280329982394696    0.4466493424913946    0.4405279618965343    0.4380269678302169    0.4273843028749154    
  0.4281361923369873    0.4296860274339324    0.4302446817512236    0.4277679633255689    0.42088052724147146    
  0.4094482758302162    0.3945787481026567    0.3781767244447664    0.3623675981409189    0.34902765614054154    
  0.3395113351632458    0.334594853733992    0.334594853733992    0.3395113351632458    0.34902765614054154    
  0.3623675981409189    0.3781767244447664    0.3945787481026567    0.4094482758302162    0.42088052724147146    
  0.4277679633255689    0.4302446817512236    0.4296860274339324    0.4281361923369873    0.4273843028749154    
  0.3970405167234494    0.39727625453057663    0.39762659891640734    0.3971879461336132    0.39491976210975044    
  0.3900942227718814    0.38259941778006284    0.3730000320559375    0.3623675981409189    0.351986410177511    
  0.34307272063059974    0.3365941634154608    0.33319642641430613    0.33319642641430613    0.3365941634154608    
  0.34307272063059974    0.351986410177511    0.3623675981409189    0.3730000320559375    0.38259941778006284    
  0.3900942227718814    0.39491976210975044    0.3971879461336132    0.39762659891640734    0.39727625453057663    
  0.3970405167234494    0.36367920489860045    0.3639962442535446    0.36471451780015224    0.36524010531927303    
  0.36487067742572815    0.36306700555833915    0.3596367961443338    0.35478309094171095    0.34902765614054165    
  0.3430727206305998    0.3376767273406518    0.33356502146631556    0.3313352985158633    0.3313352985158633    
  0.33356502146631556    0.3376767273406518    0.3430727206305998    0.34902765614054165    0.35478309094171095    
  0.3596367961443338    0.36306700555833915    0.36487067742572815    0.36524010531927303    0.36471451780015224    
  0.3639962442535446    0.36367920489860045    0.3374913654452839    0.3380318405914819    0.3394502635556249    
  0.34122872607583077    0.3427486462215132    0.3435024213683439    0.34320917050185284    0.3418262197766393    
  0.3395113351632458    0.3365941634154608    0.33356502146631545    0.33102982900126954    0.3295767199549346    
  0.3295767199549346    0.33102982900126954    0.33356502146631545    0.3365941634154608    0.3395113351632458    
  0.3418262197766393    0.34320917050185284    0.3435024213683439    0.3427486462215132    0.34122872607583077    
  0.3394502635556249    0.3380318405914819    0.3374913654452839    0.3234147463538774    0.32410568520873345    
  0.32597952520389306    0.32852965493995057    0.33115010020990726    0.33332709761202295    0.3347206406690537    
  0.33515333727102864    0.334594853733992    0.33319642641430625    0.3313352985158633    0.3295767199549347    
  0.32850843717469186    0.32850843717469186    0.3295767199549347    0.3313352985158633    0.33319642641430625    
  0.334594853733992    0.33515333727102864    0.3347206406690537    0.33332709761202295    0.33115010020990726    
  0.32852965493995057    0.32597952520389306    0.32410568520873345    0.3234147463538774    0.3234147463538774    
  0.32410568520873345    0.32597952520389306    0.32852965493995057    0.33115010020990726    0.33332709761202295    
  0.3347206406690537    0.33515333727102864    0.334594853733992    0.33319642641430625    0.3313352985158633    
  0.3295767199549347    0.32850843717469186    0.32850843717469186    0.3295767199549347    0.3313352985158633    
  0.33319642641430625    0.334594853733992    0.33515333727102864    0.3347206406690537    0.33332709761202295    
  0.33115010020990726    0.32852965493995057    0.32597952520389306    0.32410568520873345    0.3234147463538774    
  0.3374913654452839    0.3380318405914819    0.3394502635556249    0.34122872607583077    0.3427486462215132    
  0.3435024213683439    0.34320917050185284    0.3418262197766393    0.3395113351632458    0.3365941634154608    
  0.33356502146631545    0.33102982900126954    0.3295767199549346    0.3295767199549346    0.33102982900126954    
  0.33356502146631545    0.3365941634154608    0.3395113351632458    0.3418262197766393    0.34320917050185284    
  0.3435024213683439    0.3427486462215132    0.34122872607583077    0.3394502635556249    0.3380318405914819    
  0.3374913654452839    0.36367920489860045    0.3639962442535446    0.36471451780015224    0.36524010531927303    
  0.36487067742572815    0.36306700555833915    0.3596367961443338    0.35478309094171095    0.34902765614054165    
  0.3430727206305998    0.3376767273406518    0.33356502146631556    0.3313352985158633    0.3313352985158633    
  0.33356502146631556    0.3376767273406518    0.3430727206305998    0.34902765614054165    0.35478309094171095    
  0.3596367961443338    0.36306700555833915    0.36487067742572815    0.36524010531927303    0.36471451780015224    
  0.3639962442535446    0.36367920489860045    0.3970405167234494    0.39727625453057663    0.39762659891640734    
  0.3971879461336132    0.39491976210975044    0.3900942227718814    0.38259941778006284    0.3730000320559375    
  0.3623675981409189    0.351986410177511    0.34307272063059974    0.3365941634154608    0.33319642641430613    
  0.33319642641430613    0.3365941634154608    0.34307272063059974    0.351986410177511    0.3623675981409189    
  0.3730000320559375    0.38259941778006284    0.3900942227718814    0.39491976210975044    0.3971879461336132    
  0.39762659891640734    0.39727625453057663    0.3970405167234494    0.4273843028749154    0.4281361923369873    
  0.4296860274339324    0.4302446817512236    0.4277679633255689    0.42088052724147146    0.4094482758302162    
  0.3945787481026567    0.3781767244447664    0.3623675981409189    0.34902765614054154    0.3395113351632458    
  0.334594853733992    0.334594853733992    0.3395113351632458    0.34902765614054154    0.3623675981409189    
  0.3781767244447664    0.3945787481026567    0.4094482758302162    0.42088052724147146    0.4277679633255689    
  0.4302446817512236    0.4296860274339324    0.4281361923369873    0.4273843028749154    0.4380269678302169    
  0.4405279618965343    0.4466493424913946    0.45280329982394696    0.45471764252376795    0.4493285144497509    
  0.4360481704165755    0.4167246886422337    0.3945787481026568    0.37300003205593757    0.35478309094171073    
  0.3418262197766394    0.33515333727102853    0.33515333727102853    0.3418262197766394    0.35478309094171073    
  0.37300003205593757    0.3945787481026568    0.4167246886422337    0.4360481704165755    0.4493285144497509    
  0.45471764252376795    0.45280329982394696    0.4466493424913946    0.4405279618965343    0.4380269678302169    
  0.41141477454502384    0.4171743697946622    0.4322545147579275    0.45063944671186684    0.46448605598785137    
  0.4673608753883158    0.4570629473971701    0.43604817041657534    0.4094482758302163    0.38259941778006273    
  0.3596367961443336    0.34320917050185273    0.3347206406690536    0.3347206406690536    0.34320917050185273    
  0.3596367961443336    0.38259941778006273    0.4094482758302163    0.43604817041657534    0.4570629473971701    
  0.4673608753883158    0.46448605598785137    0.45063944671186684    0.4322545147579275    0.4171743697946622    
  0.41141477454502384    0.34301920203543673    0.35270819161811073    0.37924056218294006    0.41496148519622444    
  0.4482582161714028    0.46767900611029634    0.4673608753883158    0.4493285144497511    0.42088052724147146    
  0.39009422277188155    0.36306700555833915    0.3435024213683439    0.33332709761202295    0.33332709761202295    
  0.3435024213683439    0.36306700555833915    0.39009422277188155    0.42088052724147146    0.4493285144497511    
  0.4673608753883158    0.46767900611029634    0.4482582161714028    0.41496148519622444    0.37924056218294006    
  0.35270819161811073    0.34301920203543673    0.2505930857365807    0.26311441746367514    0.2989022334799068    
  0.3511877070054159    0.40656737961113215    0.44825821617140277    0.46448605598785137    0.45471764252376795    
  0.4277679633255689    0.39491976210975044    0.36487067742572815    0.34274864622151324    0.33115010020990726    
  0.33115010020990726    0.34274864622151324    0.36487067742572815    0.39491976210975044    0.4277679633255689    
  0.45471764252376795    0.46448605598785137    0.44825821617140277    0.40656737961113215    0.3511877070054159    
  0.2989022334799068    0.26311441746367514    0.2505930857365807    0.16371743382026682    0.1767970682445138    
  0.2159663200724501    0.2780506422245101    0.3511877070054159    0.41496148519622444    0.45063944671186684    
  0.45280329982394685    0.4302446817512235    0.3971879461336132    0.365240105319273    0.3412287260758308    
  0.32852965493995057    0.32852965493995057    0.3412287260758308    0.365240105319273    0.3971879461336132    
  0.4302446817512235    0.45280329982394685    0.45063944671186684    0.41496148519622444    0.3511877070054159    
  0.2780506422245101    0.2159663200724501    0.1767970682445138    0.16371743382026682    0.10261065453319733    