#     DFTpy    
  CRYSTAL 
    
  PRIMVEC    
  4.3260000000000005    0.0    0.0    
  0.0    4.3260000000000005    0.0    
  0.0    0.0    4.3260000000000005    
  PRIMCOORD    
  2    1    
  Si    0.0    0.0    0.0    
  Si    2.1630000000000003    2.1630000000000003    2.1630000000000003    
  BEGIN_BLOCK_DATAGRID_3D    
  3d_datagrid_density    
  BEGIN_DATAGRID_3D#0    
  46    46    46    
  0.0    0.0    0.0    
  4.326000016136063    0.0    0.0    
  0.0    4.326000016136063    0.0    
  0.0    0.0    4.326000016136063    
  0.062264238635112386    0.06953071288679533    0.09308434811009325    0.13626504295490185    0.19842198693759786    
  0.26896595472524204    0.3283493120640678    0.3584755628381271    0.3535945424367383    0.321370238039426    
  0.27521071171019207    0.2265540943856086    0.1820686762497025    0.14449065485277837    0.1142653436597347    
  0.09071830301028633    0.07275362116629949    0.059269125279887716    0.04934236902595105    0.04224692795708962    
  0.03741454270591312    0.03442069459353886    0.032989588809581714    0.03298958880958167    0.03442069459353889    
  0.037414542705913136    0.04224692795708961    0.04934236902595105    0.059269125279887695    0.0727536211662995    
  0.09071830301028636    0.11426534365973467    0.14449065485277837    0.1820686762497025    0.2265540943856086    
  0.275210711710192    0.321370238039426    0.3535945424367383    0.3584755628381271    0.32834931206406787    
  0.26896595472524204    0.19842198693759786    0.13626504295490183    0.09308434811009321    0.06953071288679528    
  0.062264238635112386    0.06953071288679533    0.07711232421189576    0.1014246173700194    0.1452265353312662    
  0.20704451098418433    0.27578076748059105    0.33224091765035463    0.3593711634173527    0.35235839458720464    
  0.31914032571388495    0.2728452023376982    0.22448876506978127    0.18043532488943986    0.14327058043283472    
  0.11338577379168435    0.09009819136108795    0.07232283487185832    0.058973792373259955    0.049142749220062884    
  0.042113159548617975    0.03732360648390309    0.034354869319016615    0.032935191004648375    0.03293519100464836    
  0.03435486931901662    0.03732360648390312    0.04211315954861797    0.0491427492200629    0.05897379237325991    
  0.07232283487185832    0.09009819136108795    0.11338577379168431    0.14327058043283472    0.1804353248894399    
  0.22448876506978122    0.27284520233769827    0.31914032571388495    0.3523583945872046    0.3593711634173527    
  0.3322409176503547    0.27578076748059105    0.2070445109841843    0.14522653533126623    0.10142461737001937    
  0.07711232421189565    0.06953071288679533    0.09308434811009328    0.10142461737001947    0.1274326413725001    
  0.17217158013310213    0.2319807563261497    0.29467268311673256    0.3423578468251161    0.3609585206667081    
  0.3481102603657165    0.312313113781645    0.2658066722913535    0.21840728649889793    0.17564331553441903    
  0.13969329142136214    0.11080461026402143    0.08827553932220569    0.07105457373089392    0.058103354202673374    
  0.04855431021662122    0.041719283517053736    0.03705663977501815    0.0341625498796957    0.03277694839658709    
  0.03277694839658705    0.03416254987969569    0.03705663977501818    0.04171928351705373    0.04855431021662122    
  0.05810335420267334    0.07105457373089392    0.0882755393222057    0.1108046102640214    0.13969329142136214    
  0.175643315534419    0.21840728649889787    0.26580667229135346    0.312313113781645    0.3481102603657166    
  0.3609585206667081    0.3423578468251161    0.29467268311673256    0.2319807563261497    0.17217158013310213    
  0.12743264137250004    0.10142461737001943    0.09308434811009328    0.1362650429549018    0.14522653533126628    
  0.17217158013310213    0.21570136709331303    0.26949645204608264    0.3207672123744682    0.3542895257368275    
  0.36032378338186477    0.33950994094741593    0.30060755338875056    0.2543046174406706    0.2086491426775978    
  0.16800433893188876    0.13399796693017624    0.10668974703175797    0.08536255106557784    0.06902251439748011    
  0.05670660328157095    0.04761015723044394    0.04108869538998079    0.036631453217326006    0.033858817525814267    
  0.03252895033712084    0.032528950337120804    0.03385881752581425    0.03663145321732603    0.041088695389980764    
  0.047610157230443935    0.05670660328157093    0.06902251439748011    0.08536255106557787    0.10668974703175792    
  0.13399796693017624    0.1680043389318888    0.2086491426775978    0.2543046174406706    0.30060755338875056    
  0.339509940947416    0.36032378338186477    0.35428952573682737    0.32076721237446826    0.2694964520460826    
  0.21570136709331308    0.17217158013310213    0.14522653533126625    0.1362650429549018    0.19842198693759786    
  0.20704451098418433    0.2319807563261497    0.2694964520460826    0.3114686517879917    0.34600653416687616    
  0.3618347312424247    0.3538560429683931    0.3251425591016803    0.2839197875581142    0.23878013152647165    
  0.19576386031280069    0.15799907865383914    0.12655210033826975    0.10130324967588863    0.08153947203890595    
  0.06634934241623294    0.05486745666370536    0.04636814796809292    0.04026188228287137    0.036077693037813344    
  0.033467448207581026    0.03221256149175112    0.0322125614917511    0.03346744820758101    0.03607769303781335    
  0.04026188228287136    0.04636814796809292    0.054867456663705336    0.06634934241623294    0.08153947203890596    
  0.10130324967588861    0.12655210033826977    0.1579990786538391    0.1957638603128007    0.23878013152647162    
  0.2839197875581142    0.3251425591016803    0.3538560429683931    0.3618347312424247    0.34600653416687616    
  0.31146865178799166    0.2694964520460826    0.23198075632614965    0.2070445109841843    0.19842198693759786    
  0.26896595472524204    0.27578076748059105    0.29467268311673256    0.32076721237446815    0.3460065341668761    
  0.36107920653640113    0.3591195667663283    0.3388076558015393    0.3043606543921739    0.26264650226180736    
  0.21996706996216223    0.1804781654508426    0.14622666520191407    0.11780868557988133    0.09497148107342887    
  0.07703604786252725    0.06319600594455241    0.05269870646898264    0.04490695316895531    0.03929360569181309    
  0.03543450662798965    0.033018700970112995    0.03185419281912918    0.03185419281912915    0.03301870097011297    
  0.035434506627989644    0.03929360569181306    0.04490695316895531    0.05269870646898262    0.0631960059445524    
  0.07703604786252728    0.09497148107342884    0.11780868557988136    0.14622666520191407    0.1804781654508426    
  0.21996706996216223    0.26264650226180736    0.3043606543921739    0.3388076558015393    0.3591195667663283    
  0.36107920653640113    0.3460065341668761    0.32076721237446826    0.29467268311673245    0.275780767480591    
  0.26896595472524204    0.32834931206406787    0.3322409176503547    0.3423578468251161    0.3542895257368275    
  0.3618347312424247    0.3591195667663283    0.34305484746383486    0.3145786196399514    0.2777955630589783    
  0.23781305369080263    0.19887476043284283    0.16363932236568418    0.13334563468016475    0.10825570418516488    
  0.08804550621934629    0.0721018784995116    0.059739832134986307    0.0503259595459351    0.043314590654059154    
  0.0382451536647565    0.034745585093680635    0.03254613102111261    0.03148293623365357    0.03148293623365357    
  0.03254613102111257    0.03474558509368062    0.03824515366475649    0.04331459065405915    0.05032595954593508    
  0.059739832134986286    0.0721018784995116    0.08804550621934629    0.10825570418516488    0.13334563468016475    
  0.16363932236568418    0.19887476043284283    0.23781305369080263    0.2777955630589783    0.3145786196399513    
  0.34305484746383486    0.3591195667663283    0.3618347312424247    0.3542895257368275    0.3423578468251161    
  0.3322409176503547    0.32834931206406787    0.358475562838127    0.3593711634173527    0.360958520666708    
  0.36032378338186477    0.3538560429683931    0.3388076558015393    0.3145786196399513    0.28296234245273116    
  0.24725513965778184    0.2109281684103891    0.17667814686257569    0.14613677510852138    0.12001386565253161    
  0.09836827847835965    0.08086312000171086    0.06697635719453825    0.056150657528394744    0.047869038880838564    
  0.04167471314893729    0.03717500064921473    0.0340532435145965    0.032082875692371976    0.031127883452878643    
  0.031127883452878643    0.03208287569237194    0.03405324351459653    0.03717500064921469    0.04167471314893729    
  0.047869038880838544    0.05615065752839473    0.06697635719453827    0.08086312000171086    0.09836827847835965    
  0.12001386565253164    0.14613677510852138    0.1766781468625757    0.2109281684103891    0.24725513965778184    
  0.28296234245273116    0.3145786196399513    0.3388076558015393    0.3538560429683931    0.36032378338186477    
  0.3609585206667081    0.3593711634173527    0.358475562838127    0.3535945424367383    0.3523583945872046    
  0.3481102603657165    0.3395099409474159    0.3251425591016803    0.3043606543921739    0.2777955630589783    
  0.24725513965778184    0.21512195471759293    0.18365694357514184    0.15455323115859881    0.12881327205269025    
  0.10683387563901817    0.0885723046335508    0.07372357210977808    0.06186985871002711    0.05257590108093632    
  0.045430098450711685    0.040057620502876125    0.036132411533619575    0.0333939564064485    0.03165834129428118    
  0.030815310751486916    0.030815310751486927    0.03165834129428117    0.03339395640644851    0.03613241153361955    
  0.040057620502876125    0.04543009845071166    0.0525759010809363    0.06186985871002711    0.07372357210977805    
  0.0885723046335508    0.10683387563901817    0.12881327205269025    0.15455323115859884    0.18365694357514184    
  0.215121954717593    0.24725513965778184    0.27779556305897823    0.3043606543921739    0.3251425591016803    
  0.339509940947416    0.34811026036571646    0.3523583945872046    0.3535945424367383    0.321370238039426    
  0.319140325713885    0.312313113781645    0.30060755338875056    0.2839197875581143    0.26264650226180736    
  0.23781305369080263    0.21092816841038914    0.1836569435751419    0.15748727631751064    0.13351588190736258    
  0.11238084278768277    0.09430767017303733    0.07922158488774798    0.06687677893419355    0.05695839112727166    
  0.04913736852503638    0.04309143784044784    0.038518638817757384    0.035155977893728756    0.03279670393781745    
  0.031296230368382916    0.030566485839775625    0.030566485839775618    0.031296230368382895    0.03279670393781749    
  0.03515597789372874    0.038518638817757384    0.043091437840447847    0.04913736852503638    0.0569583911272717    
  0.06687677893419354    0.07922158488774798    0.09430767017303736    0.11238084278768277    0.13351588190736263    
  0.15748727631751064    0.1836569435751419    0.21092816841038914    0.23781305369080263    0.26264650226180736    
  0.28391978755811426    0.3006075533887506    0.31231311378164495    0.319140325713885    0.321370238039426    
  0.275210711710192    0.2728452023376982    0.2658066722913535    0.2543046174406706    0.2387801315264717    
  0.21996706996216217    0.19887476043284283    0.17667814686257574    0.15455323115859884    0.13351588190736258    
  0.11430870885826773    0.09735832503848048    0.08280516683151032    0.07058477198907326    0.06051958957842614    
  0.05238391512993848    0.04593347020395515    0.0409186136815116    0.0371011469392169    0.03427568373901173    
  0.0322837152396574    0.031014177898461354    0.030396718845124057    0.030396718845124075    0.031014177898461344    
  0.032283715239657416    0.03427568373901173    0.03710114693921692    0.04091861368151159    0.04593347020395514    
  0.05238391512993849    0.060519589578426125    0.07058477198907324    0.08280516683151033    0.09735832503848048    
  0.11430870885826773    0.13351588190736258    0.15455323115859884    0.17667814686257574    0.19887476043284283    
  0.21996706996216223    0.23878013152647162    0.2543046174406706    0.26580667229135346    0.2728452023376982    
  0.275210711710192    0.2265540943856086    0.22448876506978122    0.21840728649889787    0.20864914267759777    
  0.19576386031280074    0.1804781654508426    0.16363932236568415    0.14613677510852138    0.12881327205269025    
  0.11238084278768275    0.09735832503848049    0.0840470335884718    0.0725524272976547    0.06283937604495621    
  0.054791744569618946    0.0482519344523396    0.04303919345063576    0.038962579066580426    0.035839598033464495    
  0.033515470387796294    0.031871975822896394    0.03082434645635752    0.030315498898563165    0.030315498898563165    
  0.03082434645635747    0.031871975822896394    0.033515470387796335    0.0358395980334645    0.038962579066580405    
  0.04303919345063575    0.0482519344523396    0.05479174456961894    0.06283937604495621    0.07255242729765474    
  0.08404703358847179    0.09735832503848048    0.11238084278768275    0.12881327205269025    0.14613677510852138    
  0.16363932236568415    0.1804781654508426    0.19576386031280074    0.2086491426775978    0.21840728649889787    
  0.2244887650697812    0.2265540943856086    0.18206867624970252    0.1804353248894399    0.17564331553441903    
  0.16800433893188876    0.15799907865383916    0.1462266652019141    0.13334563468016475    0.12001386565253166    
  0.1068338756390182    0.09430767017303733    0.08280516683151032    0.07255242729765471    0.06364405016399309    
  0.056074277852307244    0.04977185657461589    0.04462589418107397    0.0405022444719228    0.037258261676901196    
  0.03475961272723673    0.032893767016769215    0.0315737133690897    0.030733878248355582    0.03032699309394557    
  0.03032699309394557    0.030733878248355547    0.03157371336908975    0.032893767016769236    0.03475961272723674    
  0.03725826167690119    0.040502244471922785    0.044625894181073975    0.04977185657461587    0.056074277852307244    
  0.0636440501639931    0.07255242729765472    0.08280516683151035    0.09430767017303733    0.10683387563901817    
  0.12001386565253164    0.13334563468016475    0.14622666520191407    0.15799907865383916    0.16800433893188882    
  0.17564331553441903    0.1804353248894399    0.18206867624970252    0.14449065485277834    0.14327058043283467    
  0.1396932914213621    0.13399796693017618    0.12655210033826975    0.1178086855798814    0.10825570418516488    
  0.09836827847835963    0.0885723046335508    0.07922158488774794    0.07058477198907324    0.0628393760449562    
  0.0560742778523072    0.05030223230534809    0.04547923586448602    0.04152484736219163    0.038339920636310205    
  0.03582160234083376    0.033875284051070494    0.03242125186970793    0.03139497278823767    0.030744447301938486    
  0.030430275551075397    0.03043027555107541    0.030744447301938427    0.03139497278823765    0.03242125186970796    
  0.03387528405107052    0.035821602340833744    0.03833992063631023    0.04152484736219163    0.04547923586448598    
  0.05030223230534809    0.056074277852307224    0.06283937604495618    0.07058477198907323    0.07922158488774794    
  0.08857230463355079    0.09836827847835962    0.10825570418516482    0.11780868557988139    0.12655210033826975    
  0.13399796693017624    0.13969329142136208    0.1432705804328346    0.14449065485277834    0.11426534365973472    
  0.11338577379168435    0.11080461026402143    0.10668974703175797    0.10130324967588862    0.09497148107342888    
  0.0880455062193463    0.08086312000171086    0.07372357210977812    0.06687677893419351    0.06051958957842614    
  0.054791744569618904    0.04977185657461589    0.04547923586448598    0.041885034702272186    0.03892988583173341    
  0.036541724823046136    0.034648787065916856    0.03318619258416011    0.03209735315312297    0.03133300577910422    
  0.030851041842119162    0.03061907828843678    0.030619078288436758    0.030851041842119207    0.0313330057791042    
  0.032097353153123016    0.03318619258416011    0.034648787065916904    0.0365417248230461    0.038929885831733416    
  0.04188503470227215    0.04547923586448598    0.04977185657461589    0.05479174456961894    0.06051958957842614    
  0.06687677893419351    0.07372357210977806    0.08086312000171086    0.08804550621934629    0.09497148107342893    
  0.1013032496758886    0.10668974703175799    0.1108046102640214    0.11338577379168435    0.11426534365973472    
  0.09071830301028631    0.09009819136108795    0.0882755393222057    0.08536255106557787    0.08153947203890595    
  0.0770360478625273    0.0721018784995116    0.06697635719453825    0.06186985871002713    0.05695839112727163    
  0.052383915129938466    0.04825193445233959    0.04462589418107397    0.041524847362191634    0.03892988583173343    
  0.036798188278515644    0.0350782128415956    0.033719769928755805    0.03267720992738674    0.03190853354086141    
  0.031374628364952264    0.0310409606633475    0.030881254416985984    0.030881254416985936    0.0310409606633475    
  0.031374628364952264    0.03190853354086143    0.03267720992738679    0.033719769928755805    0.035078212841595624    
  0.03679818827851566    0.03892988583173343    0.04152484736219166    0.04462589418107398    0.04825193445233959    
  0.0523839151299385    0.05695839112727163    0.06186985871002714    0.06697635719453823    0.07210187849951158    
  0.07703604786252727    0.08153947203890596    0.08536255106557793    0.08827553932220569    0.09009819136108795    
  0.09071830301028631    0.07275362116629942    0.07232283487185831    0.0710545737308939    0.06902251439748004    
  0.0663493424162329    0.06319600594455237    0.05973983213498624    0.05615065752839473    0.052575901080936335    
  0.049137368525036314    0.04593347020395511    0.04303919345063576    0.040502244471922765    0.03833992063631024    
  0.03654172482304617    0.0350782128415956    0.0339118984039813    0.033005093097375246    0.03232254608166431    
  0.03183076801773329    0.03149762085852849    0.031294218570875096    0.031198487889346184    0.03119848788934616    
  0.031294218570875075    0.03149762085852849    0.03183076801773332    0.03232254608166431    0.03300509309737527    
  0.03391189840398123    0.0350782128415956    0.03654172482304615    0.03833992063631024    0.040502244471922765    
  0.043039193450635775    0.045933470203955155    0.049137368525036314    0.05257590108093631    0.05615065752839473    
  0.05973983213498624    0.06319600594455238    0.06634934241623293    0.06902251439748008    0.07105457373089387    
  0.07232283487185831    0.07275362116629942    0.059269125279887716    0.05897379237325996    0.058103354202673374    
  0.05670660328157089    0.05486745666370529    0.052698706468982656    0.05032595954593512    0.04786903888083858    
  0.04543009845071169    0.043091437840447847    0.040918613681511576    0.03896257906658046    0.037258261676901244    
  0.03582160234083378    0.03464878706591692    0.03371976992875585    0.033005093097375315    0.03247279790426161    
  0.03209243029444418    0.03183559273159445    0.03167514393882162    0.03158576782565034    0.031546927727958606    
  0.031546927727958606    0.03158576782565031    0.03167514393882162    0.03183559273159449    0.03209243029444418    
  0.03247279790426156    0.033005093097375246    0.033719769928755826    0.03464878706591688    0.03582160234083373    
  0.03725826167690128    0.03896257906658046    0.04091861368151159    0.043091437840447847    0.04543009845071169    
  0.04786903888083858    0.05032595954593512    0.05269870646898269    0.05486745666370533    0.05670660328157095    
  0.05810335420267336    0.05897379237325996    0.059269125279887716    0.04934236902595103    0.0491427492200629    
  0.04855431021662123    0.04761015723044389    0.046368147968092924    0.04490695316895533    0.04331459065405914    
  0.04167471314893733    0.040057620502876125    0.03851863881775735    0.037101146939216866    0.035839598033464516    
  0.0347596127272367    0.03387528405107054    0.03318619258416011    0.03267720992738681    0.03232254608166431    
  0.03209243029444418    0.03195862892520615    0.03189594889891872    0.03188050986816328    0.03188856704774746    
  0.031899028558270856    0.03189902855827081    0.03188856704774748    0.03188050986816328    0.03189594889891872    
  0.03195862892520615    0.03209243029444418    0.03232254608166429    0.03267720992738674    0.03318619258416013    
  0.03387528405107053    0.03475961272723672    0.03583959803346453    0.03710114693921689    0.03851863881775735    
  0.04005762050287613    0.04167471314893731    0.04331459065405914    0.04490695316895535    0.046368147968092924    
  0.04761015723044394    0.04855431021662122    0.049142749220062884    0.04934236902595103    0.04224692795708958    
  0.04211315954861793    0.041719283517053715    0.04108869538998074    0.04026188228287133    0.03929360569181311    
  0.03824515366475648    0.037175000649214716    0.03613241153361955    0.03515597789372873    0.034275683739011756    
  0.033515470387796314    0.0328937670167692    0.032421251869707964    0.03209735315312297    0.03190853354086141    
  0.03183076801773329    0.03183559273159449    0.03189594889891874    0.031988035028686405    0.03208917542563785    
  0.032175850003680784    0.03222610787257064    0.03222610787257064    0.032175850003680735    0.03208917542563785    
  0.031988035028686385    0.03189594889891874    0.03183559273159445    0.03183076801773325    0.03190853354086138    
  0.03209735315312295    0.03242125186970798    0.03289376701676922    0.033515470387796335    0.03427568373901177    
  0.03515597789372873    0.03613241153361955    0.037175000649214696    0.03824515366475646    0.039293605691813074    
  0.04026188228287134    0.04108869538998077    0.041719283517053715    0.04211315954861792    0.04224692795708958    
  0.03741454270591305    0.03732360648390307    0.03705663977501816    0.03663145321732598    0.03607769303781328    
  0.03543450662798962    0.03474558509368059    0.034053243514596494    0.03339395640644849    0.032796703937817424    
  0.03228371523965736    0.03187197582289636    0.0315737133690897    0.03139497278823765    0.03133300577910422    
  0.031374628364952264    0.03149762085852849    0.03167514393882164    0.031880509868163306    0.03208917542563788    
  0.03227757585996464    0.03242196078969377    0.03250082096714112    0.03250082096714112    0.03242196078969382    
  0.03227757585996461    0.03208917542563788    0.031880509868163306    0.0316751439388216    0.03149762085852844    
  0.03137462836495222    0.031333005779104174    0.03139497278823765    0.03157371336908973    0.031871975822896394    
  0.032283715239657396    0.032796703937817424    0.033393956406448475    0.03405324351459648    0.034745585093680594    
  0.03543450662798964    0.0360776930378133    0.036631453217326033    0.037056639775018156    0.03732360648390309    
  0.03741454270591305    0.034420694593538824    0.03435486931901657    0.03416254987969566    0.03385881752581424    
  0.03346744820758097    0.03301870097011299    0.03254613102111256    0.032082875692371955    0.031658341294281155    
  0.031296230368382874    0.031014177898461313    0.030824346456357486    0.030733878248355512    0.03074444730193845    
  0.030851041842119207    0.0310409606633475    0.031294218570875124    0.03158576782565031    0.03188856704774744    
  0.03217585000368076    0.03242196078969386    0.032603028006712595    0.03269932444164787    0.032699324441647845    
  0.03260302800671262    0.03242196078969384    0.032175850003680784    0.03188856704774744    0.03158576782565034    
  0.031294218570875075    0.031040960663347477    0.030851041842119183    0.03074444730193845    0.030733878248355512    
  0.030824346456357506    0.031014177898461347    0.031296230368382874    0.031658341294281155    0.03208287569237192    
  0.03254613102111255    0.03301870097011299    0.033467448207580984    0.03385881752581429    0.03416254987969566    
  0.034354869319016594    0.034420694593538824    0.032989588809581645    0.03293519100464834    0.03277694839658706    
  0.032528950337120804    0.032212561491751064    0.03185419281912922    0.03148293623365353    0.031127883452878664    
  0.030815310751486934    0.030566485839775576    0.030396718845124068    0.03031549889856313    0.03032699309394557    
  0.030430275551075397    0.03061907828843678    0.030881254416985866    0.03119848788934611    0.031546927727958606    
  0.03189902855827076    0.03222610787257062    0.032500820967141075    0.032699324441647915    0.03280353070073885    
  0.03280353070073885    0.032699324441647803    0.03250082096714112    0.03222610787257064    0.03189902855827076    
  0.031546927727958626    0.03119848788934609    0.030881254416985818    0.030619078288436734    0.03043027555107542    
  0.03032699309394563    0.03031549889856318    0.030396718845124085    0.030566485839775576    0.030815310751486944    
  0.03112788345287863    0.03148293623365352    0.03185419281912919    0.03221256149175107    0.032528950337120846    
  0.03277694839658706    0.03293519100464835    0.032989588809581645    0.032989588809581645    0.03293519100464835    
  0.03277694839658707    0.032528950337120804    0.03221256149175106    0.031854192819129205    0.03148293623365355    
  0.03112788345287867    0.03081531075148697    0.030566485839775583    0.030396718845124057    0.030315498898563154    
  0.03032699309394557    0.03043027555107542    0.03061907828843678    0.030881254416985866    0.031198487889346135    
  0.031546927727958626    0.03189902855827081    0.03222610787257064    0.032500820967141075    0.032699324441647894    
  0.032803530700738805    0.032803530700738805    0.032699324441647894    0.03250082096714112    0.032226107872570665    
  0.03189902855827081    0.031546927727958606    0.03119848788934609    0.030881254416985866    0.03061907828843678    
  0.03043027555107542    0.030326993093945615    0.030315498898563165    0.030396718845124085    0.030566485839775583    
  0.030815310751486937    0.031127883452878664    0.03148293623365352    0.03185419281912922    0.032212561491751036    
  0.032528950337120846    0.03277694839658706    0.03293519100464835    0.032989588809581645    0.03442069459353885    
  0.034354869319016566    0.034162549879695664    0.033858817525814246    0.03346744820758099    0.033018700970112974    
  0.032546131021112534    0.03208287569237196    0.03165834129428115    0.031296230368382874    0.03101417789846129    
  0.03082434645635745    0.030733878248355488    0.03074444730193845    0.03085104184211923    0.0310409606633475    
  0.03129421857087517    0.03158576782565036    0.03188856704774741    0.032175850003680735    0.03242196078969384    
  0.032603028006712595    0.03269932444164787    0.032699324441647845    0.03260302800671262    0.03242196078969384    
  0.032175850003680784    0.03188856704774746    0.03158576782565034    0.031294218570875096    0.0310409606633475    
  0.030851041842119207    0.030744447301938437    0.030733878248355512    0.030824346456357506    0.031014177898461313    
  0.031296230368382874    0.03165834129428115    0.03208287569237191    0.032546131021112534    0.033018700970112974    
  0.03346744820758097    0.03385881752581426    0.034162549879695664    0.034354869319016566    0.03442069459353885    
  0.03741454270591309    0.03732360648390307    0.03705663977501815    0.036631453217326    0.036077693037813316    
  0.03543450662798965    0.03474558509368059    0.034053243514596494    0.03339395640644848    0.03279670393781742    
  0.03228371523965737    0.03187197582289636    0.0315737133690897    0.0313949727882377    0.031333005779104244    
  0.031374628364952264    0.03149762085852851    0.03167514393882164    0.03188050986816328    0.03208917542563788    
  0.03227757585996466    0.03242196078969379    0.03250082096714112    0.032500820967141145    0.03242196078969379    
  0.03227757585996464    0.03208917542563785    0.03188050986816328    0.0316751439388216    0.03149762085852846    
  0.03137462836495222    0.031333005779104244    0.03139497278823766    0.03157371336908973    0.0318719758228964    
  0.032283715239657416    0.03279670393781742    0.03339395640644847    0.03405324351459648    0.034745585093680594    
  0.03543450662798966    0.03607769303781333    0.03663145321732602    0.03705663977501815    0.03732360648390311    
  0.03741454270591309    0.0422469279570896    0.042113159548617954    0.04171928351705372    0.04108869538998078    
  0.04026188228287132    0.0392936056918131    0.03824515366475646    0.03717500064921471    0.03613241153361956    
  0.03515597789372873    0.03427568373901174    0.0335154703877963    0.03289376701676922    0.03242125186970799    
  0.03209735315312297    0.03190853354086138    0.03183076801773325    0.03183559273159447    0.03189594889891874    
  0.03198803502868643    0.03208917542563785    0.032175850003680784    0.03222610787257062    0.03222610787257062    
  0.03217585000368076    0.03208917542563785    0.03198803502868648    0.03189594889891874    0.03183559273159447    
  0.03183076801773322    0.03190853354086141    0.03209735315312297    0.03242125186970798    0.03289376701676925    
  0.03351547038779633    0.03427568373901177    0.03515597789372873    0.03613241153361956    0.037175000649214696    
  0.03824515366475647    0.03929360569181312    0.04026188228287133    0.0410886953899808    0.041719283517053715    
  0.04211315954861793    0.0422469279570896    0.04934236902595103    0.0491427492200629    0.04855431021662123    