#     DFTpy    
  CRYSTAL 
    
  PRIMVEC    
  3.239172413793101    0.0    0.0    
  0.0    3.239172413793101    0.0    
  0.0    0.0    3.239172413793101    
  PRIMCOORD    
  2    1    
  Si    0.0    0.0    0.0    
  Si    1.6195862068965505    1.6195862068965505    1.6195862068965505    
  BEGIN_BLOCK_DATAGRID_3D    
  3d_datagrid_density    
  BEGIN_DATAGRID_3D#0    
  33    33    33    
  0.0    0.0    0.0    
  3.239172425875276    0.0    0.0    
  0.0    3.239172425875276    0.0    
  0.0    0.0    3.239172425875276    
  0.05611676813518757    0.0638522226952165    0.08934261251399651    0.13694375301654463    0.20580238303964152    
  0.28256860242848625    0.34413734263835066    0.3718537572739621    0.363204380098107    0.32961263157520115    
  0.28589780528055225    0.24279450542062953    0.20581822220140034    0.17708498306548195    0.1570127126037701    
  0.1452849916795149    0.14144320942325012    0.1452849916795149    0.1570127126037701    0.17708498306548195    
  0.20581822220140034    0.24279450542062953    0.28589780528055225    0.32961263157520115    0.363204380098107    
  0.3718537572739621    0.34413734263835066    0.28256860242848625    0.20580238303964152    0.13694375301654463    
  0.08934261251399651    0.0638522226952165    0.05611676813518757    0.06385222269521655    0.0720015293182404    
  0.09849866470431279    0.1469554495069869    0.21548059382947252    0.2901764407457353    0.348533205929863    
  0.37320230819118466    0.3626055368709327    0.32824142447234445    0.2844983619812145    0.24167546832459472    
  0.20503886398116614    0.17659972270560592    0.15673965937601136    0.145135473713222    0.14133363791466605    
  0.145135473713222    0.15673965937601136    0.17659972270560592    0.20503886398116614    0.24167546832459472    
  0.2844983619812145    0.32824142447234445    0.3626055368709327    0.37320230819118466    0.348533205929863    
  0.2901764407457353    0.21548059382947252    0.1469554495069869    0.09849866470431279    0.0720015293182404    
  0.06385222269521655    0.08934261251399649    0.09849866470431279    0.12727457110193793    0.1771066536314815    
  0.24338547758591772    0.311148693510157    0.3599222064969533    0.37599807980470756    0.36015029605935    
  0.3238584628348565    0.28021797377810065    0.23830752425761226    0.20271126247391819    0.17515703411265793    
  0.15593035321216855    0.14469337189761214    0.14101007557610618    0.14469337189761214    0.15593035321216855    
  0.17515703411265793    0.20271126247391819    0.23830752425761226    0.28021797377810065    0.3238584628348565    
  0.36015029605935    0.37599807980470756    0.3599222064969533    0.311148693510157    0.24338547758591772    
  0.1771066536314815    0.12727457110193793    0.09849866470431279    0.08934261251399649    0.1369437530165446    
  0.1469554495069868    0.17710665363148145    0.22570964442918257    0.28498941236124703    0.3397537123358952    
  0.3733106032513402    0.3770055280939039    0.3542402943058417    0.31587141565835813    0.27292196958838666    
  0.23271670369167835    0.198899794684208    0.17281659557485937    0.15462887596676386    0.14399020978138247    
  0.1404995575494112    0.14399020978138247    0.15462887596676386    0.17281659557485937    0.198899794684208    
  0.23271670369167835    0.27292196958838666    0.31587141565835813    0.3542402943058417    0.3770055280939039    
  0.3733106032513402    0.3397537123358952    0.28498941236124703    0.22570964442918257    0.17710665363148145    
  0.1469554495069868    0.1369437530165446    0.20580238303964146    0.2154805938294724    0.24338547758591766    
  0.28498941236124703    0.3306300574655567    0.36681995303602094    0.38196621856859975    0.3724128797638251    
  0.3432642156293466    0.3038574875072857    0.26266271136186026    0.22508407002575015    0.19378459836349804    
  0.16972004597375945    0.15293734371073825    0.14310224403075683    0.1398697446455587    0.14310224403075683    
  0.15293734371073825    0.16972004597375945    0.19378459836349804    0.22508407002575015    0.26266271136186026    
  0.3038574875072857    0.3432642156293466    0.3724128797638251    0.38196621856859975    0.36681995303602094    
  0.3306300574655567    0.28498941236124703    0.24338547758591766    0.2154805938294724    0.20580238303964146    
  0.2825686024284863    0.2901764407457352    0.31114869351015695    0.33975371233589524    0.36681995303602094    
  0.3823791455650182    0.37998954917338595    0.3595969330733767    0.3265442733616271    0.2879891514251541    
  0.24985223498642617    0.21581117646565362    0.18768252276126213    0.1660940988753766    0.15101358654872718    
  0.1421476379542602    0.13922636369724053    0.1421476379542602    0.15101358654872718    0.1660940988753766    
  0.18768252276126213    0.21581117646565362    0.24985223498642617    0.2879891514251541    0.3265442733616271    
  0.3595969330733767    0.37998954917338595    0.3823791455650182    0.36681995303602094    0.33975371233589524    
  0.31114869351015695    0.2901764407457352    0.2825686024284863    0.3441373426383506    0.348533205929863    
  0.3599222064969533    0.37331060325134025    0.38196621856859975    0.37998954917338595    0.3648729761509005    
  0.338308048237406    0.30475425793875666    0.269127400885348    0.23524713178093    0.2054757827756465    
  0.18099870550462877    0.1622066283907292    0.14903398096500314    0.1412544206990186    0.13868298123557982    
  0.1412544206990186    0.14903398096500314    0.1622066283907292    0.18099870550462877    0.2054757827756465    
  0.23524713178093    0.269127400885348    0.30475425793875666    0.338308048237406    0.3648729761509005    
  0.37998954917338595    0.38196621856859975    0.37331060325134025    0.3599222064969533    0.348533205929863    
  0.3441373426383506    0.3718537572739619    0.37320230819118466    0.37599807980470756    0.3770055280939039    
  0.37241287976382514    0.3595969330733767    0.338308048237406    0.31058565909085306    0.27963586501081295    
  0.24858267294713318    0.21978196609604886    0.19471556849654012    0.17414354542935104    0.15830712206350436    
  0.14714906451562945    0.14052373478368735    0.13832639849084263    0.14052373478368735    0.14714906451562945    
  0.15830712206350436    0.17414354542935104    0.19471556849654012    0.21978196609604886    0.24858267294713318    
  0.27963586501081295    0.31058565909085306    0.338308048237406    0.3595969330733767    0.37241287976382514    
  0.3770055280939039    0.37599807980470756    0.37320230819118466    0.3718537572739619    0.363204380098107    
  0.36260553687093267    0.36015029605935006    0.35424029430584175    0.3432642156293467    0.32654427336162706    
  0.30475425793875666    0.27963586501081295    0.25332446388483887    0.22775389522479889    0.20437359724126467    
  0.18411561396211937    0.16746813942804153    0.1545914851931854    0.1454635320036393    0.1400152719728114    
  0.1382030873356771    0.1400152719728114    0.1454635320036393    0.1545914851931854    0.16746813942804153    
  0.18411561396211937    0.20437359724126467    0.22775389522479889    0.25332446388483887    0.27963586501081295    
  0.30475425793875666    0.32654427336162706    0.3432642156293467    0.35424029430584175    0.36015029605935006    
  0.36260553687093267    0.363204380098107    0.3296126315752012    0.32824142447234433    0.3238584628348565    
  0.31587141565835825    0.30385748750728575    0.28798915142515413    0.269127400885348    0.24858267294713327    
  0.22775389522479894    0.20785381700462738    0.189787879098268    0.17414427508398647    0.16124054474037827    
  0.1512005114116125    0.14404307085250528    0.13975495720570008    0.13832633655575036    0.13975495720570008    
  0.14404307085250528    0.1512005114116125    0.16124054474037827    0.17414427508398647    0.189787879098268    
  0.20785381700462738    0.22775389522479894    0.24858267294713327    0.269127400885348    0.28798915142515413    
  0.30385748750728575    0.31587141565835825    0.3238584628348565    0.32824142447234433    0.3296126315752012    
  0.28589780528055225    0.2844983619812145    0.2802179737781006    0.27292196958838677    0.26266271136186037    
  0.24985223498642622    0.23524713178093007    0.21978196609604897    0.20437359724126472    0.18978787909826805    
  0.1765873496120433    0.1651383065456138    0.15565124672560712    0.14823201940272476    0.14292522308038952    
  0.13974282849264855    0.1386828599417193    0.13974282849264855    0.14292522308038952    0.14823201940272476    
  0.15565124672560712    0.1651383065456138    0.1765873496120433    0.18978787909826805    0.20437359724126472    
  0.21978196609604897    0.23524713178093007    0.24985223498642622    0.26266271136186037    0.27292196958838677    
  0.2802179737781006    0.2844983619812145    0.28589780528055225    0.2427945054206296    0.24167546832459472    
  0.2383075242576123    0.23271670369167843    0.22508407002575023    0.2158111764656536    0.20547578277564646    
  0.19471556849654018    0.18411561396211937    0.1741442750839865    0.16513830654561376    0.15732007518005064    
  0.1508286148145223    0.1457471392520984    0.14211733191057072    0.13994718478637616    0.13922618855765742    
  0.13994718478637616    0.14211733191057072    0.1457471392520984    0.1508286148145223    0.15732007518005064    
  0.16513830654561376    0.1741442750839865    0.18411561396211937    0.19471556849654018    0.20547578277564646    
  0.2158111764656536    0.22508407002575023    0.23271670369167843    0.2383075242576123    0.24167546832459472    
  0.2427945054206296    0.20581822220140034    0.20503886398116603    0.20271126247391824    0.19889979468420807    
  0.19378459836349804    0.18768252276126213    0.18099870550462874    0.17414354542935104    0.16746813942804156    
  0.16124054474037824    0.15565124672560696    0.15082861481452225    0.14685368297388993    0.1437700687668626    
  0.14158907787782457    0.14029663110030952    0.1398695236599033    0.14029663110030952    0.14158907787782457    
  0.1437700687668626    0.14685368297388993    0.15082861481452225    0.15565124672560696    0.16124054474037824    
  0.16746813942804156    0.17414354542935104    0.18099870550462874    0.18768252276126213    0.19378459836349804    
  0.19889979468420807    0.20271126247391824    0.20503886398116603    0.20581822220140034    0.17708498306548193    
  0.1765997227056058    0.17515703411265793    0.17281659557485937    0.16972004597375945    0.1660940988753766    
  0.16220662839072916    0.15830712206350436    0.15459148519318544    0.1512005114116125    0.14823201940272468    
  0.14574713925209834    0.14377006876686257    0.14229113895919984    0.14127792389297056    0.14069101831780742    
  0.140499299788867    0.14069101831780742    0.14127792389297056    0.14229113895919984    0.14377006876686257    
  0.14574713925209834    0.14823201940272468    0.1512005114116125    0.15459148519318544    0.15830712206350436    
  0.16220662839072916    0.1660940988753766    0.16972004597375945    0.17281659557485937    0.17515703411265793    
  0.1765997227056058    0.17708498306548193    0.15701271260376998    0.15673965937601136    0.15593035321216853    
  0.1546288759667639    0.1529373437107383    0.15101358654872712    0.14903398096500314    0.14714906451562945    
  0.14546353200363923    0.14404307085250534    0.1429252230803895    0.14211733191057072    0.14158907787782454    
  0.1412779238929706    0.14111164557425954    0.14103289480729805    0.14100979028913718    0.14103289480729805    
  0.14111164557425954    0.1412779238929706    0.14158907787782454    0.14211733191057072    0.1429252230803895    
  0.14404307085250534    0.14546353200363923    0.14714906451562945    0.14903398096500314    0.15101358654872712    
  0.1529373437107383    0.1546288759667639    0.15593035321216853    0.15673965937601136    0.15701271260376998    
  0.14528499167951486    0.145135473713222    0.14469337189761214    0.14399020978138252    0.1431022440307569    
  0.14214763795426025    0.14125442069901858    0.1405237347836873    0.14001527197281147    0.13975495720570005    
  0.13974282849264855    0.1399471847863761    0.1402966311003096    0.1406910183178075    0.14103289480729805    
  0.14125660983205715    0.1413333350685604    0.14125660983205715    0.14103289480729805    0.1406910183178075    
  0.1402966311003096    0.1399471847863761    0.13974282849264855    0.13975495720570005    0.14001527197281147    
  0.1405237347836873    0.14125442069901858    0.14214763795426025    0.1431022440307569    0.14399020978138252    
  0.14469337189761214    0.145135473713222    0.14528499167951486    0.1414432094232502    0.14133363791466602    
  0.14101007557610612    0.14049955754941126    0.13986974464555874    0.13922636369724048    0.1386829812355798    
  0.13832639849084263    0.1382030873356771    0.13832633655575027    0.13868285994171925    0.1392261885576574    
  0.1398695236599033    0.14049929978886697    0.14100979028913715    0.1413333350685604    0.14144290045537777    
  0.1413333350685604    0.14100979028913715    0.14049929978886697    0.1398695236599033    0.1392261885576574    
  0.13868285994171925    0.13832633655575027    0.1382030873356771    0.13832639849084263    0.1386829812355798    
  0.13922636369724048    0.13986974464555874    0.14049955754941126    0.14101007557610612    0.14133363791466602    
  0.1414432094232502    0.14528499167951486    0.145135473713222    0.14469337189761214    0.14399020978138252    
  0.1431022440307569    0.14214763795426025    0.14125442069901858    0.1405237347836873    0.14001527197281147    
  0.13975495720570005    0.13974282849264855    0.1399471847863761    0.1402966311003096    0.1406910183178075    
  0.14103289480729805    0.14125660983205715    0.1413333350685604    0.14125660983205715    0.14103289480729805    
  0.1406910183178075    0.1402966311003096    0.1399471847863761    0.13974282849264855    0.13975495720570005    
  0.14001527197281147    0.1405237347836873    0.14125442069901858    0.14214763795426025    0.1431022440307569    
  0.14399020978138252    0.14469337189761214    0.145135473713222    0.14528499167951486    0.15701271260376998    
  0.15673965937601136    0.15593035321216853    0.1546288759667639    0.1529373437107383    0.15101358654872712    
  0.14903398096500314    0.14714906451562945    0.14546353200363923    0.14404307085250534    0.1429252230803895    
  0.14211733191057072    0.14158907787782454    0.1412779238929706    0.14111164557425954    0.14103289480729805    
  0.14100979028913718    0.14103289480729805    0.14111164557425954    0.1412779238929706    0.14158907787782454    
  0.14211733191057072    0.1429252230803895    0.14404307085250534    0.14546353200363923    0.14714906451562945    
  0.14903398096500314    0.15101358654872712    0.1529373437107383    0.1546288759667639    0.15593035321216853    
  0.15673965937601136    0.15701271260376998    0.17708498306548193    0.1765997227056058    0.17515703411265793    
  0.17281659557485937    0.16972004597375945    0.1660940988753766    0.16220662839072916    0.15830712206350436    
  0.15459148519318544    0.1512005114116125    0.14823201940272468    0.14574713925209834    0.14377006876686257    
  0.14229113895919984    0.14127792389297056    0.14069101831780742    0.140499299788867    0.14069101831780742    
  0.14127792389297056    0.14229113895919984    0.14377006876686257    0.14574713925209834    0.14823201940272468    
  0.1512005114116125    0.15459148519318544    0.15830712206350436    0.16220662839072916    0.1660940988753766    
  0.16972004597375945    0.17281659557485937    0.17515703411265793    0.1765997227056058    0.17708498306548193    
  0.20581822220140034    0.20503886398116603    0.20271126247391824    0.19889979468420807    0.19378459836349804    
  0.18768252276126213    0.18099870550462874    0.17414354542935104    0.16746813942804156    0.16124054474037824    
  0.15565124672560696    0.15082861481452225    0.14685368297388993    0.1437700687668626    0.14158907787782457    
  0.14029663110030952    0.1398695236599033    0.14029663110030952    0.14158907787782457    0.1437700687668626    
  0.14685368297388993    0.15082861481452225    0.15565124672560696    0.16124054474037824    0.16746813942804156    
  0.17414354542935104    0.18099870550462874    0.18768252276126213    0.19378459836349804    0.19889979468420807    
  0.20271126247391824    0.20503886398116603    0.20581822220140034    0.2427945054206296    0.24167546832459472    
  0.2383075242576123    0.23271670369167843    0.22508407002575023    0.2158111764656536    0.20547578277564646    
  0.19471556849654018    0.18411561396211937    0.1741442750839865    0.16513830654561376    0.15732007518005064    
  0.1508286148145223    0.1457471392520984    0.14211733191057072    0.13994718478637616    0.13922618855765742    
  0.13994718478637616    0.14211733191057072    0.1457471392520984    0.1508286148145223    0.15732007518005064    
  0.16513830654561376    0.1741442750839865    0.18411561396211937    0.19471556849654018    0.20547578277564646    
  0.2158111764656536    0.22508407002575023    0.23271670369167843    0.2383075242576123    0.24167546832459472    
  0.2427945054206296    0.28589780528055225    0.2844983619812145    0.2802179737781006    0.27292196958838677    
  0.26266271136186037    0.24985223498642622    0.23524713178093007    0.21978196609604897    0.20437359724126472    
  0.18978787909826805    0.1765873496120433    0.1651383065456138    0.15565124672560712    0.14823201940272476    
  0.14292522308038952    0.13974282849264855    0.1386828599417193    0.13974282849264855    0.14292522308038952    
  0.14823201940272476    0.15565124672560712    0.1651383065456138    0.1765873496120433    0.18978787909826805    
  0.20437359724126472    0.21978196609604897    0.23524713178093007    0.24985223498642622    0.26266271136186037    
  0.27292196958838677    0.2802179737781006    0.2844983619812145    0.28589780528055225    0.3296126315752012    
  0.32824142447234433    0.3238584628348565    0.31587141565835825    0.30385748750728575    0.28798915142515413    
  0.269127400885348    0.24858267294713327    0.22775389522479894    0.20785381700462738    0.189787879098268    
  0.17414427508398647    0.16124054474037827    0.1512005114116125    0.14404307085250528    0.13975495720570008    
  0.13832633655575036    0.13975495720570008    0.14404307085250528    0.1512005114116125    0.16124054474037827    
  0.17414427508398647    0.189787879098268    0.20785381700462738    0.22775389522479894    0.24858267294713327    
  0.269127400885348    0.28798915142515413    0.30385748750728575    0.31587141565835825    0.3238584628348565    
  0.32824142447234433    0.3296126315752012    0.363204380098107    0.36260553687093267    0.36015029605935006    
  0.35424029430584175    0.3432642156293467    0.32654427336162706    0.30475425793875666    0.27963586501081295    
  0.25332446388483887    0.22775389522479889    0.20437359724126467    0.18411561396211937    0.16746813942804153    
  0.1545914851931854    0.1454635320036393    0.1400152719728114    0.1382030873356771    0.1400152719728114    
  0.1454635320036393    0.1545914851931854    0.16746813942804153    0.18411561396211937    0.20437359724126467    
  0.22775389522479889    0.25332446388483887    0.27963586501081295    0.30475425793875666    0.32654427336162706    
  0.3432642156293467    0.35424029430584175    0.36015029605935006    0.36260553687093267    0.363204380098107    
  0.3718537572739619    0.37320230819118466    0.37599807980470756    0.3770055280939039    0.37241287976382514    
  0.3595969330733767    0.338308048237406    0.31058565909085306    0.27963586501081295    0.24858267294713318    
  0.21978196609604886    0.19471556849654012    0.17414354542935104    0.15830712206350436    0.14714906451562945    
  0.14052373478368735    0.13832639849084263    0.14052373478368735    0.14714906451562945    0.15830712206350436    
  0.17414354542935104    0.19471556849654012    0.21978196609604886    0.24858267294713318    0.27963586501081295    
  0.31058565909085306    0.338308048237406    0.3595969330733767    0.37241287976382514    0.3770055280939039    
  0.37599807980470756    0.37320230819118466    0.3718537572739619    0.3441373426383506    0.348533205929863    
  0.3599222064969533    0.37331060325134025    0.38196621856859975    0.37998954917338595    0.3648729761509005    
  0.338308048237406    0.30475425793875666    0.269127400885348    0.23524713178093    0.2054757827756465    
  0.18099870550462877    0.1622066283907292    0.14903398096500314    0.1412544206990186    0.13868298123557982    
  0.1412544206990186    0.14903398096500314    0.1622066283907292    0.18099870550462877    0.2054757827756465    
  0.23524713178093    0.269127400885348    0.30475425793875666    0.338308048237406    0.3648729761509005    
  0.37998954917338595    0.38196621856859975    0.37331060325134025    0.3599222064969533    0.348533205929863    
  0.3441373426383506    0.2825686024284863    0.2901764407457352    0.31114869351015695    0.33975371233589524    
  0.36681995303602094    0.3823791455650182    0.37998954917338595    0.3595969330733767    0.3265442733616271    
  0.2879891514251541    0.24985223498642617    0.21581117646565362    0.18768252276126213    0.1660940988753766    
  0.15101358654872718    0.1421476379542602    0.13922636369724053    0.1421476379542602    0.15101358654872718    
  0.1660940988753766    0.18768252276126213    0.21581117646565362    0.24985223498642617    0.2879891514251541    
  0.3265442733616271    0.3595969330733767    0.37998954917338595    0.3823791455650182    0.36681995303602094    
  0.33975371233589524    0.31114869351015695    0.2901764407457352    0.2825686024284863    0.20580238303964146    
  0.2154805938294724    0.24338547758591766    0.28498941236124703    0.3306300574655567    0.36681995303602094    
  0.38196621856859975    0.3724128797638251    0.3432642156293466    0.3038574875072857    0.26266271136186026    
  0.22508407002575015    0.19378459836349804    0.16972004597375945    0.15293734371073825    0.14310224403075683    
  0.1398697446455587    0.14310224403075683    0.15293734371073825    0.16972004597375945    0.19378459836349804    
  0.22508407002575015    0.26266271136186026    0.3038574875072857    0.3432642156293466    0.3724128797638251    
  0.38196621856859975    0.36681995303602094    0.3306300574655567    0.28498941236124703    0.24338547758591766    
  0.2154805938294724    0.20580238303964146    0.1369437530165446    0.1469554495069868    0.17710665363148145    
  0.22570964442918257    0.28498941236124703    0.3397537123358952    0.3733106032513402    0.3770055280939039    
  0.3542402943058417    0.31587141565835813    0.27292196958838666    0.23271670369167835    0.198899794684208    
  0.17281659557485937    0.15462887596676386    0.14399020978138247    0.1404995575494112    0.14399020978138247    
  0.15462887596676386    0.17281659557485937    0.198899794684208    0.23271670369167835    0.27292196958838666    
  0.31587141565835813    0.3542402943058417    0.3770055280939039    0.3733106032513402    0.3397537123358952    
  0.28498941236124703    0.22570964442918257    0.17710665363148145    0.1469554495069868    0.1369437530165446    
  0.08934261251399649    0.09849866470431279    0.12727457110193793    0.1771066536314815    0.24338547758591772    
  0.311148693510157    0.3599222064969533    0.37599807980470756    0.36015029605935    0.3238584628348565    
  0.28021797377810065    0.23830752425761226    0.20271126247391819    0.17515703411265793    0.15593035321216855    
  0.14469337189761214    0.14101007557610618    0.14469337189761214    0.15593035321216855    0.17515703411265793    
  0.20271126247391819    0.23830752425761226    0.28021797377810065    0.3238584628348565    0.36015029605935    
  0.37599807980470756    0.3599222064969533    0.311148693510157    0.24338547758591772    0.1771066536314815    
  0.12727457110193793    0.09849866470431279    0.08934261251399649    0.06385222269521655    0.0720015293182404    
  0.09849866470431279    0.1469554495069869    0.21548059382947252    0.2901764407457353    0.348533205929863    
  0.37320230819118466    0.3626055368709327    0.32824142447234445    0.2844983619812145    0.24167546832459472    
  0.20503886398116614    0.17659972270560592    0.15673965937601136    0.145135473713222    0.14133363791466605    
  0.145135473713222    0.15673965937601136    0.17659972270560592    0.20503886398116614    0.24167546832459472    
  0.2844983619812145    0.32824142447234445    0.3626055368709327    0.37320230819118466    0.348533205929863    
  0.2901764407457353    0.21548059382947252    0.1469554495069869    0.09849866470431279    0.0720015293182404    
  0.06385222269521655    0.05611676813518757    0.0638522226952165    0.08934261251399651    0.13694375301654463    
  0.20580238303964152    0.28256860242848625    0.34413734263835066    0.3718537572739621    0.363204380098107    
  0.32961263157520115    0.28589780528055225    0.24279450542062953    0.20581822220140034    0.17708498306548195    
  0.1570127126037701    0.1452849916795149    0.14144320942325012    0.1452849916795149    0.1570127126037701    
  0.17708498306548195    0.20581822220140034    0.24279450542062953    0.28589780528055225    0.32961263157520115    
  0.363204380098107    0.3718537572739621    0.34413734263835066    0.28256860242848625    0.20580238303964152    
  0.13694375301654463    0.08934261251399651    0.0638522226952165    0.05611676813518757    0.06385222269521665    
  0.07200152931824036    0.0984986647043128    0.14695544950698694    0.21548059382947246    0.2901764407457352    
  0.3485332059298629    0.37320230819118466    0.3626055368709327    0.3282414244723443    0.2844983619812145    
  0.24167546832459472    0.2050388639811661    0.17659972270560587    0.15673965937601145    0.145135473713222    
  0.14133363791466602    0.145135473713222    0.15673965937601145    0.17659972270560587    0.2050388639811661    
  0.24167546832459472    0.2844983619812145    0.3282414244723443    0.3626055368709327    0.37320230819118466    
  0.3485332059298629    0.2901764407457352    0.21548059382947246    0.14695544950698694    0.0984986647043128    
  0.07200152931824036    0.06385222269521665    0.07200152931824041    0.08052715868249727    0.10791029401238429    
  0.15702422220360396    0.2250042151360954    0.2975042679252596    0.35265507062840284    0.3743682944744164    
  0.36192372061737044    0.32685332777852744    0.2831145852653577    0.24058541769941386    0.20429318407566707    
  0.17614908263870133    0.15650062973820733    0.1450191460874711    0.14125690671457103    0.1450191460874711    
  0.15650062973820733    0.17614908263870133    0.20429318407566707    0.24058541769941386    0.2831145852653577    
  0.32685332777852744    0.36192372061737044    0.3743682944744164    0.35265507062840284    0.2975042679252596    
  0.2250042151360954    0.15702422220360396    0.10791029401238429    0.08052715868249727    0.07200152931824041    
  0.09849866470431279    0.10791029401238429    0.13720481321290118    0.18713435957948799    0.2523202496942169    
  0.31761146762089915    0.36326071359863327    0.3766697870304685    0.3592604889422062    0.3224442561213315    
  0.2788946742464315    0.2373118330701794    0.2020707963447907    0.1748127486796143    0.15579509042897036    
  0.14467799993235134    0.14103317445281974    0.14467799993235134    0.15579509042897036    0.1748127486796143    
  0.2020707963447907    0.2373118330701794    0.2788946742464315    0.3224442561213315    0.3592604889422062    
  0.3766697870304685    0.36326071359863327    0.31761146762089915    0.2523202496942169    0.18713435957948799    
  0.13720481321290118    0.10791029401238429    0.09849866470431279    0.14695544950698686    0.15702422220360382    
  0.18713435957948796    0.2350801830068292    0.2926482527567664    0.3447665640966094    0.3754923797795154    
  0.3770203624017839    0.35312228700504544    0.3144813565479459    0.2717350820310956    0.23189694212019885    
  0.19844452393564121    0.17265485602066566    0.15466974839002182    0.1441455071452737    0.1406912706236861    
  0.1441455071452737    0.15466974839002182    0.17265485602066566    0.19844452393564121    0.23189694212019885    
  0.2717350820310956    0.3144813565479459    0.35312228700504544    0.3770203624017839    0.3754923797795154    
  0.3447665640966094    0.2926482527567664    0.2350801830068292    0.18713435957948796    0.15702422220360382    
  0.14695544950698686    0.2154805938294724    0.22500421513609525    0.2523202496942169    0.2926482527567664    
  0.33624828323716405    0.3699718996690826    0.3828683467339732    0.37181047645040083    0.342018555682122    
  0.3026017970288219    0.26171524219085596    0.22453309515745998    0.19359809039850281    0.16981693470850365    
  0.15322514366284165    0.1434959608694048    0.14029684652424548    0.1434959608694048    0.15322514366284165    
  0.16981693470850365    0.19359809039850281    0.22453309515745998    0.26171524219085596    0.3026017970288219    
  0.342018555682122    0.37181047645040083    0.3828683467339732    0.3699718996690826    0.33624828323716405    
  0.2926482527567664    0.2523202496942169    0.22500421513609525    0.2154805938294724    0.2901764407457352    
  0.29750426792525947    0.31761146762089904    0.3447665640966094    0.36997189966908267    0.3836490595287393    
  0.3797946066167477    0.3585960170042925    0.325352127240672    0.28700476877852943    0.24925067431164666    
  0.21561642014428006    0.18783963486125446    0.16651617782273564    0.15160994666028382    0.1428389790736069    