#     DFTpy    
  CRYSTAL 
    
  PRIMVEC    
  3.0473793103448306    0.0    0.0    
  0.0    3.0473793103448306    0.0    
  0.0    0.0    3.0473793103448306    
  PRIMCOORD    
  2    1    
  Si    0.0    0.0    0.0    
  Si    1.5236896551724104    1.5236896551724104    1.5236896551724104    
  BEGIN_BLOCK_DATAGRID_3D    
  3d_datagrid_density    
  BEGIN_DATAGRID_3D#0    
  31    31    31    
  0.0    0.0    0.0    
  3.0473793217116136    0.0    0.0    
  0.0    3.0473793217116136    0.0    
  0.0    0.0    3.0473793217116136    
  0.054333848698561116    0.06208661133332549    0.08774121678213849    0.13599624454852796    0.20650462013730025    
  0.2863000360809713    0.35211312721734767    0.3844571824742934    0.37982622515893677    0.3492159424958259    
  0.3078074919256311    0.2671003088954666    0.23327199848630076    0.20878713335975527    0.19420920335836922    
  0.18939469645427748    0.19420920335836922    0.2087871333597553    0.23327199848630076    0.2671003088954666    
  0.30780749192563106    0.3492159424958259    0.37982622515893677    0.3844571824742934    0.35211312721734767    
  0.2863000360809714    0.2065046201373002    0.13599624454852796    0.0877412167821385    0.06208661133332549    
  0.054333848698561116    0.06208661133332554    0.07028398528838062    0.09703914422772407    0.14629637428930298    
  0.21662239980827055    0.29442602941457646    0.3569891632182628    0.3861711476410231    0.3794907106791561    
  0.3480748459193742    0.3066613311357077    0.2662663930734154    0.23278245404237838    0.2085623049381288    
  0.19414263105419954    0.1893801185363201    0.19414263105419954    0.20856230493812883    0.23278245404237838    
  0.2662663930734153    0.30666133113570765    0.34807484591937426    0.37949071067915613    0.38617114764102317    
  0.3569891632182628    0.2944260294145765    0.21662239980827055    0.146296374289303    0.09703914422772407    
  0.07028398528838067    0.06208661133332554    0.08774121678213846    0.09703914422772406    0.1263509067754775    
  0.17739984528447608    0.24589303666754037    0.31697406441132514    0.3698579228537781    0.3901540364926852    
  0.3779601064366225    0.34452279949594805    0.30325295410350395    0.2638251380156012    0.2313604867674062    
  0.20791420760807613    0.19395467084347245    0.1893429146060686    0.19395467084347245    0.20791420760807616    
  0.2313604867674062    0.26382513801560115    0.30325295410350395    0.34452279949594805    0.3779601064366225    
  0.3901540364926852    0.3698579228537781    0.31697406441132514    0.2458930366675403    0.17739984528447608    
  0.1263509067754775    0.09703914422772407    0.08774121678213846    0.135996244548528    0.1462963742893029    
  0.17739984528447608    0.2278062923840778    0.2898487872407528    0.3481971357336296    0.38574815747949004    
  0.3933105697622702    0.37387604919490597    0.3382230970008206    0.2976444420396984    0.25991535845001246    
  0.229113595647108    0.20690290854153315    0.19367079729065326    0.18929612057940334    0.19367079729065317    
  0.20690290854153318    0.229113595647108    0.2599153584500124    0.2976444420396985    0.3382230970008206    
  0.37387604919490597    0.3933105697622702    0.38574815747949004    0.3481971357336296    0.2898487872407528    
  0.2278062923840778    0.1773998452844761    0.14629637428930295    0.135996244548528    0.2065046201373002    
  0.21662239980827055    0.24589303666754037    0.2898487872407528    0.3387317100043074    0.3787199486565831    
  0.3977498495775348    0.39175835383118274    0.36564954061129895    0.32879811535131637    0.28989802283569693    
  0.2546781998991415    0.22614892208085402    0.20558597040247445    0.19331247971780274    0.18924819274792692    
  0.19331247971780274    0.2055859704024745    0.22614892208085402    0.2546781998991414    0.289898022835697    
  0.3287981153513164    0.36564954061129895    0.39175835383118274    0.3977498495775348    0.37871994865658315    
  0.3387317100043073    0.28984878724075286    0.24589303666754037    0.21662239980827055    0.2065046201373002    
  0.2863000360809714    0.2944260294145764    0.31697406441132514    0.3481971357336296    0.3787199486565831    
  0.3981437002537762    0.39953011591774806    0.3824849304266084    0.3522586870055432    0.31610349828731915    
  0.28012690815602165    0.24824235398210293    0.2225507471033185    0.20400385453516046    0.19289168323907568    
  0.18920133979385512    0.19289168323907568    0.2040038545351605    0.2225507471033185    0.24824235398210287    
  0.2801269081560217    0.3161034982873192    0.35225868700554325    0.38248493042660847    0.39953011591774806    
  0.3981437002537762    0.3787199486565831    0.3481971357336296    0.31697406441132514    0.2944260294145764    
  0.2863000360809714    0.3521131272173478    0.35698916321826274    0.3698579228537783    0.38574815747949004    
  0.3977498495775348    0.399530115917748    0.3880672292600738    0.36470926435493745    0.333841477437354    
  0.30048611209728    0.2686241234224147    0.24079550670869487    0.21841856775024177    0.20219867438363986    
  0.1924210740465609    0.1891596275931578    0.19242107404656086    0.20219867438363992    0.21841856775024177    
  0.24079550670869482    0.26862412342241476    0.30048611209728    0.333841477437354    0.36470926435493745    
  0.3880672292600738    0.39953011591774806    0.3977498495775348    0.38574815747949004    0.3698579228537783    
  0.35698916321826274    0.3521131272173478    0.3844571824742934    0.38617114764102317    0.39015403649268526    
  0.3933105697622702    0.3917583538311828    0.38248493042660836    0.3647092643549375    0.34008776768391286    
  0.3117269380892635    0.28284893164289643    0.25595517430888926    0.2326646183820577    0.2139181543566158    
  0.20023943374547742    0.1919237179742414    0.18913366272143162    0.19192371797424138    0.20023943374547748    
  0.2139181543566158    0.23266461838205763    0.2559551743088893    0.2828489316428965    0.3117269380892635    
  0.34008776768391286    0.3647092643549375    0.3824849304266084    0.39175835383118274    0.3933105697622702    
  0.3901540364926852    0.38617114764102317    0.3844571824742934    0.37982622515893677    0.3794907106791561    
  0.37796010643662264    0.37387604919490586    0.36564954061129895    0.35225868700554325    0.33384147743735393    
  0.3117269380892635    0.28792492240441075    0.2644562137404826    0.24290480255143715    0.22430841932421072    
  0.20928346266165537    0.1982220407124346    0.19142851711294867    0.18913376609839827    0.19142851711294867    
  0.1982220407124346    0.20928346266165537    0.22430841932421067    0.24290480255143715    0.26445621374048267    
  0.2879249224044108    0.3117269380892635    0.33384147743735393    0.35225868700554325    0.36564954061129895    
  0.37387604919490586    0.37796010643662264    0.3794907106791561    0.37982622515893677    0.3492159424958259    
  0.34807484591937415    0.3445227994959481    0.3382230970008206    0.32879811535131637    0.3161034982873192    
  0.30048611209727993    0.2828489316428964    0.26445621374048267    0.24659472011710562    0.2302901610567865    
  0.2162117156661814    0.20476259335526018    0.19624489447000518    0.19095770317279823    0.18915993282816437    
  0.1909577031727982    0.1962448944700052    0.20476259335526018    0.2162117156661813    0.2302901610567865    
  0.2465947201171057    0.2644562137404826    0.28284893164289643    0.30048611209727993    0.3161034982873192    
  0.3287981153513163    0.3382230970008206    0.3445227994959481    0.34807484591937415    0.3492159424958259    
  0.307807491925631    0.3066613311357076    0.30325295410350395    0.2976444420396983    0.28989802283569693    
  0.28012690815602165    0.26862412342241476    0.25595517430888914    0.2429048025514371    0.2302901610567865    
  0.21876862706738748    0.20876804209836355    0.2005606959338091    0.19438910136214813    0.19052310470338463    
  0.18920183284566902    0.19052310470338465    0.19438910136214818    0.2005606959338091    0.2087680420983635    
  0.21876862706738753    0.23029016105678657    0.2429048025514371    0.2559551743088892    0.26862412342241476    
  0.2801269081560216    0.28989802283569693    0.29764444203969836    0.30325295410350395    0.3066613311357076    
  0.307807491925631    0.2671003088954666    0.2662663930734153    0.2638251380156012    0.2599153584500125    
  0.2546781998991415    0.24824235398210293    0.24079550670869487    0.2326646183820577    0.22430841932421067    
  0.21621171566618144    0.2087680420983635    0.20224323137002653    0.19682998593207002    0.19272259328515398    
  0.19013524371494384    0.1892488518636166    0.19013524371494384    0.19272259328515404    0.19682998593207002    
  0.20224323137002645    0.20876804209836358    0.21621171566618147    0.22430841932421067    0.23266461838205776    
  0.24079550670869487    0.24824235398210293    0.2546781998991415    0.2599153584500125    0.26382513801560115    
  0.26626639307341526    0.2671003088954666    0.2332719984863007    0.23278245404237832    0.23136048676740623    
  0.229113595647108    0.22614892208085402    0.22255074710331846    0.21841856775024177    0.2139181543566158    
  0.20928346266165546    0.20476259335526023    0.2005606959338091    0.19682998593207    0.19370186443829804    
  0.1913156204692201    0.18981161080939316    0.18929691755767403    0.18981161080939316    0.19131562046922018    
  0.19370186443829804    0.19682998593206993    0.20056069593380912    0.20476259335526023    0.20928346266165543    
  0.21391815435661587    0.21841856775024177    0.22255074710331846    0.22614892208085408    0.229113595647108    
  0.23136048676740623    0.23278245404237832    0.2332719984863007    0.20878713335975532    0.20856230493812883    
  0.20791420760807616    0.20690290854153323    0.20558597040247445    0.2040038545351605    0.20219867438363992    
  0.2002394337454774    0.1982220407124346    0.1962448944700052    0.19438910136214818    0.19272259328515404    
  0.19131562046922024    0.1902434593648896    0.18957217501171578    0.18934381549847573    0.18957217501171575    
  0.19024345936488965    0.19131562046922024    0.19272259328515395    0.19438910136214818    0.19624489447000523    
  0.19822204071243454    0.2002394337454775    0.20219867438363992    0.20400385453516048    0.20558597040247453    
  0.20690290854153323    0.20791420760807616    0.20856230493812883    0.20878713335975532    0.1942092033583692    
  0.19414263105419954    0.19395467084347248    0.19367079729065312    0.19331247971780274    0.19289168323907566    
  0.19242107404656084    0.1919237179742413    0.19142851711294864    0.1909577031727982    0.19052310470338457    
  0.19013524371494386    0.1898116108093931    0.18957217501171567    0.18942843469112486    0.18938108429248862    
  0.18942843469112483    0.18957217501171572    0.1898116108093931    0.1901352437149438    0.19052310470338463    
  0.19095770317279823    0.1914285171129487    0.1919237179742414    0.19242107404656084    0.19289168323907568    
  0.19331247971780272    0.1936707972906532    0.19395467084347248    0.19414263105419954    0.1942092033583692    
  0.18939469645427748    0.18938011853632009    0.18934291460606867    0.18929612057940332    0.18924819274792695    
  0.18920133979385512    0.18915962759315777    0.18913366272143156    0.18913376609839833    0.1891599328281644    
  0.18920183284566902    0.1892488518636166    0.18929691755767408    0.18934381549847568    0.18938108429248868    
  0.18939568429451    0.18938108429248868    0.18934381549847573    0.18929691755767408    0.18924885186361656    
  0.18920183284566908    0.18915993282816443    0.18913376609839824    0.18913366272143162    0.18915962759315777    
  0.18920133979385512    0.18924819274792692    0.18929612057940332    0.18934291460606867    0.18938011853632009    
  0.18939469645427748    0.19420920335836916    0.19414263105419952    0.19395467084347248    0.19367079729065315    
  0.19331247971780266    0.19289168323907568    0.19242107404656084    0.19192371797424132    0.19142851711294864    
  0.19095770317279817    0.19052310470338457    0.1901352437149439    0.18981161080939313    0.1895721750117157    
  0.18942843469112486    0.18938108429248868    0.18942843469112483    0.18957217501171575    0.18981161080939313    
  0.19013524371494384    0.1905231047033846    0.19095770317279817    0.19142851711294864    0.19192371797424143    
  0.19242107404656084    0.19289168323907568    0.19331247971780274    0.19367079729065315    0.19395467084347248    
  0.19414263105419952    0.19420920335836916    0.20878713335975538    0.20856230493812888    0.20791420760807622    
  0.20690290854153323    0.20558597040247453    0.2040038545351605    0.20219867438363992    0.20023943374547745    
  0.19822204071243457    0.19624489447000526    0.1943891013621482    0.19272259328515404    0.19131562046922024    
  0.19024345936488954    0.1895721750117157    0.18934381549847576    0.1895721750117157    0.19024345936488968    
  0.19131562046922024    0.19272259328515395    0.19438910136214826    0.19624489447000532    0.19822204071243452    
  0.2002394337454775    0.20219867438363992    0.2040038545351605    0.20558597040247453    0.20690290854153326    
  0.20791420760807622    0.20856230493812886    0.20878713335975538    0.2332719984863007    0.23278245404237832    
  0.23136048676740623    0.229113595647108    0.22614892208085402    0.22255074710331846    0.21841856775024177    
  0.2139181543566158    0.20928346266165546    0.20476259335526023    0.2005606959338091    0.19682998593207    
  0.19370186443829804    0.1913156204692201    0.18981161080939316    0.18929691755767403    0.18981161080939316    
  0.19131562046922018    0.19370186443829804    0.19682998593206993    0.20056069593380912    0.20476259335526023    
  0.20928346266165543    0.21391815435661587    0.21841856775024177    0.22255074710331846    0.22614892208085408    
  0.229113595647108    0.23136048676740623    0.23278245404237832    0.2332719984863007    0.2671003088954666    
  0.2662663930734153    0.2638251380156012    0.25991535845001246    0.2546781998991414    0.24824235398210293    
  0.24079550670869487    0.23266461838205763    0.22430841932421072    0.21621171566618144    0.20876804209836355    
  0.2022432313700265    0.19682998593207005    0.19272259328515395    0.19013524371494395    0.18924885186361665    
  0.1901352437149439    0.19272259328515404    0.19682998593207005    0.20224323137002645    0.20876804209836358    
  0.21621171566618144    0.22430841932421067    0.2326646183820577    0.24079550670869487    0.24824235398210287    
  0.2546781998991415    0.25991535845001246    0.2638251380156012    0.2662663930734153    0.2671003088954666    
  0.30780749192563106    0.3066613311357076    0.30325295410350395    0.29764444203969836    0.28989802283569693    
  0.28012690815602154    0.26862412342241476    0.25595517430888914    0.24290480255143704    0.2302901610567865    
  0.21876862706738748    0.20876804209836355    0.2005606959338091    0.1943891013621481    0.1905231047033846    
  0.189201832845669    0.1905231047033846    0.19438910136214815    0.2005606959338091    0.20876804209836353    
  0.21876862706738753    0.2302901610567865    0.24290480255143715    0.25595517430888926    0.26862412342241476    
  0.2801269081560216    0.28989802283569693    0.2976444420396983    0.30325295410350395    0.3066613311357076    
  0.30780749192563106    0.3492159424958259    0.34807484591937415    0.34452279949594805    0.3382230970008206    
  0.3287981153513163    0.3161034982873192    0.3004861120972799    0.2828489316428964    0.2644562137404826    
  0.24659472011710562    0.2302901610567865    0.2162117156661814    0.20476259335526018    0.19624489447000512    
  0.19095770317279817    0.18915993282816437    0.19095770317279814    0.19624489447000518    0.20476259335526018    
  0.2162117156661813    0.23029016105678657    0.24659472011710568    0.2644562137404826    0.28284893164289643    
  0.3004861120972799    0.3161034982873192    0.3287981153513163    0.3382230970008206    0.34452279949594805    
  0.34807484591937415    0.3492159424958259    0.37982622515893677    0.3794907106791562    0.37796010643662264    
  0.37387604919490597    0.36564954061129895    0.35225868700554325    0.33384147743735393    0.31172693808926344    
  0.2879249224044108    0.2644562137404826    0.24290480255143715    0.22430841932421067    0.20928346266165546    
  0.1982220407124346    0.19142851711294862    0.18913376609839833    0.19142851711294864    0.19822204071243463    
  0.20928346266165546    0.22430841932421064    0.24290480255143718    0.26445621374048267    0.28792492240441075    
  0.3117269380892635    0.33384147743735393    0.35225868700554325    0.36564954061129895    0.3738760491949059    
  0.37796010643662264    0.3794907106791562    0.37982622515893677    0.38445718247429345    0.3861711476410231    
  0.3901540364926852    0.3933105697622702    0.3917583538311828    0.3824849304266084    0.36470926435493745    
  0.34008776768391286    0.3117269380892635    0.28284893164289643    0.2559551743088892    0.2326646183820577    
  0.2139181543566158    0.2002394337454774    0.1919237179742414    0.18913366272143162    0.19192371797424138    
  0.20023943374547742    0.2139181543566158    0.2326646183820577    0.25595517430888926    0.2828489316428965    
  0.3117269380892635    0.3400877676839129    0.36470926435493745    0.3824849304266084    0.39175835383118274    
  0.39331056976227013    0.3901540364926852    0.3861711476410231    0.38445718247429345    0.3521131272173478    
  0.35698916321826274    0.3698579228537783    0.38574815747949004    0.3977498495775348    0.399530115917748    
  0.3880672292600738    0.36470926435493745    0.333841477437354    0.30048611209728    0.2686241234224147    
  0.24079550670869487    0.21841856775024177    0.20219867438363986    0.1924210740465609    0.1891596275931578    
  0.19242107404656086    0.20219867438363992    0.21841856775024177    0.24079550670869482    0.26862412342241476    
  0.30048611209728    0.333841477437354    0.36470926435493745    0.3880672292600738    0.39953011591774806    
  0.3977498495775348    0.38574815747949004    0.3698579228537783    0.35698916321826274    0.3521131272173478    
  0.2863000360809713    0.2944260294145765    0.3169740644113252    0.3481971357336296    0.37871994865658315    
  0.39814370025377616    0.39953011591774806    0.3824849304266084    0.3522586870055432    0.3161034982873192    
  0.28012690815602165    0.24824235398210293    0.22255074710331846    0.20400385453516046    0.19289168323907568    
  0.18920133979385512    0.19289168323907568    0.2040038545351605    0.22255074710331846    0.24824235398210287    
  0.2801269081560217    0.31610349828731926    0.35225868700554325    0.3824849304266084    0.39953011591774806    
  0.3981437002537762    0.3787199486565831    0.3481971357336296    0.31697406441132514    0.2944260294145765    
  0.2863000360809713    0.20650462013730025    0.2166223998082705    0.24589303666754037    0.28984878724075286    
  0.3387317100043073    0.37871994865658315    0.3977498495775348    0.3917583538311828    0.36564954061129895    
  0.32879811535131637    0.28989802283569693    0.25467819989914153    0.226148922080854    0.20558597040247445    
  0.19331247971780277    0.1892481927479269    0.19331247971780277    0.20558597040247456    0.226148922080854    
  0.2546781998991415    0.289898022835697    0.3287981153513164    0.36564954061129895    0.39175835383118274    
  0.3977498495775348    0.37871994865658315    0.3387317100043073    0.28984878724075286    0.24589303666754037    
  0.21662239980827055    0.20650462013730025    0.13599624454852796    0.14629637428930295    0.17739984528447608    
  0.2278062923840778    0.2898487872407528    0.34819713573362965    0.38574815747949004    0.39331056976227013    
  0.37387604919490597    0.3382230970008206    0.29764444203969836    0.25991535845001246    0.229113595647108    
  0.20690290854153315    0.19367079729065326    0.18929612057940332    0.19367079729065323    0.20690290854153318    
  0.229113595647108    0.2599153584500124    0.2976444420396984    0.33822309700082065    0.37387604919490597    
  0.3933105697622702    0.38574815747949004    0.34819713573362965    0.2898487872407528    0.22780629238407785    
  0.17739984528447608    0.14629637428930295    0.13599624454852796    0.08774121678213843    0.09703914422772413    
  0.12635090677547745    0.17739984528447605    0.24589303666754037    0.31697406441132514    0.36985792285377816    
  0.3901540364926852    0.3779601064366225    0.34452279949594805    0.3032529541035039    0.2638251380156012    
  0.2313604867674062    0.20791420760807613    0.19395467084347245    0.18934291460606864    0.19395467084347243    
  0.20791420760807616    0.2313604867674062    0.26382513801560115    0.30325295410350395    0.34452279949594816    
  0.3779601064366225    0.3901540364926852    0.36985792285377816    0.31697406441132514    0.2458930366675403    
  0.17739984528447608    0.12635090677547745    0.09703914422772413    0.08774121678213843    0.06208661133332551    
  0.0702839852883806    0.09703914422772417    0.14629637428930295    0.21662239980827055    0.2944260294145765    
  0.3569891632182628    0.3861711476410231    0.3794907106791561    0.3480748459193742    0.3066613311357076    
  0.2662663930734154    0.2327824540423785    0.20856230493812877    0.19414263105419954    0.18938011853632014    
  0.19414263105419952    0.20856230493812883    0.2327824540423785    0.2662663930734154    0.30666133113570765    
  0.34807484591937426    0.37949071067915613    0.38617114764102317    0.3569891632182628    0.2944260294145765    
  0.21662239980827067    0.146296374289303    0.09703914422772417    0.07028398528838062    0.06208661133332551    
  0.054333848698561116    0.06208661133332549    0.08774121678213849    0.13599624454852796    0.20650462013730025    
  0.2863000360809713    0.35211312721734767    0.3844571824742934    0.37982622515893677    0.3492159424958259    
  0.3078074919256311    0.2671003088954666    0.23327199848630076    0.20878713335975527    0.19420920335836922    
  0.18939469645427748    0.19420920335836922    0.2087871333597553    0.23327199848630076    0.2671003088954666    
  0.30780749192563106    0.3492159424958259    0.37982622515893677    0.3844571824742934    0.35211312721734767    
  0.2863000360809714    0.2065046201373002    0.13599624454852796    0.0877412167821385    0.06208661133332549    
  0.054333848698561116    0.06208661133332549    0.07028398528838067    0.09703914422772414    0.14629637428930298    
  0.2166223998082706    0.2944260294145765    0.35698916321826274    0.38617114764102317    0.3794907106791561    
  0.34807484591937415    0.30666133113570765    0.2662663930734153    0.23278245404237843    0.20856230493812886    
  0.1941426310541996    0.18938011853632014    0.1941426310541996    0.2085623049381289    0.23278245404237843    
  0.2662663930734154    0.3066613311357076    0.34807484591937415    0.3794907106791561    0.38617114764102317    
  0.35698916321826274    0.2944260294145765    0.2166223998082706    0.146296374289303    0.09703914422772414    
  0.07028398528838067    0.06208661133332549    0.07028398528838072    0.07888938250642999    0.10662517031380461    
  0.15668283700117855    0.2266070425463906    0.30228757153939045    0.36161040600519745    0.38773423113566163    
  0.3791162441494932    0.3469653773784167    0.30557576605872055    0.26549946250333195    0.2323587719549747    
  0.20840124745048186    0.19413846122588876    0.1894274907675379    0.19413846122588874    0.20840124745048189    
  0.2323587719549747    0.2654994625033319    0.30557576605872055    0.34696537737841676    0.3791162441494932    
  0.3877342311356617    0.36161040600519745    0.30228757153939045    0.2266070425463906    0.15668283700117855    
  0.10662517031380461    0.07888938250642999    0.07028398528838072    0.09703914422772417    0.10662517031380458    
  0.13654782250502984    0.18782343175989324    0.2553428433886726    0.32400849677841687    0.3737443361618457    
  0.39130479860761536    0.3774920375243977    0.34351357488936163    0.3023454834545332    0.2632530641113267    
  0.23112845544046662    0.20793910547624253    0.19413273901771533    0.18957129533972392    0.1941327390177153    
  0.20793910547624256    0.23112845544046662    0.2632530641113266    0.3023454834545332    0.34351357488936163    
  0.3774920375243977    0.39130479860761536    0.3737443361618457    0.32400849677841687    0.2553428433886725    
  0.18782343175989324    0.1365478225050298    0.10662517031380461    0.09703914422772417    0.146296374289303    
  0.15668283700117847    0.1878234317598933    0.2376717151565106    0.29808405523786885    0.3538228804394236    
  0.3885355819000687    0.3939061345034917    0.3733224910389897    0.3373962905318124    0.2970224505170775    
  0.2596495903173792    0.22918277893772407    0.2072210170993371    0.19413690571875913    0.1898108344117985    
  0.19413690571875908    0.20722101709933716    0.22918277893772407    0.25964959031737916    0.2970224505170775    
  0.33739629053181247    0.3733224910389897    0.3939061345034917    0.3885355819000687    0.3538228804394236    
  0.29808405523786885    0.2376717151565106    0.18782343175989327    0.15668283700117852    0.146296374289303    
  0.2166223998082706    0.2266070425463906    0.2553428433886726    0.2980840552378689    0.3449714382468396    
  0.38251643510289124    0.3993097165927878    0.39183024853842013    0.3650983315914753    0.3282500439202358    
  0.28965425433582015    0.25480795114159865    0.2266065090955072    0.20628336948561468    0.1941521552420929    
  0.1901346048486213    0.1941521552420929    0.20628336948561474    0.2266065090955072    0.25480795114159865    
  0.2896542543358202    0.3282500439202359    0.36509833159147537    0.39183024853842013    0.3993097165927878    
  0.3825164351028913    0.34497143824683957    0.2980840552378689    0.2553428433886726    0.2266070425463906    
  0.2166223998082706    0.2944260294145765    0.3022875715393904    0.32400849677841687    0.3538228804394236    
  0.38251643510289124    0.40008451496346825    0.4000402967927382    0.38223423355136854    0.35185925288699027    
  0.31593414884341353    0.28033572851798866    0.24883306044851117    0.22345998387515292    0.2051434890577036    
  0.1941680062291523    0.1905226320946789    0.1941680062291523    0.20514348905770363    0.22345998387515292    
  0.24883306044851114    0.2803357285179887    0.31593414884341353    0.35185925288699027    0.3822342335513686    
  0.4000402967927382    0.40008451496346825    0.38251643510289124    0.3538228804394236    0.32400849677841687    
  0.3022875715393904    0.2944260294145765    0.3569891632182628    0.3616104060051974    0.3737443361618458    
  0.3885355819000687    0.39930971659278786    0.4000402967927382    0.3879444854537405    0.3644263362813242    
  0.3337561965162185    0.30077975389548145    0.26933672933317715    0.2418886704742935    0.21981942721171716    
  0.20382102910277375    0.19417531116484088    0.1909574191831635    0.19417531116484088    0.2038210291027738    
  0.21981942721171716    0.24188867047429344    0.2693367293331772    0.30077975389548145    0.3337561965162185    
  0.36442633628132426    0.3879444854537405    0.4000402967927382    0.3993097165927878    0.3885355819000687    
  0.3737443361618458    0.3616104060051974    0.3569891632182628    0.38617114764102317    0.38773423113566163    
  0.3913047986076154    0.3939061345034917    0.3918302485384202    0.3822342335513685    0.36442633628132426    
  0.3400391480280533    0.3120781786105354    0.2836548114718801    0.2571940130613525    0.23427652859756062    
  0.2158272594624756    0.20236284105482974    0.19417573814456043    0.19142843636789933    0.1941757381445604    
  0.2023628410548298    0.2158272594624756    0.23427652859756057    0.25719401306135253    0.2836548114718801    
  0.3120781786105354    0.3400391480280533    0.36442633628132426    0.3822342335513686    0.39183024853842013    
  0.3939061345034917    0.39130479860761536    0.38773423113566163    0.38617114764102317    0.3794907106791561    
  0.3791162441494932    0.37749203752439775    0.3733224910389896    0.3650983315914753    0.35185925288699027    
  0.33375619651621846    0.3120781786105354    0.28876686868042734    0.2657797466950327    0.24466063189076537    
  0.2264287331741395    0.2116931365490164    0.20084183194230099    0.1941758433292478    0.19192384584728966    
  0.1941758433292478    0.20084183194230099    0.2116931365490164    0.22642873317413945    0.24466063189076537    
  0.26577974669503274    0.28876686868042734    0.31207817861053544    0.33375619651621846    0.35185925288699027    
  0.36509833159147537    0.3733224910389896    0.37749203752439775    0.37911624414949313    0.3794907106791561    
  0.3480748459193742    0.34696537737841665    0.34351357488936163    0.33739629053181247    0.3282500439202358    
  0.3159341488434136    0.3007797538954814    0.28365481147188004    0.26577974669503274    0.2484028489467833    
  0.23252537045178323    0.21880541991648625    0.20764205176569314    0.19933398619434212    0.1941756216936819    
  0.19242140597564472    0.1941756216936819    0.1993339861943422    0.20764205176569314    0.21880541991648622    
  0.2325253704517833    0.24840284894678333    0.26577974669503274    0.2836548114718801    0.3007797538954814    
  0.3159341488434136    0.32825004392023577    0.33739629053181247    0.34351357488936163    0.34696537737841665    