#     DFTpy    
  CRYSTAL 
    
  PRIMVEC    
  3.3670344827586205    0.0    0.0    
  0.0    3.3670344827586205    0.0    
  0.0    0.0    3.3670344827586205    
  PRIMCOORD    
  2    1    
  Si    0.0    0.0    0.0    
  Si    1.6835172413793102    1.6835172413793102    1.6835172413793102    
  BEGIN_BLOCK_DATAGRID_3D    
  3d_datagrid_density    
  BEGIN_DATAGRID_3D#0    
  33    33    33    
  0.0    0.0    0.0    
  3.3670344953177236    0.0    0.0    
  0.0    3.3670344953177236    0.0    
  0.0    0.0    3.3670344953177236    
  0.05729887321323112    0.06573620984546641    0.09360414820477554    0.1453990717582075    0.21863592856174022    
  0.2961367585734725    0.3518099203507486    0.36839721471454256    0.34811336105913643    0.30621826503525534    
  0.258395569600821    0.21432411258835088    0.17810960190802647    0.1507499842322023    0.1319300897954496    
  0.12098643132416408    0.11739998396869639    0.12098643132416408    0.1319300897954496    0.1507499842322023    
  0.17810960190802647    0.21432411258835088    0.258395569600821    0.30621826503525534    0.34811336105913643    
  0.36839721471454256    0.3518099203507486    0.2961367585734725    0.21863592856174022    0.1453990717582075    
  0.09360414820477554    0.06573620984546641    0.05729887321323112    0.06573620984546635    0.07464135239301527    
  0.10360733788242028    0.15618310821458875    0.228651044504025    0.30338016890738717    0.35527047630637554    
  0.36866807145280034    0.34665293086338594    0.30430241977399386    0.2566970796841991    0.21304823639390882    
  0.17724173455723388    0.1502030988927518    0.13160297107052796    0.12078395927781921    0.11723747103072875    
  0.12078395927781921    0.13160297107052796    0.1502030988927518    0.17724173455723388    0.21304823639390882    
  0.2566970796841991    0.30430241977399386    0.34665293086338594    0.36866807145280034    0.35527047630637554    
  0.30338016890738717    0.228651044504025    0.15618310821458875    0.10360733788242028    0.07464135239301527    
  0.06573620984546635    0.09360414820477551    0.10360733788242035    0.13491477315448402    0.18835690658604187    
  0.25710153744514425    0.3228843874805805    0.36374390252024147    0.36834156407832214    0.3417919039115453    
  0.29842890098389935    0.25160643166629415    0.20925863836954614    0.1746800182937307    0.14860144196299796    
  0.1306568987063064    0.12020923743955066    0.11678174996644998    0.12020923743955066    0.1306568987063064    
  0.14860144196299796    0.1746800182937307    0.20925863836954614    0.25160643166629415    0.29842890098389935    
  0.3417919039115453    0.36834156407832214    0.36374390252024147    0.3228843874805805    0.25710153744514425    
  0.18835690658604187    0.13491477315448402    0.10360733788242035    0.09360414820477551    0.14539907175820743    
  0.1561831082145887    0.18835690658604187    0.23903348932563587    0.2980910943018884    0.3480204510396445    
  0.37210241670230704    0.3645737215687481    0.3324366305874046    0.2883852707177986    0.24321341658098933    
  0.20310412918999962    0.17056216021293275    0.14605905431461527    0.129185606766427    0.11934371487677732    
  0.11611034326142673    0.11934371487677732    0.129185606766427    0.14605905431461527    0.17056216021293275    
  0.20310412918999962    0.24321341658098933    0.2883852707177986    0.3324366305874046    0.3645737215687481    
  0.37210241670230704    0.3480204510396445    0.2980910943018884    0.23903348932563587    0.18835690658604187    
  0.1561831082145887    0.14539907175820743    0.21863592856174022    0.22865104450402493    0.25710153744514425    
  0.2980910943018884    0.34015787748966375    0.3688970115879176    0.3738966161892352    0.3542995282346198    
  0.31768976856135045    0.2742342793409163    0.2318485154256487    0.19491399248974547    0.1651462643174039    
  0.14276077970682607    0.12731978203718766    0.11828762855942311    0.1153140659577161    0.11828762855942311    
  0.12731978203718766    0.14276077970682607    0.1651462643174039    0.19491399248974547    0.2318485154256487    
  0.2742342793409163    0.31768976856135045    0.3542995282346198    0.3738966161892352    0.3688970115879176    
  0.34015787748966375    0.2980910943018884    0.25710153744514425    0.22865104450402493    0.21863592856174022    
  0.2961367585734725    0.30338016890738717    0.3228843874805805    0.3480204510396445    0.36889701158791766    
  0.3758897655088083    0.3642093533200949    0.33589027412885575    0.2975882307104122    0.25658239423652035    
  0.2181716545541537    0.1852263991569877    0.15881631467654797    0.13895760427745837    0.1252183390081111    
  0.11714993725580045    0.11448664777381673    0.11714993725580045    0.1252183390081111    0.13895760427745837    
  0.15881631467654797    0.1852263991569877    0.2181716545541537    0.25658239423652035    0.2975882307104122    
  0.33589027412885575    0.3642093533200949    0.3758897655088083    0.36889701158791766    0.3480204510396445    
  0.3228843874805805    0.30338016890738717    0.2961367585734725    0.3518099203507486    0.3552704763063755    
  0.36374390252024147    0.3721024167023071    0.37389661618923514    0.3642093533200949    0.3419546062318477    
  0.31001008744133063    0.2733026910800147    0.23655979916559697    0.2031030799520956    0.17472302365445105    
  0.15203722092261365    0.13494605097698006    0.12306794091178336    0.11605981475462765    0.11374000867711584    
  0.11605981475462765    0.12306794091178336    0.13494605097698006    0.15203722092261365    0.17472302365445105    
  0.2031030799520956    0.23655979916559697    0.2733026910800147    0.31001008744133063    0.3419546062318477    
  0.3642093533200949    0.37389661618923514    0.3721024167023071    0.36374390252024147    0.3552704763063755    
  0.3518099203507486    0.3683972147145425    0.36866807145280023    0.3683415640783222    0.3645737215687481    
  0.35429952823461985    0.33589027412885575    0.3100100874413307    0.27921208907676814    0.2467605027696408    
  0.21555935760119838    0.18763770613178576    0.16409279925584097    0.14526405146516905    0.13101920049027982    
  0.1210649910671289    0.11516602038951182    0.11320899083746942    0.11516602038951182    0.1210649910671289    
  0.13101920049027982    0.14526405146516905    0.16409279925584097    0.18763770613178576    0.21555935760119838    
  0.2467605027696408    0.27921208907676814    0.3100100874413307    0.33589027412885575    0.35429952823461985    
  0.3645737215687481    0.3683415640783222    0.36866807145280023    0.3683972147145425    0.34811336105913643    
  0.3466529308633859    0.3417919039115453    0.33243663058740464    0.3176897685613505    0.2975882307104121    
  0.2733026910800148    0.2467605027696408    0.2200450767836811    0.19493104936720607    0.17266107702742986    
  0.15390578082119896    0.13885549161475616    0.12740785912800273    0.11937209975949055    0.11459944603214997    
  0.1130152820231296    0.11459944603214997    0.11937209975949055    0.12740785912800273    0.13885549161475616    
  0.15390578082119896    0.17266107702742986    0.19493104936720607    0.2200450767836811    0.2467605027696408    
  0.2733026910800148    0.2975882307104121    0.3176897685613505    0.33243663058740464    0.3417919039115453    
  0.3466529308633859    0.34811336105913643    0.3062182650352554    0.30430241977399386    0.2984289009838994    
  0.2883852707177986    0.27423427934091643    0.25658239423652035    0.23655979916559702    0.21555935760119838    
  0.19493104936720607    0.17577480374005372    0.15884874400759144    0.14456304186138655    0.13304492806883178    
  0.12425123176749814    0.11807676650453075    0.11441959445218748    0.11320902838887327    0.11441959445218748    
  0.11807676650453075    0.12425123176749814    0.13304492806883178    0.14456304186138655    0.15884874400759144    
  0.17577480374005372    0.19493104936720607    0.21555935760119838    0.23655979916559702    0.25658239423652035    
  0.27423427934091643    0.2883852707177986    0.2984289009838994    0.30430241977399386    0.3062182650352554    
  0.2583955696008211    0.25669707968419914    0.2516064316662942    0.24321341658098933    0.23184851542564874    
  0.2181716545541537    0.20310307995209564    0.1876377061317858    0.17266107702742994    0.15884874400759147    
  0.14665049801511676    0.1363221473584004    0.12797367899074316    0.121614439105007    0.1171860592171211    
  0.11459197935747341    0.11374008336948009    0.11459197935747341    0.1171860592171211    0.121614439105007    
  0.12797367899074316    0.1363221473584004    0.14665049801511676    0.15884874400759147    0.17266107702742994    
  0.1876377061317858    0.20310307995209564    0.2181716545541537    0.23184851542564874    0.24321341658098933    
  0.2516064316662942    0.25669707968419914    0.2583955696008211    0.21432411258835082    0.21304823639390877    
  0.20925863836954622    0.20310412918999962    0.19491399248974547    0.1852263991569877    0.17472302365445105    
  0.16409279925584097    0.15390578082119902    0.1445630418613865    0.13632214735840034    0.12934771562750463    
  0.12373926200854932    0.11952632588024605    0.1166571437377634    0.11501677624788541    0.114486757759859    
  0.11501677624788541    0.1166571437377634    0.11952632588024605    0.12373926200854932    0.12934771562750463    
  0.13632214735840034    0.1445630418613865    0.15390578082119902    0.16409279925584097    0.17472302365445105    
  0.1852263991569877    0.19491399248974547    0.20310412918999962    0.20925863836954622    0.21304823639390877    
  0.21432411258835082    0.17810960190802647    0.17724173455723385    0.17468001829373075    0.1705621602129328    
  0.16514626431740392    0.15881631467654792    0.15203722092261368    0.14526405146516908    0.1388554916147562    
  0.13304492806883178    0.12797367899074316    0.12373926200854934    0.12040918007675283    0.11799550208637906    
  0.11642962320020288    0.1155794290115763    0.11531420743400682    0.1155794290115763    0.11642962320020288    
  0.11799550208637906    0.12040918007675283    0.12373926200854934    0.12797367899074316    0.13304492806883178    
  0.1388554916147562    0.14526405146516908    0.15203722092261368    0.15881631467654792    0.16514626431740392    
  0.1705621602129328    0.17468001829373075    0.17724173455723385    0.17810960190802647    0.15074998423220232    
  0.1502030988927518    0.14860144196299802    0.1460590543146153    0.14276077970682613    0.13895760427745832    
  0.13494605097698006    0.1310192004902797    0.12740785912800265    0.12425123176749814    0.12161443910500704    
  0.11952632588024614    0.11799550208637903    0.11699299300591154    0.11643135343977754    0.11617816544302376    
  0.11611051109942613    0.11617816544302376    0.11643135343977754    0.11699299300591154    0.11799550208637903    
  0.11952632588024614    0.12161443910500704    0.12425123176749814    0.12740785912800265    0.1310192004902797    
  0.13494605097698006    0.13895760427745832    0.14276077970682613    0.1460590543146153    0.14860144196299802    
  0.1502030988927518    0.15074998423220232    0.1319300897954496    0.1316029710705279    0.13065689870630642    
  0.12918560676642704    0.1273197820371877    0.1252183390081111    0.12306794091178333    0.12106499106712887    
  0.11937209975949054    0.11807676650453078    0.11718605921712111    0.11665714373776342    0.11642962320020288    
  0.11643135343977754    0.11656635588581261    0.11671760217232728    0.11678193830192911    0.11671760217232728    
  0.11656635588581261    0.11643135343977754    0.11642962320020288    0.11665714373776342    0.11718605921712111    
  0.11807676650453078    0.11937209975949054    0.12106499106712887    0.12306794091178333    0.1252183390081111    
  0.1273197820371877    0.12918560676642704    0.13065689870630642    0.1316029710705279    0.1319300897954496    
  0.1209864313241641    0.12078395927781918    0.12020923743955068    0.11934371487677731    0.11828762855942318    
  0.1171499372558005    0.11605981475462765    0.11516602038951188    0.11459944603215    0.11441959445218751    
  0.11459197935747328    0.11501677624788531    0.11557942901157628    0.11617816544302367    0.11671760217232723    
  0.11709902146390942    0.11723767283540895    0.11709902146390942    0.11671760217232723    0.11617816544302367    
  0.11557942901157628    0.11501677624788531    0.11459197935747328    0.11441959445218751    0.11459944603215    
  0.11516602038951188    0.11605981475462765    0.1171499372558005    0.11828762855942318    0.11934371487677731    
  0.12020923743955068    0.12078395927781918    0.1209864313241641    0.11739998396869632    0.11723747103072875    
  0.11678174996644998    0.1161103432614267    0.11531406595771612    0.11448664777381673    0.11374000867711585    
  0.11320899083746949    0.11301528202312959    0.11320902838887328    0.11374008336948009    0.114486757759859    
  0.11531420743400689    0.1161105110994261    0.11678193830192914    0.11723767283540894    0.11740019054566647    
  0.11723767283540894    0.11678193830192914    0.1161105110994261    0.11531420743400689    0.114486757759859    
  0.11374008336948009    0.11320902838887328    0.11301528202312959    0.11320899083746949    0.11374000867711585    
  0.11448664777381673    0.11531406595771612    0.1161103432614267    0.11678174996644998    0.11723747103072875    
  0.11739998396869632    0.1209864313241641    0.12078395927781918    0.12020923743955068    0.11934371487677731    
  0.11828762855942318    0.1171499372558005    0.11605981475462765    0.11516602038951188    0.11459944603215    
  0.11441959445218751    0.11459197935747328    0.11501677624788531    0.11557942901157628    0.11617816544302367    
  0.11671760217232723    0.11709902146390942    0.11723767283540895    0.11709902146390942    0.11671760217232723    
  0.11617816544302367    0.11557942901157628    0.11501677624788531    0.11459197935747328    0.11441959445218751    
  0.11459944603215    0.11516602038951188    0.11605981475462765    0.1171499372558005    0.11828762855942318    
  0.11934371487677731    0.12020923743955068    0.12078395927781918    0.1209864313241641    0.1319300897954496    
  0.1316029710705279    0.13065689870630642    0.12918560676642704    0.1273197820371877    0.1252183390081111    
  0.12306794091178333    0.12106499106712887    0.11937209975949054    0.11807676650453078    0.11718605921712111    
  0.11665714373776342    0.11642962320020288    0.11643135343977754    0.11656635588581261    0.11671760217232728    
  0.11678193830192911    0.11671760217232728    0.11656635588581261    0.11643135343977754    0.11642962320020288    
  0.11665714373776342    0.11718605921712111    0.11807676650453078    0.11937209975949054    0.12106499106712887    
  0.12306794091178333    0.1252183390081111    0.1273197820371877    0.12918560676642704    0.13065689870630642    
  0.1316029710705279    0.1319300897954496    0.15074998423220232    0.1502030988927518    0.14860144196299802    
  0.1460590543146153    0.14276077970682613    0.13895760427745832    0.13494605097698006    0.1310192004902797    
  0.12740785912800265    0.12425123176749814    0.12161443910500704    0.11952632588024614    0.11799550208637903    
  0.11699299300591154    0.11643135343977754    0.11617816544302376    0.11611051109942613    0.11617816544302376    
  0.11643135343977754    0.11699299300591154    0.11799550208637903    0.11952632588024614    0.12161443910500704    
  0.12425123176749814    0.12740785912800265    0.1310192004902797    0.13494605097698006    0.13895760427745832    
  0.14276077970682613    0.1460590543146153    0.14860144196299802    0.1502030988927518    0.15074998423220232    
  0.17810960190802647    0.17724173455723385    0.17468001829373075    0.1705621602129328    0.16514626431740392    
  0.15881631467654792    0.15203722092261368    0.14526405146516908    0.1388554916147562    0.13304492806883178    
  0.12797367899074316    0.12373926200854934    0.12040918007675283    0.11799550208637906    0.11642962320020288    
  0.1155794290115763    0.11531420743400682    0.1155794290115763    0.11642962320020288    0.11799550208637906    
  0.12040918007675283    0.12373926200854934    0.12797367899074316    0.13304492806883178    0.1388554916147562    
  0.14526405146516908    0.15203722092261368    0.15881631467654792    0.16514626431740392    0.1705621602129328    
  0.17468001829373075    0.17724173455723385    0.17810960190802647    0.21432411258835082    0.21304823639390877    
  0.20925863836954622    0.20310412918999962    0.19491399248974547    0.1852263991569877    0.17472302365445105    
  0.16409279925584097    0.15390578082119902    0.1445630418613865    0.13632214735840034    0.12934771562750463    
  0.12373926200854932    0.11952632588024605    0.1166571437377634    0.11501677624788541    0.114486757759859    
  0.11501677624788541    0.1166571437377634    0.11952632588024605    0.12373926200854932    0.12934771562750463    
  0.13632214735840034    0.1445630418613865    0.15390578082119902    0.16409279925584097    0.17472302365445105    
  0.1852263991569877    0.19491399248974547    0.20310412918999962    0.20925863836954622    0.21304823639390877    
  0.21432411258835082    0.2583955696008211    0.25669707968419914    0.2516064316662942    0.24321341658098933    
  0.23184851542564874    0.2181716545541537    0.20310307995209564    0.1876377061317858    0.17266107702742994    
  0.15884874400759147    0.14665049801511676    0.1363221473584004    0.12797367899074316    0.121614439105007    
  0.1171860592171211    0.11459197935747341    0.11374008336948009    0.11459197935747341    0.1171860592171211    
  0.121614439105007    0.12797367899074316    0.1363221473584004    0.14665049801511676    0.15884874400759147    
  0.17266107702742994    0.1876377061317858    0.20310307995209564    0.2181716545541537    0.23184851542564874    
  0.24321341658098933    0.2516064316662942    0.25669707968419914    0.2583955696008211    0.3062182650352554    
  0.30430241977399386    0.2984289009838994    0.2883852707177986    0.27423427934091643    0.25658239423652035    
  0.23655979916559702    0.21555935760119838    0.19493104936720607    0.17577480374005372    0.15884874400759144    
  0.14456304186138655    0.13304492806883178    0.12425123176749814    0.11807676650453075    0.11441959445218748    
  0.11320902838887327    0.11441959445218748    0.11807676650453075    0.12425123176749814    0.13304492806883178    
  0.14456304186138655    0.15884874400759144    0.17577480374005372    0.19493104936720607    0.21555935760119838    
  0.23655979916559702    0.25658239423652035    0.27423427934091643    0.2883852707177986    0.2984289009838994    
  0.30430241977399386    0.3062182650352554    0.34811336105913643    0.3466529308633859    0.3417919039115453    
  0.33243663058740464    0.3176897685613505    0.2975882307104121    0.2733026910800148    0.2467605027696408    
  0.2200450767836811    0.19493104936720607    0.17266107702742986    0.15390578082119896    0.13885549161475616    
  0.12740785912800273    0.11937209975949055    0.11459944603214997    0.1130152820231296    0.11459944603214997    
  0.11937209975949055    0.12740785912800273    0.13885549161475616    0.15390578082119896    0.17266107702742986    
  0.19493104936720607    0.2200450767836811    0.2467605027696408    0.2733026910800148    0.2975882307104121    
  0.3176897685613505    0.33243663058740464    0.3417919039115453    0.3466529308633859    0.34811336105913643    
  0.3683972147145425    0.36866807145280023    0.3683415640783222    0.3645737215687481    0.35429952823461985    
  0.33589027412885575    0.3100100874413307    0.27921208907676814    0.2467605027696408    0.21555935760119838    
  0.18763770613178576    0.16409279925584097    0.14526405146516905    0.13101920049027982    0.1210649910671289    
  0.11516602038951182    0.11320899083746942    0.11516602038951182    0.1210649910671289    0.13101920049027982    
  0.14526405146516905    0.16409279925584097    0.18763770613178576    0.21555935760119838    0.2467605027696408    
  0.27921208907676814    0.3100100874413307    0.33589027412885575    0.35429952823461985    0.3645737215687481    
  0.3683415640783222    0.36866807145280023    0.3683972147145425    0.3518099203507486    0.3552704763063755    
  0.36374390252024147    0.3721024167023071    0.37389661618923514    0.3642093533200949    0.3419546062318477    
  0.31001008744133063    0.2733026910800147    0.23655979916559697    0.2031030799520956    0.17472302365445105    
  0.15203722092261365    0.13494605097698006    0.12306794091178336    0.11605981475462765    0.11374000867711584    
  0.11605981475462765    0.12306794091178336    0.13494605097698006    0.15203722092261365    0.17472302365445105    
  0.2031030799520956    0.23655979916559697    0.2733026910800147    0.31001008744133063    0.3419546062318477    
  0.3642093533200949    0.37389661618923514    0.3721024167023071    0.36374390252024147    0.3552704763063755    
  0.3518099203507486    0.2961367585734725    0.30338016890738717    0.3228843874805805    0.3480204510396445    
  0.36889701158791766    0.3758897655088083    0.3642093533200949    0.33589027412885575    0.2975882307104122    
  0.25658239423652035    0.2181716545541537    0.1852263991569877    0.15881631467654797    0.13895760427745837    
  0.1252183390081111    0.11714993725580045    0.11448664777381673    0.11714993725580045    0.1252183390081111    
  0.13895760427745837    0.15881631467654797    0.1852263991569877    0.2181716545541537    0.25658239423652035    
  0.2975882307104122    0.33589027412885575    0.3642093533200949    0.3758897655088083    0.36889701158791766    
  0.3480204510396445    0.3228843874805805    0.30338016890738717    0.2961367585734725    0.21863592856174022    
  0.22865104450402493    0.25710153744514425    0.2980910943018884    0.34015787748966375    0.3688970115879176    
  0.3738966161892352    0.3542995282346198    0.31768976856135045    0.2742342793409163    0.2318485154256487    
  0.19491399248974547    0.1651462643174039    0.14276077970682607    0.12731978203718766    0.11828762855942311    
  0.1153140659577161    0.11828762855942311    0.12731978203718766    0.14276077970682607    0.1651462643174039    
  0.19491399248974547    0.2318485154256487    0.2742342793409163    0.31768976856135045    0.3542995282346198    
  0.3738966161892352    0.3688970115879176    0.34015787748966375    0.2980910943018884    0.25710153744514425    
  0.22865104450402493    0.21863592856174022    0.14539907175820743    0.1561831082145887    0.18835690658604187    
  0.23903348932563587    0.2980910943018884    0.3480204510396445    0.37210241670230704    0.3645737215687481    
  0.3324366305874046    0.2883852707177986    0.24321341658098933    0.20310412918999962    0.17056216021293275    
  0.14605905431461527    0.129185606766427    0.11934371487677732    0.11611034326142673    0.11934371487677732    
  0.129185606766427    0.14605905431461527    0.17056216021293275    0.20310412918999962    0.24321341658098933    
  0.2883852707177986    0.3324366305874046    0.3645737215687481    0.37210241670230704    0.3480204510396445    
  0.2980910943018884    0.23903348932563587    0.18835690658604187    0.1561831082145887    0.14539907175820743    
  0.09360414820477551    0.10360733788242035    0.13491477315448402    0.18835690658604187    0.25710153744514425    
  0.3228843874805805    0.36374390252024147    0.36834156407832214    0.3417919039115453    0.29842890098389935    
  0.25160643166629415    0.20925863836954614    0.1746800182937307    0.14860144196299796    0.1306568987063064    
  0.12020923743955066    0.11678174996644998    0.12020923743955066    0.1306568987063064    0.14860144196299796    
  0.1746800182937307    0.20925863836954614    0.25160643166629415    0.29842890098389935    0.3417919039115453    
  0.36834156407832214    0.36374390252024147    0.3228843874805805    0.25710153744514425    0.18835690658604187    
  0.13491477315448402    0.10360733788242035    0.09360414820477551    0.06573620984546635    0.07464135239301527    
  0.10360733788242028    0.15618310821458875    0.228651044504025    0.30338016890738717    0.35527047630637554    
  0.36866807145280034    0.34665293086338594    0.30430241977399386    0.2566970796841991    0.21304823639390882    
  0.17724173455723388    0.1502030988927518    0.13160297107052796    0.12078395927781921    0.11723747103072875    
  0.12078395927781921    0.13160297107052796    0.1502030988927518    0.17724173455723388    0.21304823639390882    
  0.2566970796841991    0.30430241977399386    0.34665293086338594    0.36866807145280034    0.35527047630637554    
  0.30338016890738717    0.228651044504025    0.15618310821458875    0.10360733788242028    0.07464135239301527    
  0.06573620984546635    0.05729887321323112    0.06573620984546641    0.09360414820477554    0.1453990717582075    
  0.21863592856174022    0.2961367585734725    0.3518099203507486    0.36839721471454256    0.34811336105913643    
  0.30621826503525534    0.258395569600821    0.21432411258835088    0.17810960190802647    0.1507499842322023    
  0.1319300897954496    0.12098643132416408    0.11739998396869639    0.12098643132416408    0.1319300897954496    
  0.1507499842322023    0.17810960190802647    0.21432411258835088    0.258395569600821    0.30621826503525534    
  0.34811336105913643    0.36839721471454256    0.3518099203507486    0.2961367585734725    0.21863592856174022    
  0.1453990717582075    0.09360414820477554    0.06573620984546641    0.05729887321323112    0.06573620984546644    
  0.07464135239301524    0.10360733788242035    0.15618310821458875    0.228651044504025    0.30338016890738717    
  0.35527047630637554    0.36866807145280034    0.34665293086338583    0.3043024197739939    0.2566970796841991    
  0.21304823639390882    0.17724173455723388    0.15020309889275177    0.13160297107052799    0.12078395927781921    
  0.11723747103072882    0.12078395927781921    0.13160297107052799    0.15020309889275177    0.17724173455723388    
  0.21304823639390882    0.2566970796841991    0.3043024197739939    0.34665293086338583    0.36866807145280034    
  0.35527047630637554    0.30338016890738717    0.228651044504025    0.15618310821458875    0.10360733788242035    
  0.07464135239301524    0.06573620984546644    0.07464135239301518    0.08396669403579465    0.11387851250920324    
  0.16699199490999098    0.23845071848829708    0.3102954962881507    0.35845106213693123    0.36878627167310746    
  0.345150284554199    0.3024028453011298    0.25503445718319373    0.21181027891289317    0.1764084756181792    
  0.14968665667404485    0.13130276800961843    0.12060612913155176    0.11709882446106765    0.12060612913155176    
  0.13130276800961843    0.14968665667404485    0.1764084756181792    0.21181027891289317    0.25503445718319373    
  0.3024028453011298    0.345150284554199    0.36878627167310746    0.35845106213693123    0.3102954962881507    
  0.23845071848829708    0.16699199490999098    0.11387851250920324    0.08396669403579465    0.07464135239301518    
  0.10360733788242033    0.11387851250920328    0.14567413250924682    0.1989819939500604    0.266116923198671    
  0.3287991764417248    0.3661302775699207    0.36804906672335336    0.34018848528548085    0.29658714860417634    
  0.25005333522931433    0.20813482320799032    0.1739512654180005    0.1481776864929351    0.1304394744477896    
  0.1201078639982936    0.11671741865620633    0.1201078639982936    0.1304394744477896    0.1481776864929351    
  0.1739512654180005    0.20813482320799032    0.25005333522931433    0.29658714860417634    0.34018848528548085    
  0.36804906672335336    0.3661302775699207    0.3287991764417248    0.266116923198671    0.1989819939500604    
  0.14567413250924682    0.11387851250920328    0.10360733788242033    0.1561831082145887    0.16699199490999092    
  0.1989819939500604    0.24866530255058103    0.30550121219135246    0.35230170700528113    0.3733372800362558    
  0.36374492863358865    0.33074085892182303    0.28666486918553113    0.2418476025167165    0.20217112494061096    
  0.17000921370206365    0.14579358640117462    0.12911211683196164    0.11937731978181694    0.11617800230209509    
  0.11937731978181694    0.12911211683196164    0.14579358640117462    0.17000921370206365    0.20217112494061096    
  0.2418476025167165    0.28666486918553113    0.33074085892182303    0.36374492863358865    0.3733372800362558    
  0.35230170700528113    0.30550121219135246    0.24866530255058103    0.1989819939500604    0.16699199490999092    
  0.1561831082145887    0.22865104450402493    0.23845071848829702    0.266116923198671    0.30550121219135246    
  0.34515094476013974    0.37116733776322236    0.37390110724513115    0.35298901852321335    0.3159890497500055    
  0.2727209315539276    0.2307493971384161    0.1942463606928244    0.16483989444352495    0.14272153728983308    
  0.12745653966676349    0.11852190792614838    0.1155792919483091    0.11852190792614838    0.12745653966676349    
  0.14272153728983308    0.16483989444352495    0.1942463606928244    0.2307493971384161    0.2727209315539276    
  0.3159890497500055    0.35298901852321335    0.37390110724513115    0.37116733776322236    0.34515094476013974    
  0.30550121219135246    0.266116923198671    0.23845071848829702    0.22865104450402493    0.30338016890738717    
  0.3102954962881507    0.32879917644172485    0.35230170700528113    0.3711673377632224    0.3762503188856747    
  0.36322619619285124    0.33431161950874516    0.29602531374022445    0.25537053048522673    0.2174124364010798    