#     DFTpy    
  CRYSTAL 
    
  PRIMVEC    
  2.4720000000000004    0.0    0.0    
  0.0    2.4720000000000004    0.0    
  0.0    0.0    2.4720000000000004    
  PRIMCOORD    
  2    1    
  Si    0.0    0.0    0.0    
  Si    1.2360000000000002    1.2360000000000002    1.2360000000000002    
  BEGIN_BLOCK_DATAGRID_3D    
  3d_datagrid_density    
  BEGIN_DATAGRID_3D#0    
  25    25    25    
  0.0    0.0    0.0    
  2.472000009220608    0.0    0.0    
  0.0    2.472000009220608    0.0    
  0.0    0.0    2.472000009220608    
  0.049833254012215694    0.058419236008576465    0.08766122529599049    0.1452898779383126    0.23450003085922125    
  0.34342684669544576    0.4455062098739474    0.5153107581783498    0.5446817291430729    0.5434852725147963    
  0.5286325902610955    0.5143088334269735    0.5086848246460374    0.5143088334269735    0.5286325902610955    
  0.5434852725147963    0.5446817291430729    0.5153107581783498    0.4455062098739474    0.3434268466954458    
  0.23450003085922125    0.14528987793831266    0.08766122529599049    0.05841923600857656    0.049833254012215694    
  0.058419236008576514    0.06766064523791723    0.09864172793973214    0.15826822992321118    0.2483653391918742    
  0.3560217383117633    0.45496352272354984    0.5211929991290066    0.5478676062922575    0.5452323794452552    
  0.5298512003345147    0.5154178023098188    0.5097895597415114    0.515417802309819    0.5298512003345147    
  0.5452323794452552    0.5478676062922575    0.5211929991290067    0.45496352272354984    0.35602173831176337    
  0.2483653391918742    0.15826822992321118    0.09864172793973214    0.06766064523791727    0.058419236008576514    
  0.0876612252959904    0.09864172793973214    0.13405188224009082    0.1982398148686906    0.28927825473177743    
  0.39185637879827956    0.4810565048861187    0.5369873792738893    0.556217452438746    0.5497526528663838    
  0.5330431797866777    0.5183849986034309    0.5127701312380005    0.5183849986034309    0.5330431797866777    
  0.5497526528663838    0.556217452438746    0.5369873792738893    0.4810565048861187    0.39185637879827956    
  0.28927825473177743    0.19823981486869066    0.13405188224009082    0.09864172793973218    0.0876612252959904    
  0.14528987793831252    0.1582682299232111    0.19823981486869052    0.2655115149462341    0.35331139063056216    
  0.44441195601803035    0.5171597984480483    0.5576561297783016    0.5665610735043274    0.5551809384110308    
  0.5370077820676521    0.5222741122287788    0.5167561656342995    0.5222741122287788    0.5370077820676521    
  0.5551809384110308    0.5665610735043274    0.5576561297783016    0.5171597984480483    0.4444119560180304    
  0.35331139063056227    0.26551151494623415    0.19823981486869058    0.1582682299232111    0.14528987793831252    
  0.23450003085922133    0.24836533919187428    0.28927825473177754    0.35331139063056227    0.42990033031088115    
  0.5021486282517633    0.5535738491619954    0.5765842138091889    0.5749825033331181    0.5592595858720338    
  0.540272412915847    0.5259127012486778    0.5206489862417413    0.5259127012486778    0.540272412915847    
  0.5592595858720338    0.5749825033331181    0.5765842138091889    0.5535738491619954    0.5021486282517633    
  0.42990033031088115    0.35331139063056227    0.28927825473177754    0.24836533919187434    0.23450003085922133    
  0.34342684669544576    0.3560217383117634    0.39185637879827956    0.44441195601803024    0.5021486282517633    
  0.5511055787450444    0.580616980893685    0.5880044912386413    0.5783302944804168    0.5601883182435522    
  0.5415962195000363    0.5282513825063504    0.523443079582956    0.5282513825063504    0.5415962195000363    
  0.5601883182435522    0.5783302944804168    0.5880044912386413    0.580616980893685    0.5511055787450444    
  0.5021486282517633    0.44441195601803035    0.3918563787982796    0.3560217383117635    0.34342684669544576    
  0.4455062098739474    0.45496352272354995    0.4810565048861187    0.5171597984480482    0.5535738491619954    
  0.580616980893685    0.5924701827571328    0.5891589769660718    0.5753175987839078    0.5571976814061693    
  0.5403164801730358    0.5286179645917409    0.524454408660202    0.5286179645917409    0.5403164801730358    
  0.5571976814061693    0.5753175987839078    0.5891589769660718    0.5924701827571328    0.580616980893685    
  0.5535738491619954    0.5171597984480482    0.4810565048861187    0.45496352272355006    0.4455062098739474    
  0.5153107581783497    0.5211929991290067    0.5369873792738893    0.5576561297783016    0.576584213809189    
  0.5880044912386414    0.5891589769660719    0.5809245786356377    0.5667051275302775    0.5506646344614953    
  0.536473201343881    0.526842706153968    0.5234425227691339    0.5268427061539679    0.536473201343881    
  0.5506646344614953    0.5667051275302775    0.5809245786356377    0.5891589769660719    0.5880044912386414    
  0.576584213809189    0.5576561297783016    0.5369873792738893    0.5211929991290067    0.5153107581783497    
  0.544681729143073    0.5478676062922575    0.556217452438746    0.5665610735043275    0.5749825033331182    
  0.578330294480417    0.5753175987839078    0.5667051275302774    0.5546604709735241    0.5418494721922964    
  0.5307467688925759    0.5232760407144232    0.5206479114411814    0.5232760407144232    0.5307467688925759    
  0.5418494721922964    0.5546604709735241    0.5667051275302774    0.5753175987839078    0.578330294480417    
  0.5749825033331182    0.5665610735043275    0.556217452438746    0.5478676062922575    0.544681729143073    
  0.5434852725147963    0.5452323794452552    0.5497526528663838    0.5551809384110308    0.5592595858720337    
  0.5601883182435522    0.5571976814061692    0.5506646344614953    0.5418494721922965    0.532467258335795    
  0.5242694036265491    0.5187152274996247    0.5167546483518451    0.5187152274996248    0.5242694036265491    
  0.5324672583357951    0.5418494721922965    0.5506646344614953    0.5571976814061692    0.5601883182435522    
  0.5592595858720337    0.5551809384110308    0.5497526528663836    0.5452323794452552    0.5434852725147963    
  0.5286325902610955    0.5298512003345147    0.5330431797866777    0.537007782067652    0.5402724129158472    
  0.5415962195000363    0.5403164801730358    0.5364732013438809    0.5307467688925758    0.5242694036265491    
  0.5183618655873438    0.5142433344682921    0.5127682777097939    0.5142433344682921    0.5183618655873438    
  0.5242694036265491    0.5307467688925758    0.536473201343881    0.5403164801730358    0.5415962195000363    
  0.5402724129158472    0.537007782067652    0.5330431797866777    0.5298512003345147    0.5286325902610955    
  0.5143088334269735    0.515417802309819    0.5183849986034309    0.5222741122287788    0.5259127012486777    
  0.5282513825063505    0.528617964591741    0.5268427061539679    0.5232760407144231    0.5187152274996247    
  0.5142433344682921    0.5109819742878147    0.5097874972926075    0.5109819742878147    0.5142433344682921    
  0.5187152274996247    0.5232760407144232    0.5268427061539678    0.528617964591741    0.5282513825063505    
  0.5259127012486777    0.5222741122287788    0.5183849986034309    0.515417802309819    0.5143088334269735    
  0.5086848246460375    0.5097895597415115    0.512770131238001    0.5167561656342997    0.5206489862417414    
  0.5234430795829563    0.5244544086602021    0.5234425227691339    0.5206479114411815    0.5167546483518451    
  0.5127682777097944    0.5097874972926076    0.508682691516831    0.5097874972926076    0.5127682777097944    
  0.5167546483518451    0.5206479114411815    0.5234425227691339    0.5244544086602021    0.5234430795829563    
  0.5206489862417414    0.5167561656342997    0.512770131238001    0.5097895597415115    0.5086848246460375    
  0.5143088334269735    0.515417802309819    0.5183849986034309    0.5222741122287788    0.5259127012486777    
  0.5282513825063505    0.5286179645917409    0.5268427061539679    0.5232760407144231    0.518715227499625    
  0.5142433344682921    0.5109819742878147    0.5097874972926076    0.5109819742878146    0.5142433344682921    
  0.518715227499625    0.5232760407144231    0.5268427061539678    0.5286179645917409    0.5282513825063504    
  0.5259127012486777    0.5222741122287788    0.5183849986034309    0.515417802309819    0.5143088334269735    
  0.5286325902610954    0.5298512003345147    0.5330431797866777    0.537007782067652    0.5402724129158472    
  0.5415962195000363    0.5403164801730358    0.5364732013438809    0.5307467688925758    0.5242694036265491    
  0.5183618655873438    0.5142433344682921    0.5127682777097939    0.5142433344682921    0.5183618655873438    
  0.5242694036265491    0.5307467688925758    0.536473201343881    0.5403164801730358    0.5415962195000363    
  0.5402724129158472    0.537007782067652    0.5330431797866777    0.5298512003345147    0.5286325902610954    
  0.5434852725147961    0.5452323794452552    0.5497526528663836    0.5551809384110307    0.5592595858720336    
  0.5601883182435521    0.5571976814061692    0.5506646344614952    0.5418494721922965    0.5324672583357951    
  0.5242694036265491    0.5187152274996248    0.516754648351845    0.5187152274996248    0.5242694036265491    
  0.5324672583357951    0.5418494721922965    0.5506646344614953    0.5571976814061692    0.5601883182435522    
  0.5592595858720336    0.5551809384110307    0.5497526528663836    0.5452323794452552    0.5434852725147961    
  0.544681729143073    0.5478676062922575    0.556217452438746    0.5665610735043275    0.5749825033331182    
  0.578330294480417    0.5753175987839078    0.5667051275302774    0.5546604709735241    0.5418494721922964    
  0.5307467688925759    0.5232760407144232    0.5206479114411814    0.5232760407144232    0.5307467688925759    
  0.5418494721922964    0.5546604709735241    0.5667051275302774    0.5753175987839078    0.578330294480417    
  0.5749825033331182    0.5665610735043275    0.556217452438746    0.5478676062922575    0.544681729143073    
  0.5153107581783499    0.5211929991290069    0.5369873792738893    0.5576561297783016    0.576584213809189    
  0.5880044912386414    0.5891589769660719    0.5809245786356377    0.5667051275302775    0.5506646344614954    
  0.536473201343881    0.5268427061539681    0.5234425227691339    0.5268427061539681    0.536473201343881    
  0.5506646344614954    0.5667051275302775    0.5809245786356377    0.5891589769660719    0.5880044912386414    
  0.576584213809189    0.5576561297783016    0.5369873792738893    0.5211929991290069    0.5153107581783499    
  0.4455062098739474    0.45496352272354995    0.4810565048861187    0.5171597984480482    0.5535738491619954    
  0.580616980893685    0.5924701827571328    0.5891589769660718    0.5753175987839078    0.5571976814061693    
  0.5403164801730358    0.5286179645917409    0.524454408660202    0.5286179645917409    0.5403164801730358    
  0.5571976814061693    0.5753175987839078    0.5891589769660718    0.5924701827571328    0.580616980893685    
  0.5535738491619954    0.5171597984480482    0.4810565048861187    0.45496352272355006    0.4455062098739474    
  0.3434268466954457    0.3560217383117633    0.3918563787982796    0.44441195601803035    0.5021486282517633    
  0.5511055787450444    0.5806169808936851    0.5880044912386413    0.578330294480417    0.5601883182435522    
  0.5415962195000363    0.5282513825063505    0.5234430795829561    0.5282513825063505    0.5415962195000364    
  0.5601883182435522    0.578330294480417    0.5880044912386413    0.5806169808936851    0.5511055787450444    
  0.5021486282517633    0.44441195601803035    0.3918563787982796    0.35602173831176337    0.3434268466954457    
  0.23450003085922133    0.24836533919187428    0.28927825473177754    0.35331139063056227    0.42990033031088115    
  0.5021486282517633    0.5535738491619954    0.5765842138091889    0.5749825033331181    0.5592595858720338    
  0.540272412915847    0.5259127012486778    0.5206489862417413    0.5259127012486778    0.540272412915847    
  0.5592595858720338    0.5749825033331181    0.5765842138091889    0.5535738491619954    0.5021486282517633    
  0.42990033031088115    0.35331139063056227    0.28927825473177754    0.24836533919187434    0.23450003085922133    
  0.1452898779383126    0.1582682299232111    0.19823981486869058    0.26551151494623426    0.35331139063056227    
  0.4444119560180305    0.5171597984480483    0.5576561297783016    0.5665610735043274    0.5551809384110308    
  0.5370077820676521    0.5222741122287788    0.5167561656342995    0.5222741122287788    0.5370077820676521    
  0.5551809384110308    0.5665610735043274    0.5576561297783016    0.5171597984480483    0.4444119560180305    
  0.35331139063056227    0.26551151494623426    0.1982398148686906    0.15826822992321113    0.1452898779383126    
  0.0876612252959904    0.09864172793973214    0.13405188224009082    0.1982398148686906    0.28927825473177743    
  0.39185637879827956    0.4810565048861187    0.5369873792738893    0.556217452438746    0.5497526528663838    
  0.5330431797866777    0.5183849986034309    0.5127701312380005    0.5183849986034309    0.5330431797866777    
  0.5497526528663838    0.556217452438746    0.5369873792738893    0.4810565048861187    0.39185637879827956    
  0.28927825473177743    0.19823981486869066    0.13405188224009082    0.09864172793973218    0.0876612252959904    
  0.058419236008576514    0.06766064523791723    0.09864172793973214    0.1582682299232112    0.24836533919187426    
  0.3560217383117634    0.45496352272354995    0.5211929991290066    0.5478676062922575    0.545232379445255    
  0.5298512003345148    0.5154178023098189    0.5097895597415114    0.515417802309819    0.5298512003345148    
  0.545232379445255    0.5478676062922575    0.5211929991290067    0.45496352272354995    0.3560217383117635    
  0.24836533919187426    0.15826822992321118    0.09864172793973214    0.06766064523791737    0.058419236008576514    
  0.049833254012215694    0.058419236008576465    0.08766122529599049    0.1452898779383126    0.23450003085922125    
  0.34342684669544576    0.4455062098739474    0.5153107581783498    0.5446817291430729    0.5434852725147963    
  0.5286325902610955    0.5143088334269735    0.5086848246460374    0.5143088334269735    0.5286325902610955    
  0.5434852725147963    0.5446817291430729    0.5153107581783498    0.4455062098739474    0.3434268466954458    
  0.23450003085922125    0.14528987793831266    0.08766122529599049    0.05841923600857656    0.049833254012215694    
  0.058419236008576465    0.06766064523791718    0.09864172793973217    0.15826822992321113    0.2483653391918742    
  0.3560217383117634    0.45496352272354995    0.5211929991290067    0.5478676062922575    0.5452323794452552    
  0.5298512003345148    0.5154178023098189    0.5097895597415114    0.515417802309819    0.5298512003345148    
  0.5452323794452552    0.5478676062922575    0.5211929991290067    0.45496352272354995    0.3560217383117634    
  0.2483653391918742    0.15826822992321116    0.09864172793973217    0.06766064523791727    0.058419236008576465    
  0.06766064523791718    0.07752466747446735    0.11012474335048164    0.17151915151904962    0.26221754967454264    
  0.3683897947145628    0.46414172650868224    0.5268775300261436    0.550976530955646    0.5469945006687007    
  0.531134112937676    0.5166113240603838    0.5109839648346418    0.5166113240603839    0.531134112937676    
  0.5469945006687007    0.550976530955646    0.5268775300261438    0.46414172650868224    0.3683897947145629    
  0.26221754967454264    0.17151915151904956    0.11012474335048164    0.07752466747446739    0.06766064523791718    
  0.098641727939732    0.11012474335048164    0.14675577783075258    0.21202816302877428    0.3028956348907999    
  0.4034753134105257    0.48942709957868613    0.5421443682091013    0.5591527129255017    0.5515965279959713    
  0.5345403709695842    0.5198459004410138    0.5142451125413541    0.5198459004410138    0.5345403709695842    
  0.5515965279959713    0.5591527129255017    0.5421443682091013    0.48942709957868613    0.4034753134105258    
  0.3028956348907999    0.21202816302877428    0.14675577783075258    0.11012474335048172    0.098641727939732    
  0.15826822992321102    0.17151915151904948    0.21202816302877417    0.27937343828797695    0.3660357191830519    
  0.45466015491748496    0.5243161490587306    0.5621342016483799    0.5693626816892133    0.5572509711940905    
  0.5389071393073335    0.5242043815016341    0.5187166636798136    0.5242043815016341    0.5389071393073335    
  0.5572509711940905    0.5693626816892133    0.5621342016483799    0.5243161490587306    0.45466015491748496    
  0.3660357191830519    0.27937343828797706    0.21202816302877428    0.1715191515190495    0.15826822992321102    
  0.24836533919187428    0.2622175496745427    0.30289563489079996    0.36603571918305206    0.44079003499722413    
  0.5104961273687674    0.5593626092331981    0.5804616884367807    0.5778239153409452    0.5617498662519825    
  0.5427641378412034    0.5284965644400184    0.5232770269116713    0.5284965644400184    0.5427641378412034    
  0.5617498662519825    0.5778239153409452    0.5804616884367807    0.5593626092331981    0.5104961273687674    
  0.44079003499722413    0.36603571918305194    0.30289563489079996    0.26221754967454275    0.24836533919187428    
  0.3560217383117635    0.3683897947145629    0.4034753134105257    0.45466015491748496    0.5104961273687674    
  0.5574041746050659    0.5852120289782498    0.5915425996440575    0.5814373082347428    0.5632667127656612    
  0.5448087021183309    0.5315984952967695    0.526843165354207    0.5315984952967695    0.5448087021183309    
  0.5632667127656612    0.5814373082347428    0.5915425996440575    0.5852120289782498    0.5574041746050659    
  0.5104961273687674    0.45466015491748496    0.4034753134105257    0.3683897947145629    0.3560217383117635    
  0.45496352272354995    0.46414172650868235    0.48942709957868613    0.5243161490587306    0.5593626092331981    
  0.5852120289782498    0.5962915803175121    0.5926733236736158    0.5788643795844696    0.5609367917327609    
  0.5442691843372136    0.5327255230283819    0.5286178571351333    0.5327255230283819    0.5442691843372136    
  0.5609367917327609    0.5788643795844696    0.5926733236736158    0.5962915803175121    0.5852120289782498    
  0.5593626092331981    0.5243161490587306    0.48942709957868613    0.46414172650868235    0.45496352272354995    
  0.5211929991290067    0.5268775300261437    0.5421443682091013    0.5621342016483799    0.5804616884367808    
  0.5915425996440576    0.5926733236736158    0.5846534963107956    0.5707519859836238    0.5550215918113974    
  0.5410741184811441    0.5315979191936131    0.5282507085712368    0.5315979191936131    0.5410741184811441    
  0.5550215918113974    0.5707519859836238    0.5846534963107956    0.5926733236736158    0.5915425996440576    
  0.5804616884367808    0.5621342016483799    0.5421443682091013    0.5268775300261437    0.5211929991290067    
  0.5478676062922575    0.5509765309556459    0.5591527129255017    0.5693626816892133    0.5778239153409452    
  0.5814373082347429    0.5788643795844696    0.5707519859836235    0.5591601903339464    0.5466977596216511    
  0.5358309678236282    0.5284954530912588    0.525911500843032    0.5284954530912588    0.5358309678236282    
  0.5466977596216511    0.5591601903339464    0.5707519859836235    0.5788643795844696    0.5814373082347429    
  0.5778239153409452    0.5693626816892133    0.5591527129255017    0.550976530955646    0.5478676062922575    
  0.5452323794452552    0.5469945006687007    0.551596527995971    0.5572509711940905    0.5617498662519824    
  0.5632667127656612    0.5609367917327608    0.5550215918113974    0.5466977596216512    0.5376526275499576    
  0.5296558510422863    0.5242028137008788    0.5222724626468132    0.5242028137008788    0.5296558510422863    
  0.5376526275499576    0.5466977596216512    0.5550215918113974    0.5609367917327608    0.5632667127656612    
  0.5617498662519824    0.5572509711940905    0.551596527995971    0.5469945006687007    0.5452323794452552    
  0.5298512003345147    0.531134112937676    0.5345403709695842    0.5389071393073334    0.5427641378412034    
  0.5448087021183309    0.5442691843372136    0.541074118481144    0.5358309678236282    0.5296558510422863    
  0.523902144898648    0.5198439861648558    0.5183830080281836    0.5198439861648558    0.523902144898648    
  0.5296558510422863    0.5358309678236282    0.541074118481144    0.5442691843372136    0.5448087021183309    
  0.5427641378412034    0.5389071393073334    0.5345403709695842    0.531134112937676    0.5298512003345147    
  0.515417802309819    0.5166113240603838    0.5198459004410138    0.5242043815016341    0.5284965644400182    
  0.5315984952967696    0.532725523028382    0.5315979191936131    0.5284954530912587    0.5242028137008788    
  0.519843986164856    0.5166091945538619    0.515415599973406    0.516609194553862    0.519843986164856    
  0.5242028137008788    0.5284954530912587    0.531597919193613    0.532725523028382    0.5315984952967696    
  0.5284965644400182    0.5242043815016341    0.5198459004410138    0.5166113240603839    0.515417802309819    
  0.5097895597415115    0.5109839648346418    0.5142451125413544    0.5187166636798137    0.5232770269116713    
  0.5268431653542073    0.5286178571351335    0.5282507085712367    0.5259115008430321    0.5222724626468133    
  0.5183830080281839    0.5154155999734061    0.5143065594599759    0.5154155999734061    0.5183830080281839    
  0.5222724626468133    0.5259115008430321    0.5282507085712366    0.5286178571351335    0.5268431653542073    
  0.5232770269116713    0.5187166636798137    0.5142451125413544    0.5109839648346419    0.5097895597415115    
  0.5154178023098189    0.5166113240603838    0.5198459004410138    0.5242043815016341    0.5284965644400182    
  0.5315984952967695    0.5327255230283819    0.5315979191936131    0.5284954530912587    0.524202813700879    
  0.5198439861648558    0.516609194553862    0.5154155999734061    0.5166091945538619    0.5198439861648558    
  0.524202813700879    0.5284954530912587    0.531597919193613    0.5327255230283819    0.5315984952967695    
  0.5284965644400182    0.5242043815016341    0.5198459004410138    0.5166113240603839    0.5154178023098189    
  0.5298512003345147    0.531134112937676    0.5345403709695842    0.5389071393073334    0.5427641378412034    
  0.5448087021183309    0.5442691843372136    0.541074118481144    0.5358309678236282    0.5296558510422863    
  0.523902144898648    0.5198439861648558    0.5183830080281836    0.5198439861648558    0.523902144898648    
  0.5296558510422863    0.5358309678236282    0.541074118481144    0.5442691843372136    0.5448087021183309    
  0.5427641378412034    0.5389071393073334    0.5345403709695842    0.531134112937676    0.5298512003345147    
  0.545232379445255    0.5469945006687007    0.551596527995971    0.5572509711940904    0.5617498662519824    
  0.5632667127656612    0.5609367917327608    0.5550215918113973    0.5466977596216512    0.5376526275499576    
  0.5296558510422863    0.5242028137008788    0.5222724626468132    0.5242028137008788    0.5296558510422863    
  0.5376526275499576    0.5466977596216512    0.5550215918113973    0.5609367917327608    0.5632667127656612    
  0.5617498662519824    0.5572509711940904    0.551596527995971    0.5469945006687007    0.545232379445255    
  0.5478676062922575    0.5509765309556459    0.5591527129255017    0.5693626816892133    0.5778239153409452    
  0.5814373082347429    0.5788643795844696    0.5707519859836235    0.5591601903339464    0.5466977596216511    
  0.5358309678236282    0.5284954530912588    0.525911500843032    0.5284954530912588    0.5358309678236282    
  0.5466977596216511    0.5591601903339464    0.5707519859836235    0.5788643795844696    0.5814373082347429    
  0.5778239153409452    0.5693626816892133    0.5591527129255017    0.550976530955646    0.5478676062922575    
  0.5211929991290069    0.5268775300261438    0.5421443682091013    0.56213420164838    0.5804616884367808    
  0.5915425996440576    0.5926733236736157    0.5846534963107956    0.5707519859836236    0.5550215918113975    
  0.541074118481144    0.5315979191936131    0.5282507085712367    0.5315979191936131    0.541074118481144    
  0.5550215918113975    0.5707519859836236    0.5846534963107956    0.5926733236736157    0.5915425996440576    
  0.5804616884367808    0.56213420164838    0.5421443682091013    0.5268775300261438    0.5211929991290069    
  0.45496352272354995    0.46414172650868235    0.48942709957868613    0.5243161490587306    0.5593626092331981    
  0.5852120289782498    0.5962915803175121    0.5926733236736158    0.5788643795844696    0.5609367917327609    
  0.5442691843372136    0.5327255230283819    0.5286178571351333    0.5327255230283819    0.5442691843372136    
  0.5609367917327609    0.5788643795844696    0.5926733236736158    0.5962915803175121    0.5852120289782498    
  0.5593626092331981    0.5243161490587306    0.48942709957868613    0.46414172650868235    0.45496352272354995    
  0.3560217383117633    0.3683897947145629    0.4034753134105257    0.45466015491748496    0.5104961273687674    
  0.5574041746050659    0.5852120289782499    0.5915425996440575    0.5814373082347429    0.5632667127656612    
  0.544808702118331    0.5315984952967695    0.5268431653542072    0.5315984952967695    0.544808702118331    
  0.5632667127656612    0.5814373082347429    0.5915425996440575    0.5852120289782499    0.5574041746050659    
  0.5104961273687674    0.45466015491748496    0.4034753134105257    0.3683897947145629    0.3560217383117633    
  0.24836533919187428    0.2622175496745427    0.3028956348908    0.36603571918305206    0.44079003499722413    
  0.5104961273687674    0.5593626092331981    0.5804616884367807    0.5778239153409452    0.5617498662519825    
  0.5427641378412034    0.5284965644400184    0.5232770269116713    0.5284965644400184    0.5427641378412034    
  0.5617498662519825    0.5778239153409452    0.5804616884367807    0.5593626092331981    0.5104961273687674    
  0.44079003499722413    0.36603571918305194    0.30289563489079996    0.26221754967454275    0.24836533919187428    
  0.1582682299232111    0.1715191515190495    0.21202816302877422    0.2793734382879771    0.3660357191830519    
  0.45466015491748507    0.5243161490587306    0.5621342016483799    0.5693626816892132    0.5572509711940905    
  0.5389071393073335    0.5242043815016341    0.5187166636798136    0.5242043815016341    0.5389071393073335    
  0.5572509711940905    0.5693626816892132    0.5621342016483799    0.5243161490587306    0.45466015491748507    
  0.3660357191830519    0.2793734382879771    0.21202816302877428    0.1715191515190496    0.1582682299232111    
  0.09864172793973203    0.11012474335048165    0.14675577783075258    0.21202816302877428    0.30289563489079985    
  0.4034753134105257    0.48942709957868613    0.5421443682091013    0.5591527129255017    0.5515965279959713    
  0.5345403709695842    0.5198459004410138    0.5142451125413541    0.5198459004410138    0.5345403709695842    
  0.5515965279959713    0.5591527129255017    0.5421443682091013    0.48942709957868613    0.4034753134105258    
  0.3028956348907999    0.21202816302877428    0.14675577783075258    0.11012474335048172    0.09864172793973203    
  0.06766064523791723    0.07752466747446735    0.11012474335048164    0.17151915151904965    0.2622175496745427    
  0.3683897947145629    0.46414172650868235    0.5268775300261437    0.550976530955646    0.5469945006687007    
  0.5311341129376761    0.5166113240603839    0.5109839648346417    0.516611324060384    0.5311341129376761    
  0.5469945006687006    0.5509765309556459    0.5268775300261438    0.46414172650868235    0.3683897947145629    
  0.2622175496745427    0.17151915151904962    0.11012474335048165    0.07752466747446743    0.06766064523791723    
  0.058419236008576465    0.06766064523791718    0.09864172793973217    0.15826822992321113    0.2483653391918742    
  0.3560217383117634    0.45496352272354995    0.5211929991290067    0.5478676062922575    0.5452323794452552    
  0.5298512003345148    0.5154178023098189    0.5097895597415114    0.515417802309819    0.5298512003345148    
  0.5452323794452552    0.5478676062922575    0.5211929991290067    0.45496352272354995    0.3560217383117634    
  0.2483653391918742    0.15826822992321116    0.09864172793973217    0.06766064523791727    0.058419236008576465    
  0.0876612252959904    0.09864172793973207    0.1340518822400909    0.19823981486869072    0.2892782547317775    
  0.3918563787982796    0.48105650488611856    0.5369873792738893    0.5562174524387459    0.5497526528663838    
  0.5330431797866779    0.5183849986034309    0.5127701312380007    0.5183849986034309    0.5330431797866779    
  0.5497526528663838    0.5562174524387459    0.5369873792738893    0.48105650488611856    0.39185637879827967    
  0.28927825473177743    0.19823981486869074    0.1340518822400909    0.09864172793973221    0.0876612252959904    
  0.09864172793973207    0.11012474335048171    0.1467557778307526    0.21202816302877428    0.30289563489079996    
  0.40347531341052567    0.48942709957868596    0.5421443682091012    0.5591527129255016    0.5515965279959711    
  0.5345403709695842    0.5198459004410138    0.5142451125413544    0.5198459004410138    0.5345403709695842    
  0.5515965279959711    0.5591527129255016    0.5421443682091013    0.48942709957868596    0.40347531341052567    