#     DFTpy    
  CRYSTAL 
    
  PRIMVEC    
  2.9195172413793102    0.0    0.0    
  0.0    2.9195172413793102    0.0    
  0.0    0.0    2.9195172413793102    
  PRIMCOORD    
  2    1    
  Si    0.0    0.0    0.0    
  Si    1.4597586206896604    1.4597586206896604    1.4597586206896604    
  BEGIN_BLOCK_DATAGRID_3D    
  3d_datagrid_density    
  BEGIN_DATAGRID_3D#0    
  28    28    28    
  0.0    0.0    0.0    
  2.9195172522691655    0.0    0.0    
  0.0    2.9195172522691655    0.0    
  0.0    0.0    2.9195172522691655    
  0.0529508390953827    0.06177939111722624    0.09140854347995092    0.14761679723229434    0.2283440436810048    
  0.31464572811073116    0.37776892593456135    0.3996203442178323    0.3837473772034495    0.34703701352566974    
  0.3060317234269012    0.27086087466374764    0.24615382597536872    0.2335813254866186    0.23358132548661867    
  0.24615382597536878    0.2708608746637477    0.3060317234269012    0.34703701352566974    0.3837473772034494    
  0.3996203442178323    0.37776892593456135    0.31464572811073116    0.22834404368100483    0.14761679723229426    
  0.0914085434799509    0.06177939111722628    0.0529508390953827    0.06177939111722626    0.07119479713957837    
  0.10224706203835769    0.1596308703777112    0.23983647419033444    0.323370277381721    0.3825965138125039    
  0.4011790099223345    0.3835398709277644    0.3463207018766474    0.3054366519350687    0.27056375556999995    
  0.24612065819414858    0.23369561802682678    0.2336956180268268    0.2461206581941486    0.27056375557    
  0.3054366519350687    0.3463207018766474    0.3835398709277643    0.4011790099223345    0.3825965138125039    
  0.323370277381721    0.23983647419033444    0.15963087037771115    0.10224706203835766    0.07119479713957837    
  0.06177939111722626    0.09140854347995092    0.10224706203835773    0.1364864716241988    0.19566965977652523    
  0.2726136227615941    0.34704676817863456    0.3948801088124759    0.40447491526474566    0.38225392484003634    
  0.34391418834554516    0.3035705067654795    0.2696586905571024    0.24603129403254168    0.2340556396824763    
  0.2340556396824763    0.24603129403254162    0.2696586905571024    0.3035705067654795    0.3439141883455452    
  0.3822539248400363    0.40447491526474566    0.3948801088124759    0.34704676817863456    0.2726136227615941    
  0.19566965977652515    0.1364864716241988    0.10224706203835773    0.09140854347995092    0.14761679723229434    
  0.1596308703777112    0.1956696597765252    0.2528952482971218    0.3202277168543439    0.3782385650684638    
  0.40874146760168906    0.4060664042110762    0.37832759090232004    0.3392459993246045    0.30026431479624405    
  0.2681148717712731    0.24589471874275529    0.23467762740067638    0.2346776274006764    0.24589471874275523    
  0.2681148717712731    0.300264314796244    0.3392459993246045    0.37832759090232    0.40606640421107626    
  0.40874146760168906    0.3782385650684638    0.3202277168543439    0.2528952482971217    0.19566965977652517    
  0.1596308703777112    0.14761679723229434    0.2283440436810048    0.23983647419033438    0.272613622761594    
  0.3202277168543439    0.3699604964378615    0.40590391123925135    0.4168549249303369    0.40221197158341937    
  0.37028373698136463    0.33186910277752285    0.29541704968809335    0.26590391474046665    0.2456696735415029    
  0.2354976621766736    0.2354976621766736    0.24566967354150282    0.26590391474046665    0.29541704968809335    
  0.33186910277752285    0.3702837369813646    0.40221197158341937    0.41685492493033693    0.40590391123925135    
  0.3699604964378615    0.3202277168543439    0.272613622761594    0.23983647419033438    0.2283440436810048    
  0.3146457281107311    0.323370277381721    0.3470467681786345    0.3782385650684639    0.4059039112392514    
  0.41943534647104086    0.41365843916336026    0.39073289583747695    0.35758596335755244    0.3217941522420729    
  0.2891043407707578    0.2630115626504491    0.24523000022334324    0.23631732970458405    0.23631732970458408    
  0.2452300002233432    0.2630115626504491    0.2891043407707578    0.3217941522420729    0.35758596335755244    
  0.39073289583747695    0.41365843916336026    0.41943534647104086    0.4059039112392514    0.37823856506846376    
  0.3470467681786345    0.323370277381721    0.3146457281107311    0.3777689259345614    0.3825965138125039    
  0.3948801088124758    0.40874146760168917    0.41685492493033693    0.4136584391633603    0.39775221475929357    
  0.3718690945114753    0.3408522524940628    0.30951765334122455    0.28157777455855343    0.2594471107571721    
  0.2443918195195681    0.23684412721002215    0.23684412721002215    0.24439181951956798    0.2594471107571721    
  0.28157777455855343    0.30951765334122455    0.3408522524940628    0.3718690945114753    0.39775221475929357    
  0.4136584391633603    0.41685492493033693    0.40874146760168906    0.3948801088124758    0.38259651381250387    
  0.3777689259345614    0.3996203442178324    0.4011790099223346    0.4044749152647457    0.4060664042110763    
  0.4022119715834195    0.390732895837477    0.3718690945114754    0.3477948906606114    0.32149065257695936    
  0.2958409596638298    0.27320810699428616    0.2552731228479202    0.24301133005887665    0.23683047353915868    
  0.23683047353915868    0.24301133005887657    0.25527312284792014    0.2732081069942862    0.2958409596638298    
  0.3214906525769593    0.3477948906606114    0.3718690945114754    0.39073289583747706    0.4022119715834195    
  0.4060664042110763    0.40447491526474566    0.40117900992233446    0.3996203442178324    0.38374737720344954    
  0.3835398709277644    0.3822539248400363    0.37832759090232004    0.3702837369813647    0.3575859633575525    
  0.3408522524940628    0.3214906525769593    0.3012081611240464    0.28169476834838436    0.2644504459374291    
  0.25065371273337583    0.24109575701188668    0.2362212723456881    0.2362212723456881    0.2410957570118866    
  0.25065371273337583    0.2644504459374291    0.28169476834838436    0.30120816112404636    0.3214906525769593    
  0.3408522524940628    0.3575859633575525    0.3702837369813647    0.37832759090232    0.3822539248400363    
  0.38353987092776437    0.38374737720344954    0.34703701352566974    0.34632070187664743    0.34391418834554516    
  0.33924599932460453    0.33186910277752285    0.3217941522420729    0.30951765334122455    0.2958409596638297    
  0.28169476834838447    0.26804741267346444    0.25583476994875765    0.24587991368589573    0.23884123154820275    
  0.23519291026861375    0.23519291026861375    0.23884123154820266    0.2458799136858957    0.25583476994875765    
  0.26804741267346444    0.28169476834838436    0.2958409596638297    0.30951765334122455    0.3217941522420729    
  0.3318691027775229    0.33924599932460453    0.34391418834554516    0.34632070187664743    0.34703701352566974    
  0.30603172342690127    0.3054366519350687    0.3035705067654795    0.30026431479624405    0.2954170496880934    
  0.28910434077075786    0.28157777455855354    0.27320810699428616    0.2644504459374292    0.2558347699487576    
  0.24793874624380013    0.24133874698022303    0.23656505298608937    0.23405093466618224    0.23405093466618224    
  0.23656505298608932    0.24133874698022303    0.24793874624380013    0.2558347699487576    0.26445044593742917    
  0.27320810699428616    0.28157777455855354    0.28910434077075786    0.2954170496880934    0.30026431479624405    
  0.3035705067654795    0.3054366519350687    0.30603172342690127    0.2708608746637477    0.27056375557000006    
  0.2696586905571024    0.2681148717712731    0.2659039147404667    0.2630115626504491    0.2594471107571721    
  0.25527312284792014    0.2506537127333759    0.2458799136858957    0.24133874698022298    0.23744642419353265    
  0.23458827102245244    0.23307128022283635    0.23307128022283635    0.23458827102245242    0.23744642419353265    
  0.24133874698022303    0.2458799136858957    0.25065371273337583    0.25527312284792014    0.2594471107571721    
  0.2630115626504491    0.2659039147404667    0.268114871771273    0.2696586905571024    0.27056375557    
  0.2708608746637477    0.24615382597536872    0.24612065819414858    0.2460312940325416    0.2458947187427553    
  0.2456696735415029    0.24523000022334324    0.24439181951956804    0.24301133005887657    0.24109575701188662    
  0.23884123154820272    0.2365650529860893    0.23458827102245236    0.23315263924614946    0.23240260656241993    
  0.23240260656241993    0.23315263924614946    0.23458827102245242    0.2365650529860893    0.23884123154820272    
  0.2410957570118866    0.24301133005887657    0.24439181951956804    0.24523000022334324    0.2456696735415029    
  0.24589471874275529    0.24603129403254162    0.24612065819414858    0.24615382597536872    0.23358132548661867    
  0.23369561802682692    0.23405563968247636    0.23467762740067638    0.23549766217667367    0.2363173297045842    
  0.2368441272100221    0.23683047353915862    0.23622127234568815    0.23519291026861375    0.23405093466618218    
  0.23307128022283638    0.23240260656241987    0.23207565796259874    0.23207565796259874    0.23240260656241984    
  0.23307128022283635    0.23405093466618218    0.23519291026861375    0.2362212723456881    0.23683047353915868    
  0.2368441272100221    0.2363173297045842    0.23549766217667367    0.23467762740067638    0.23405563968247636    
  0.23369561802682692    0.23358132548661867    0.2335813254866187    0.23369561802682687    0.23405563968247636    
  0.23467762740067646    0.23549766217667367    0.2363173297045842    0.2368441272100221    0.23683047353915862    
  0.23622127234568815    0.23519291026861375    0.23405093466618218    0.23307128022283635    0.23240260656241987    
  0.23207565796259877    0.23207565796259877    0.23240260656241987    0.23307128022283635    0.23405093466618218    
  0.23519291026861375    0.2362212723456881    0.23683047353915856    0.23684412721002215    0.2363173297045842    
  0.23549766217667367    0.2346776274006764    0.23405563968247636    0.23369561802682687    0.2335813254866187    
  0.24615382597536872    0.24612065819414858    0.2460312940325416    0.24589471874275529    0.2456696735415029    
  0.2452300002233433    0.24439181951956804    0.24301133005887657    0.24109575701188662    0.23884123154820272    
  0.2365650529860893    0.23458827102245236    0.23315263924614946    0.23240260656241993    0.23240260656241987    
  0.23315263924614946    0.23458827102245236    0.2365650529860893    0.23884123154820272    0.2410957570118866    
  0.24301133005887657    0.2443918195195681    0.2452300002233433    0.24566967354150288    0.24589471874275523    
  0.2460312940325416    0.24612065819414858    0.24615382597536872    0.2708608746637477    0.27056375557    
  0.26965869055710234    0.2681148717712731    0.2659039147404667    0.2630115626504491    0.2594471107571721    
  0.2552731228479202    0.2506537127333759    0.24587991368589565    0.24133874698022298    0.23744642419353265    
  0.23458827102245244    0.23307128022283635    0.23307128022283635    0.23458827102245242    0.23744642419353265    
  0.24133874698022303    0.24587991368589565    0.25065371273337583    0.2552731228479202    0.2594471107571721    
  0.2630115626504491    0.2659039147404667    0.268114871771273    0.26965869055710234    0.27056375557    
  0.2708608746637477    0.30603172342690127    0.30543665193506875    0.3035705067654794    0.30026431479624405    
  0.2954170496880934    0.28910434077075786    0.2815777745585535    0.27320810699428616    0.26445044593742917    
  0.2558347699487576    0.24793874624380013    0.24133874698022306    0.23656505298608937    0.23405093466618224    
  0.23405093466618218    0.23656505298608932    0.24133874698022306    0.24793874624380013    0.2558347699487576    
  0.2644504459374291    0.27320810699428616    0.28157777455855354    0.28910434077075786    0.2954170496880934    
  0.300264314796244    0.3035705067654794    0.30543665193506875    0.30603172342690127    0.34703701352566974    
  0.34632070187664743    0.34391418834554516    0.33924599932460453    0.33186910277752285    0.3217941522420729    
  0.30951765334122455    0.2958409596638297    0.28169476834838447    0.26804741267346444    0.25583476994875765    
  0.24587991368589573    0.23884123154820275    0.23519291026861375    0.23519291026861375    0.23884123154820266    
  0.2458799136858957    0.25583476994875765    0.26804741267346444    0.28169476834838436    0.2958409596638297    
  0.30951765334122455    0.3217941522420729    0.3318691027775229    0.33924599932460453    0.34391418834554516    
  0.34632070187664743    0.34703701352566974    0.3837473772034494    0.3835398709277644    0.3822539248400363    
  0.37832759090232004    0.3702837369813647    0.3575859633575525    0.3408522524940628    0.32149065257695925    
  0.3012081611240464    0.28169476834838436    0.2644504459374291    0.25065371273337583    0.24109575701188662    
  0.23622127234568815    0.2362212723456881    0.24109575701188654    0.25065371273337583    0.2644504459374291    
  0.28169476834838436    0.3012081611240464    0.32149065257695925    0.3408522524940628    0.35758596335755255    
  0.3702837369813647    0.37832759090232    0.3822539248400363    0.3835398709277644    0.3837473772034494    
  0.3996203442178324    0.4011790099223346    0.40447491526474566    0.4060664042110763    0.40221197158341954    
  0.390732895837477    0.3718690945114754    0.3477948906606114    0.32149065257695936    0.2958409596638298    
  0.27320810699428616    0.2552731228479202    0.24301133005887665    0.23683047353915868    0.23683047353915868    
  0.24301133005887657    0.2552731228479202    0.2732081069942862    0.2958409596638298    0.3214906525769593    
  0.3477948906606114    0.3718690945114754    0.39073289583747706    0.40221197158341954    0.40606640421107626    
  0.40447491526474566    0.4011790099223345    0.3996203442178324    0.3777689259345614    0.38259651381250387    
  0.3948801088124758    0.4087414676016891    0.4168549249303369    0.41365843916336026    0.39775221475929357    
  0.3718690945114753    0.3408522524940628    0.30951765334122455    0.28157777455855343    0.2594471107571721    
  0.2443918195195681    0.23684412721002215    0.23684412721002215    0.24439181951956804    0.2594471107571721    
  0.28157777455855343    0.30951765334122455    0.3408522524940628    0.3718690945114753    0.39775221475929357    
  0.41365843916336026    0.4168549249303369    0.40874146760168906    0.3948801088124758    0.38259651381250387    
  0.3777689259345614    0.3146457281107311    0.323370277381721    0.34704676817863445    0.3782385650684639    
  0.4059039112392514    0.41943534647104086    0.41365843916336026    0.39073289583747695    0.35758596335755244    
  0.3217941522420729    0.2891043407707578    0.2630115626504491    0.24523000022334324    0.23631732970458405    
  0.23631732970458408    0.2452300002233432    0.2630115626504491    0.2891043407707578    0.3217941522420729    
  0.35758596335755244    0.39073289583747695    0.41365843916336026    0.41943534647104086    0.4059039112392514    
  0.37823856506846376    0.34704676817863445    0.323370277381721    0.3146457281107311    0.22834404368100475    
  0.23983647419033438    0.27261362276159395    0.3202277168543439    0.3699604964378615    0.40590391123925135    
  0.4168549249303369    0.40221197158341937    0.3702837369813646    0.33186910277752285    0.29541704968809335    
  0.26590391474046665    0.2456696735415029    0.2354976621766736    0.2354976621766736    0.24566967354150282    
  0.26590391474046665    0.29541704968809335    0.33186910277752285    0.3702837369813646    0.40221197158341937    
  0.4168549249303369    0.40590391123925135    0.3699604964378615    0.3202277168543439    0.272613622761594    
  0.23983647419033438    0.22834404368100475    0.14761679723229434    0.1596308703777112    0.1956696597765251    
  0.25289524829712173    0.3202277168543439    0.3782385650684638    0.40874146760168906    0.4060664042110763    
  0.3783275909023201    0.3392459993246045    0.300264314796244    0.2681148717712731    0.24589471874275529    
  0.23467762740067638    0.2346776274006764    0.24589471874275523    0.2681148717712731    0.300264314796244    
  0.3392459993246045    0.37832759090232004    0.4060664042110763    0.40874146760168906    0.3782385650684638    
  0.3202277168543439    0.2528952482971216    0.1956696597765251    0.1596308703777112    0.14761679723229434    
  0.09140854347995092    0.10224706203835773    0.13648647162419886    0.19566965977652523    0.2726136227615941    
  0.34704676817863456    0.39488010881247587    0.40447491526474566    0.38225392484003634    0.3439141883455452    
  0.3035705067654795    0.26965869055710234    0.24603129403254168    0.23405563968247636    0.23405563968247636    
  0.24603129403254162    0.2696586905571024    0.3035705067654795    0.3439141883455452    0.3822539248400363    
  0.40447491526474566    0.39488010881247587    0.34704676817863456    0.2726136227615941    0.19566965977652515    
  0.13648647162419886    0.10224706203835776    0.09140854347995092    0.06177939111722619    0.07119479713957837    
  0.10224706203835773    0.15963087037771118    0.23983647419033444    0.32337027738172114    0.382596513812504    
  0.4011790099223345    0.3835398709277644    0.3463207018766474    0.3054366519350687    0.27056375557    
  0.24612065819414858    0.2336956180268268    0.23369561802682687    0.24612065819414858    0.27056375557    
  0.3054366519350687    0.3463207018766474    0.38353987092776437    0.4011790099223345    0.382596513812504    
  0.3233702773817211    0.23983647419033444    0.1596308703777111    0.1022470620383577    0.07119479713957837    
  0.06177939111722619    0.0529508390953827    0.06177939111722624    0.09140854347995092    0.14761679723229434    
  0.2283440436810048    0.31464572811073116    0.37776892593456135    0.3996203442178323    0.3837473772034495    
  0.34703701352566974    0.3060317234269012    0.27086087466374764    0.24615382597536872    0.2335813254866186    
  0.23358132548661867    0.24615382597536878    0.2708608746637477    0.3060317234269012    0.34703701352566974    
  0.3837473772034494    0.3996203442178323    0.37776892593456135    0.31464572811073116    0.22834404368100483    
  0.14761679723229426    0.0914085434799509    0.06177939111722628    0.0529508390953827    0.06177939111722621    
  0.07119479713957831    0.10224706203835773    0.1596308703777113    0.23983647419033438    0.3233702773817211    
  0.38259651381250387    0.4011790099223344    0.3835398709277645    0.34632070187664743    0.3054366519350687    
  0.27056375556999995    0.24612065819414852    0.2336956180268268    0.2336956180268268    0.24612065819414852    
  0.27056375556999995    0.3054366519350687    0.34632070187664743    0.3835398709277644    0.4011790099223344    
  0.38259651381250387    0.3233702773817211    0.23983647419033444    0.15963087037771118    0.10224706203835773    
  0.07119479713957837    0.06177939111722621    0.07119479713957834    0.0811449999362701    0.11344833214030325    
  0.17172419592884508    0.25112427885156885    0.33175866426421946    0.3871475884772677    0.40261268580909165    
  0.38333877723645154    0.3456832719410121    0.3049486496089459    0.270380620657485    0.24620093817851818    
  0.23392175859650127    0.23392175859650133    0.24620093817851818    0.27038062065748514    0.3049486496089459    
  0.34568327194101217    0.38333877723645143    0.40261268580909165    0.3871475884772677    0.33175866426421946    
  0.2511242788515688    0.17172419592884502    0.11344833214030324    0.0811449999362701    0.07119479713957834    
  0.10224706203835773    0.11344833214030328    0.1484116382207446    0.20769862127559446    0.28312944584479893    
  0.354414675238082    0.3986599607433141    0.4055871190811874    0.38209331704959554    0.34350882585727316    
  0.3033863116961244    0.2697954776186136    0.24642874194208836    0.23459405674671874    0.23459405674671874    
  0.2464287419420883    0.26979547761861367    0.3033863116961244    0.3435088258572732    0.3820933170495955    
  0.4055871190811874    0.3986599607433141    0.354414675238082    0.28312944584479893    0.20769862127559438    
  0.1484116382207446    0.11344833214030328    0.10224706203835773    0.1596308703777113    0.17172419592884508    
  0.20769862127559446    0.2640169204360996    0.3291223931343908    0.3839636238874215    0.4114429582164698    
  0.4068018930350794    0.37829072010391085    0.3392104751807598    0.3005356090970183    0.268722766942636    
  0.2467565164446307    0.23567246303245667    0.23567246303245667    0.24675651644463065    0.2687227669426361    
  0.3005356090970183    0.33921047518075986    0.3782907201039108    0.4068018930350794    0.4114429582164698    
  0.3839636238874215    0.3291223931343908    0.26401692043609953    0.2076986212755944    0.17172419592884508    
  0.1596308703777113    0.23983647419033433    0.2511242788515688    0.2831294458447988    0.3291223931343908    
  0.37641232968987975    0.40966451979928037    0.41847505227495585    0.4026874195467814    0.3704986404906657    
  0.33231458706531986    0.2962413202743688    0.26707321328325506    0.2470824978564564    0.23703393284569294    
  0.23703393284569294    0.24708249785645636    0.26707321328325506    0.2962413202743688    0.33231458706531986    
  0.3704986404906656    0.40268741954678133    0.41847505227495585    0.40966451979928037    0.37641232968987975    
  0.3291223931343908    0.2831294458447989    0.2511242788515688    0.23983647419033433    0.323370277381721    
  0.33175866426421946    0.35441467523808196    0.3839636238874215    0.40966451979928037    0.42142291494955175    
  0.4145080598142874    0.39119064424834943    0.3581950524553443    0.3228006745537062    0.2905362002784207    
  0.26479009098572204    0.24724125720747855    0.23844315509230857    0.23844315509230862    0.24724125720747844    
  0.26479009098572204    0.2905362002784207    0.3228006745537062    0.3581950524553442    0.39119064424834943    
  0.41450805981428746    0.42142291494955175    0.4096645197992804    0.3839636238874215    0.35441467523808196    
  0.3317586642642194    0.323370277381721    0.3825965138125039    0.3871475884772677    0.39865996074331406    
  0.41144295821646987    0.41847505227495585    0.41450805981428746    0.3983116843806755    0.3725786283517657    
  0.34197719263671056    0.3111381188121768    0.2836493177214949    0.2618655565006332    0.24703597448306372    
  0.23959708986754175    0.23959708986754175    0.24703597448306364    0.2618655565006332    0.2836493177214949    
  0.3111381188121768    0.34197719263671056    0.3725786283517657    0.3983116843806755    0.4145080598142875    
  0.41847505227495585    0.4114429582164698    0.39865996074331406    0.3871475884772677    0.3825965138125039    
  0.40117900992233446    0.40261268580909176    0.4055871190811874    0.4068018930350794    0.40268741954678144    
  0.3911906442483495    0.37257862835176575    0.34896046043588497    0.32320831690962115    0.2981046658715498    
  0.27593972479748824    0.25835627509916154    0.2463200813785203    0.24024694868796687    0.24024694868796687    
  0.24632008137852027    0.25835627509916154    0.27593972479748824    0.2981046658715498    0.3232083169096211    
  0.34896046043588497    0.37257862835176575    0.3911906442483495    0.40268741954678144    0.40680189303507946    
  0.4055871190811874    0.40261268580909165    0.40117900992233446    0.3835398709277645    0.38333877723645154    
  0.3820933170495955    0.37829072010391085    0.3704986404906658    0.3581950524553443    0.34197719263671056    
  0.3232083169096211    0.3035391255012493    0.28460082608938436    0.2678421088779509    0.25440912920446745    
  0.24508468840869366    0.24032189111459917    0.24032189111459917    0.24508468840869357    0.25440912920446745    
  0.2678421088779509    0.28460082608938436    0.3035391255012492    0.3232083169096211    0.34197719263671056    
  0.3581950524553443    0.3704986404906658    0.3782907201039108    0.3820933170495955    0.3833387772364515    
  0.3835398709277645    0.3463207018766475    0.3456832719410121    0.3435088258572732    0.3392104751807599    
  0.33231458706531986    0.3228006745537062    0.3111381188121768    0.29810466587154977    0.2846008260893844    
  0.2715519795812363    0.2598470425359779    0.2502755204611148    0.24348522439628353    0.2399567347479762    
  0.2399567347479762    0.2434852243962835    0.2502755204611148    0.2598470425359779    0.2715519795812363    
  0.28460082608938436    0.29810466587154977    0.3111381188121768    0.3228006745537062    0.3323145870653199    
  0.3392104751807599    0.3435088258572732    0.3456832719410121    0.3463207018766475    0.3054366519350687    
  0.30494864960894597    0.3033863116961244    0.3005356090970184    0.2962413202743688    0.29053620027842075    
  0.283649317721495    0.2759397247974882    0.267842108877951    0.2598470425359779    0.2524836266773482    
  0.24629080345581286    0.2417842385787895    0.23940029361646148    0.23940029361646148    0.24178423857878942    
  0.2462908034558128    0.2524836266773482    0.2598470425359779    0.26784210887795096    0.2759397247974882    
  0.283649317721495    0.29053620027842075    0.29624132027436884    0.3005356090970183    0.3033863116961244    
  0.30494864960894597    0.3054366519350687    0.27056375557    0.27038062065748514    0.26979547761861367    
  0.2687227669426361    0.2670732132832551    0.2647900909857221    0.2618655565006332    0.25835627509916154    
  0.25440912920446757    0.2502755204611148    0.24629080345581278    0.2428290739238801    0.2402564102157142    
  0.2388795761687967    0.2388795761687967    0.24025641021571414    0.2428290739238801    0.2462908034558128    
  0.2502755204611148    0.25440912920446745    0.25835627509916154    0.2618655565006332    0.26479009098572204    
  0.2670732132832551    0.268722766942636    0.26979547761861367    0.27038062065748514    0.27056375557    
  0.24612065819414847    0.24620093817851818    0.24642874194208825    0.24675651644463076    0.2470824978564564    
  0.2472412572074785    0.24703597448306372    0.24632008137852027    0.2450846884086936    0.2434852243962835    
  0.24178423857878942    0.24025641021571414    0.2391203502285589    0.23851793466236854    0.23851793466236854    
  0.2391203502285589    0.24025641021571414    0.24178423857878942    0.2434852243962835    0.24508468840869357    
  0.2463200813785202    0.24703597448306372    0.24724125720747855    0.2470824978564564    0.2467565164446307    
  0.24642874194208825    0.24620093817851813    0.24612065819414847    0.2336956180268268    0.2339217585965014    
  0.2345940567467188    0.23567246303245667    0.23703393284569302    0.23844315509230868    0.2395970898675417    
  0.24024694868796687    0.24032189111459923    0.23995673474797616    0.2394002936164614    0.2388795761687967    
  0.23851793466236848    0.23834245005912302    0.23834245005912302    0.23851793466236845    0.2388795761687967    
  0.23940029361646142    0.2399567347479762    0.24032189111459923    0.24024694868796687    0.2395970898675417    
  0.23844315509230868    0.23703393284569302    0.23567246303245662    0.2345940567467188    0.2339217585965014    
  0.2336956180268268    0.23369561802682687    0.23392175859650136    0.2345940567467188    0.23567246303245673    
  0.23703393284569302    0.23844315509230873    0.2395970898675417    0.2402469486879668    0.24032189111459923    
  0.2399567347479762    0.23940029361646142    0.23887957616879665    0.23851793466236848    0.23834245005912305    
  0.23834245005912305    0.23851793466236848    0.2388795761687966    0.23940029361646142    0.2399567347479762    
  0.24032189111459917    0.24024694868796678    0.23959708986754175    0.23844315509230868    0.23703393284569302    
  0.23567246303245667    0.2345940567467188    0.23392175859650136    0.23369561802682687    0.24612065819414847    
  0.24620093817851818    0.24642874194208825    0.2467565164446307    0.2470824978564564    0.24724125720747855    
  0.24703597448306372    0.24632008137852027    0.2450846884086936    0.2434852243962835    0.24178423857878942    
  0.24025641021571412    0.2391203502285589    0.23851793466236854    0.23851793466236848    0.23912035022855882    
  0.24025641021571412    0.24178423857878942    0.2434852243962835    0.24508468840869357    0.24632008137852027    
  0.24703597448306372    0.24724125720747855    0.2470824978564564    0.24675651644463065    0.24642874194208825    
  0.24620093817851818    0.24612065819414847    0.27056375557    0.27038062065748514    0.2697954776186136    
  0.2687227669426361    0.2670732132832551    0.2647900909857221    0.2618655565006332    0.25835627509916154    
  0.25440912920446745    0.2502755204611148    0.2462908034558128    0.24282907392387998    0.2402564102157142    
  0.2388795761687967    0.2388795761687967    0.24025641021571414    0.24282907392388003    0.2462908034558128    
  0.2502755204611148    0.25440912920446745    0.25835627509916154    0.2618655565006332    0.2647900909857221    
  0.2670732132832551    0.268722766942636    0.26979547761861356    0.27038062065748514    0.27056375557    
  0.3054366519350687    0.304948649608946    0.30338631169612434    0.3005356090970184    0.2962413202743688    
  0.29053620027842075    0.283649317721495    0.2759397247974882    0.26784210887795096    0.2598470425359779    
  0.2524836266773482    0.24629080345581292    0.2417842385787895    0.23940029361646148    0.2394002936164614    