#     DFTpy    
  CRYSTAL 
    
  PRIMVEC    
  3.5588275862069003    0.0    0.0    
  0.0    3.5588275862069003    0.0    
  0.0    0.0    3.5588275862069003    
  PRIMCOORD    
  2    1    
  Si    0.0    0.0    0.0    
  Si    1.7794137931034502    1.7794137931034502    1.7794137931034502    
  BEGIN_BLOCK_DATAGRID_3D    
  3d_datagrid_density    
  BEGIN_DATAGRID_3D#0    
  37    37    37    
  0.0    0.0    0.0    
  3.558827599481395    0.0    0.0    
  0.0    3.558827599481395    0.0    
  0.0    0.0    3.558827599481395    
  0.05891403765750977    0.06641671840632339    0.0909207065824887    0.1362111206839835    0.20149086059952917    
  0.2748556944704902    0.33512602421666693    0.3639859480444513    0.35721228325083226    0.3242300364797826    
  0.2791103681086215    0.23293836266165346    0.19176682446102425    0.15792285598727662    0.13171509221761654    
  0.11254402390282535    0.09955950632062356    0.09204834681029558    0.08958884572184857    0.09204834681029557    
  0.09955950632062356    0.11254402390282535    0.13171509221761654    0.15792285598727668    0.19176682446102425    
  0.23293836266165346    0.2791103681086215    0.32423003647978266    0.35721228325083226    0.3639859480444513    
  0.33512602421666693    0.27485569447049013    0.20149086059952917    0.13621112068398364    0.0909207065824887    
  0.06641671840632334    0.05891403765750977    0.06641671840632335    0.0742813561453538    0.09965884739155316    
  0.145669540779945    0.21058573355478732    0.2819750297698704    0.3391330614198689    0.36492749085788    
  0.3560871971538125    0.3222213268139974    0.27704255926808746    0.23119699254340523    0.19045139609586995    
  0.1569992715289213    0.13110126384471782    0.112150114431142    0.09930620090140037    0.09187169672021671    
  0.0894364015149457    0.09187169672021672    0.09930620090140037    0.11215011443114203    0.1311012638447178    
  0.15699927152892132    0.19045139609586995    0.23119699254340523    0.27704255926808746    0.32222132681399746    
  0.35608719715381243    0.36492749085788    0.3391330614198689    0.2819750297698703    0.21058573355478732    
  0.14566954077994504    0.09965884739155316    0.0742813561453538    0.06641671840632335    0.09092070658248866    
  0.09965884739155317    0.12699274279255035    0.17410346873238644    0.23681309575270398    0.301615203674626    
  0.34948127075201335    0.36661123396590617    0.35217160731829494    0.3160629882852481    0.2708963675725441    
  0.2260824358840062    0.18660683947758136    0.15430457632784902    0.1293104821314518    0.11100058230931124    
  0.09856767100138447    0.09135816153867936    0.08899413603959433    0.09135816153867934    0.09856767100138447    
  0.1110005823093113    0.1293104821314518    0.15430457632784905    0.18660683947758136    0.22608243588400626    
  0.2708963675725441    0.31606298828524815    0.35217160731829494    0.3666112339659062    0.34948127075201335    
  0.3016152036746261    0.23681309575270398    0.1741034687323865    0.12699274279255035    0.09965884739155316    
  0.09092070658248866    0.13621112068398358    0.14566954077994504    0.17410346873238647    0.21990286786807484    
  0.2759890834016877    0.3284525977644812    0.36150234969625583    0.3660620103313765    0.34414855563836333    
  0.3054921729074134    0.2608729626652891    0.21791123222987388    0.18051828133445333    0.15005152287910806    
  0.12648660786240834    0.10918961772347913    0.09740923113527886    0.09055977096245443    0.0883104652761836    
  0.09055977096245436    0.09740923113527886    0.10918961772347913    0.1264866078624083    0.15005152287910806    
  0.18051828133445336    0.21791123222987394    0.2608729626652891    0.3054921729074134    0.34414855563836333    
  0.3660620103313765    0.36150234969625583    0.3284525977644812    0.2759890834016877    0.21990286786807495    
  0.17410346873238647    0.145669540779945    0.13621112068398358    0.20149086059952925    0.21058573355478738    
  0.23681309575270404    0.2759890834016877    0.31921599111805454    0.35391211270955314    0.3688279429828655    
  0.35972303751479456    0.33069251619134216    0.29043420672839865    0.24738344604000265    0.20717614015734054    
  0.17260499850762176    0.1445503898982972    0.12284360865973314    0.1068637837998843    0.09593881555700756    
  0.08956673757830427    0.08747076046790407    0.08956673757830427    0.09593881555700756    0.1068637837998843    
  0.12284360865973316    0.14455038989829724    0.17260499850762176    0.20717614015734057    0.24738344604000265    
  0.29043420672839865    0.33069251619134216    0.35972303751479456    0.3688279429828655    0.35391211270955314    
  0.31921599111805454    0.2759890834016877    0.23681309575270404    0.21058573355478735    0.20149086059952925    
  0.27485569447049024    0.28197502976987043    0.30161520367462613    0.3284525977644812    0.3539121127095532    
  0.3684950752053334    0.3657399769674111    0.3450848273854068    0.31130106621820397    0.2713035151813664    
  0.23109660016396325    0.19450636809921526    0.16336512801485553    0.1381628097439331    0.11863388892759559    
  0.10420255680150585    0.09429500181209167    0.08849884272879309    0.08658959391272039    0.08849884272879308    
  0.09429500181209167    0.10420255680150589    0.11863388892759559    0.1381628097439331    0.16336512801485553    
  0.1945063680992153    0.23109660016396325    0.2713035151813664    0.31130106621820397    0.3450848273854068    
  0.3657399769674111    0.3684950752053334    0.3539121127095532    0.3284525977644812    0.30161520367462613    
  0.28197502976987043    0.27485569447049024    0.33512602421666693    0.3391330614198689    0.34948127075201346    
  0.3615023496962557    0.36882794298286553    0.3657399769674111    0.3496160405473693    0.32185900211764756    
  0.2867151815177499    0.24909100428427275    0.21291637281987277    0.18062089666481257    0.15333017763662382    
  0.1312637206420656    0.11411796138674407    0.10139318141279242    0.09262385367460173    0.08748230457296717    
  0.08578736870383966    0.08748230457296712    0.09262385367460173    0.10139318141279245    0.11411796138674407    
  0.1312637206420656    0.1533301776366238    0.18062089666481257    0.21291637281987277    0.2490910042842728    
  0.2867151815177499    0.32185900211764756    0.34961604054736933    0.36573997696741106    0.36882794298286553    
  0.36150234969625583    0.34948127075201346    0.3391330614198688    0.33512602421666693    0.3639859480444512    
  0.3649274908578799    0.36661123396590617    0.3660620103313764    0.3597230375147945    0.3450848273854068    
  0.32185900211764756    0.29200316791458125    0.25871327025823393    0.22519062811872778    0.19387840669577006    
  0.1662693314562784    0.1430278993989826    0.12421529917076551    0.10954322057593784    0.09860947022866146    
  0.09105480941898939    0.086622467233134    0.0851616774566483    0.08662246723313397    0.09105480941898939    
  0.09860947022866143    0.10954322057593784    0.12421529917076551    0.1430278993989826    0.16626933145627842    
  0.19387840669577006    0.22519062811872778    0.25871327025823393    0.29200316791458125    0.32185900211764756    
  0.3450848273854068    0.3597230375147945    0.3660620103313765    0.36661123396590617    0.3649274908578799    
  0.3639859480444512    0.35721228325083226    0.35608719715381243    0.35217160731829494    0.3441485556383633    
  0.33069251619134205    0.31130106621820397    0.28671518151774983    0.2587132702582339    0.2294968287242474    
  0.20108946728068305    0.17500352905204414    0.15215929222622665    0.13294419370929655    0.11734685836056834    
  0.10513195893714179    0.096001072742547    0.08968779309840401    0.08598844558096362    0.0847709505713309    
  0.08598844558096361    0.08968779309840401    0.09600107274254698    0.10513195893714179    0.11734685836056834    
  0.13294419370929655    0.15215929222622665    0.17500352905204414    0.20108946728068305    0.2294968287242474    
  0.2587132702582339    0.28671518151774983    0.31130106621820397    0.33069251619134205    0.3441485556383633    
  0.35217160731829494    0.35608719715381243    0.35721228325083226    0.3242300364797826    0.32222132681399746    
  0.3160629882852481    0.3054921729074134    0.29043420672839865    0.2713035151813664    0.2490910042842728    
  0.22519062811872778    0.20108946728068303    0.17809190724346208    0.15716314666784353    0.1388837265048529    
  0.123483756313279    0.11093556818333451    0.10107313485760937    0.09369092918151442    0.08859421754356452    
  0.0856166543509555    0.08463897656966823    0.08561665435095547    0.08859421754356452    0.09369092918151439    
  0.10107313485760937    0.11093556818333451    0.123483756313279    0.1388837265048529    0.15716314666784353    
  0.17809190724346208    0.20108946728068303    0.22519062811872778    0.2490910042842728    0.27130351518136636    
  0.29043420672839865    0.3054921729074134    0.3160629882852481    0.3222213268139974    0.3242300364797826    
  0.2791103681086215    0.27704255926808746    0.2708963675725441    0.26087296266528914    0.24738344604000265    
  0.23109660016396325    0.21291637281987277    0.19387840669577003    0.17500352905204417    0.15716314666784353    
  0.1409936066664305    0.12687106979105187    0.1149419056628218    0.10519037352211373    0.09751322011448381    
  0.09177279442768893    0.08782263103466172    0.08552377659151142    0.08477085355229441    0.0855237765915114    
  0.08782263103466172    0.09177279442768893    0.09751322011448381    0.10519037352211373    0.1149419056628218    
  0.1268710697910519    0.1409936066664305    0.15716314666784356    0.17500352905204417    0.19387840669577006    
  0.21291637281987277    0.23109660016396325    0.24738344604000265    0.26087296266528914    0.2708963675725441    
  0.27704255926808746    0.2791103681086215    0.23293836266165346    0.23119699254340523    0.22608243588400626    
  0.21791123222987394    0.2071761401573406    0.19450636809921526    0.1806208966648126    0.1662693314562784    
  0.15215929222622665    0.1388837265048529    0.1268710697910519    0.11637468166558375    0.10749910967645586    
  0.10024418986783096    0.09454572376018602    0.09030291824163073    0.0873971172783918    0.08571226900614114    
  0.08516148569102831    0.08571226900614111    0.0873971172783918    0.09030291824163073    0.09454572376018602    
  0.10024418986783096    0.10749910967645586    0.11637468166558375    0.1268710697910519    0.1388837265048529    
  0.15215929222622665    0.16626933145627842    0.1806208966648126    0.1945063680992153    0.2071761401573406    
  0.21791123222987394    0.22608243588400626    0.23119699254340523    0.23293836266165346    0.19176682446102428    
  0.19045139609586995    0.1866068394775814    0.18051828133445336    0.17260499850762176    0.16336512801485553    
  0.15333017763662385    0.1430278993989826    0.13294419370929658    0.12348375631327899    0.11494190566282182    
  0.10749910967645582    0.10123581962381288    0.09615491898411027    0.09220258742377548    0.08928807500753043    
  0.08730612045056409    0.08616103328259941    0.08578708677105351    0.08616103328259941    0.08730612045056409    
  0.08928807500753037    0.09220258742377548    0.09615491898411027    0.10123581962381288    0.10749910967645585    
  0.11494190566282182    0.123483756313279    0.13294419370929658    0.1430278993989826    0.15333017763662385    
  0.16336512801485556    0.17260499850762176    0.18051828133445336    0.1866068394775814    0.19045139609586997    
  0.19176682446102428    0.15792285598727668    0.15699927152892135    0.1543045763278491    0.15005152287910808    
  0.14455038989829727    0.13816280974393308    0.13126372064206565    0.12421529917076553    0.11734685836056834    
  0.1109355681833345    0.10519037352211377    0.100244189867831    0.09615491898411031    0.09291261392850947    
  0.09045296461342488    0.0886795355546647    0.08749211774585101    0.08681115163439301    0.08658922880708468    
  0.08681115163439308    0.08749211774585101    0.0886795355546647    0.09045296461342488    0.09291261392850947    
  0.09615491898411031    0.10024418986783103    0.10519037352211377    0.11093556818333451    0.11734685836056834    
  0.12421529917076556    0.13126372064206565    0.13816280974393308    0.14455038989829727    0.15005152287910806    
  0.1543045763278491    0.15699927152892135    0.15792285598727668    0.13171509221761651    0.1311012638447178    
  0.12931048213145174    0.12648660786240837    0.12284360865973314    0.11863388892759552    0.11411796138674402    
  0.10954322057593774    0.10513195893714179    0.10107313485760931    0.09751322011448374    0.09454572376018598    
  0.09220258742377548    0.09045296461342478    0.08921516918456213    0.08838272203610036    0.08785588506506006    
  0.08756405342154217    0.08747032177552377    0.0875640534215422    0.08785588506506006    0.08838272203610036    
  0.08921516918456213    0.09045296461342474    0.09220258742377548    0.09454572376018591    0.09751322011448374    
  0.10107313485760933    0.10513195893714179    0.10954322057593777    0.114117961386744    0.11863388892759552    
  0.12284360865973314    0.1264866078624083    0.12931048213145174    0.1311012638447178    0.13171509221761651    
  0.1125440239028254    0.11215011443114206    0.11100058230931131    0.10918961772347913    0.1068637837998843    
  0.10420255680150582    0.10139318141279245    0.09860947022866141    0.09600107274254703    0.09369092918151439    
  0.09177279442768901    0.09030291824163068    0.08928807500753043    0.08867953555466473    0.08838272203610034    
  0.08828338957796068    0.08827907387563097    0.0882997484835739    0.08830996532246904    0.08829974848357393    
  0.08827907387563097    0.08828338957796066    0.08838272203610036    0.08867953555466473    0.08928807500753044    
  0.09030291824163073    0.09177279442768901    0.09369092918151442    0.09600107274254703    0.09860947022866143    
  0.10139318141279245    0.10420255680150585    0.1068637837998843    0.10918961772347913    0.11100058230931131    
  0.11215011443114206    0.1125440239028254    0.09955950632062362    0.09930620090140038    0.09856767100138451    
  0.09740923113527888    0.09593881555700758    0.09429500181209163    0.09262385367460171    0.09105480941898939    
  0.08968779309840406    0.08859421754356447    0.08782263103466176    0.0873971172783918    0.08730612045056411    
  0.08749211774585101    0.0878558850650601    0.08827907387563096    0.0886542472382151    0.08890579549732042    
  0.08899358985661694    0.0889057954973204    0.0886542472382151    0.08827907387563097    0.0878558850650601    
  0.08749211774585101    0.08730612045056411    0.0873971172783918    0.08782263103466176    0.08859421754356445    
  0.08968779309840406    0.09105480941898934    0.09262385367460171    0.09429500181209167    0.09593881555700758    
  0.09740923113527888    0.09856767100138451    0.09930620090140038    0.09955950632062362    0.09204834681029556    
  0.09187169672021674    0.09135816153867928    0.09055977096245438    0.08956673757830423    0.08849884272879306    
  0.08748230457296712    0.08662246723313399    0.08598844558096362    0.08561665435095546    0.08552377659151142    
  0.08571226900614116    0.08616103328259944    0.086811151634393    0.08756405342154222    0.08829974848357391    
  0.08890579549732036    0.0892997935969341    0.08943582649512083    0.08929979359693409    0.08890579549732036    
  0.08829974848357394    0.08756405342154218    0.08681115163439296    0.08616103328259944    0.08571226900614114    
  0.08552377659151142    0.08561665435095547    0.08598844558096362    0.08662246723313397    0.08748230457296712    
  0.08849884272879306    0.08956673757830425    0.09055977096245436    0.09135816153867928    0.09187169672021672    
  0.09204834681029556    0.08958884572184862    0.0894364015149457    0.08899413603959433    0.08831046527618358    
  0.08747076046790407    0.08658959391272034    0.08578736870383964    0.08516167745664818    0.08477095057133097    
  0.08463897656966819    0.08477085355229445    0.08516148569102824    0.08578708677105351    0.08658922880708465    
  0.08747032177552377    0.08830996532246901    0.08899358985661691    0.08943582649512084    0.08958826089357413    
  0.08943582649512084    0.08899358985661691    0.08830996532246899    0.08747032177552377    0.08658922880708463    
  0.08578708677105351    0.08516148569102827    0.08477085355229445    0.08463897656966822    0.08477095057133097    
  0.0851616774566482    0.08578736870383961    0.08658959391272034    0.08747076046790407    0.08831046527618357    
  0.08899413603959433    0.0894364015149457    0.08958884572184862    0.09204834681029556    0.09187169672021668    
  0.09135816153867929    0.09055977096245435    0.08956673757830423    0.08849884272879305    0.08748230457296712    
  0.08662246723313399    0.08598844558096361    0.08561665435095543    0.0855237765915114    0.08571226900614111    
  0.08616103328259941    0.08681115163439301    0.08756405342154218    0.08829974848357391    0.08890579549732044    
  0.0892997935969341    0.08943582649512087    0.08929979359693413    0.08890579549732044    0.08829974848357391    
  0.08756405342154222    0.086811151634393    0.08616103328259941    0.08571226900614114    0.0855237765915114    
  0.08561665435095543    0.08598844558096361    0.08662246723313399    0.08748230457296712    0.08849884272879305    
  0.08956673757830423    0.09055977096245434    0.09135816153867929    0.0918716967202167    0.09204834681029556    
  0.09955950632062362    0.09930620090140038    0.09856767100138451    0.09740923113527887    0.09593881555700758    
  0.09429500181209167    0.09262385367460171    0.09105480941898939    0.08968779309840406    0.08859421754356449    
  0.08782263103466176    0.0873971172783918    0.08730612045056411    0.08749211774585101    0.0878558850650601    
  0.08827907387563096    0.0886542472382151    0.08890579549732042    0.08899358985661694    0.0889057954973204    
  0.0886542472382151    0.08827907387563097    0.0878558850650601    0.08749211774585097    0.08730612045056411    
  0.0873971172783918    0.08782263103466176    0.08859421754356447    0.08968779309840406    0.09105480941898934    
  0.09262385367460171    0.09429500181209167    0.09593881555700758    0.09740923113527888    0.09856767100138451    
  0.09930620090140038    0.09955950632062362    0.11254402390282538    0.11215011443114203    0.11100058230931131    
  0.10918961772347913    0.1068637837998843    0.10420255680150584    0.10139318141279248    0.09860947022866143    
  0.096001072742547    0.09369092918151437    0.09177279442768897    0.09030291824163073    0.08928807500753044    
  0.08867953555466467    0.08838272203610043    0.08828338957796066    0.08827907387563097    0.08829974848357396    
  0.08830996532246906    0.08829974848357396    0.08827907387563097    0.08828338957796068    0.08838272203610043    
  0.08867953555466464    0.08928807500753044    0.09030291824163073    0.09177279442768897    0.09369092918151442    
  0.096001072742547    0.09860947022866141    0.10139318141279248    0.10420255680150589    0.10686378379988427    
  0.10918961772347913    0.11100058230931131    0.11215011443114203    0.11254402390282538    0.13171509221761651    
  0.1311012638447178    0.12931048213145174    0.12648660786240837    0.12284360865973314    0.11863388892759552    
  0.11411796138674402    0.1095432205759378    0.10513195893714179    0.10107313485760931    0.09751322011448374    
  0.09454572376018598    0.09220258742377548    0.09045296461342478    0.08921516918456213    0.08838272203610036    
  0.08785588506506006    0.08756405342154219    0.08747032177552377    0.0875640534215422    0.08785588506506006    
  0.08838272203610036    0.08921516918456213    0.09045296461342474    0.09220258742377548    0.09454572376018591    
  0.09751322011448374    0.10107313485760933    0.10513195893714179    0.10954322057593777    0.11411796138674402    
  0.11863388892759552    0.12284360865973314    0.1264866078624083    0.12931048213145174    0.1311012638447178    
  0.13171509221761651    0.1579228559872767    0.15699927152892135    0.15430457632784914    0.1500515228791081    
  0.14455038989829727    0.13816280974393305    0.13126372064206562    0.12421529917076553    0.11734685836056837    
  0.11093556818333451    0.10519037352211377    0.10024418986783097    0.09615491898411027    0.09291261392850947    
  0.09045296461342488    0.08867953555466464    0.08749211774585104    0.08681115163439301    0.08658922880708468    
  0.08681115163439307    0.08749211774585101    0.08867953555466467    0.09045296461342488    0.09291261392850947    
  0.09615491898411027    0.10024418986783097    0.1051903735221138    0.11093556818333451    0.11734685836056837    
  0.12421529917076553    0.13126372064206565    0.13816280974393305    0.14455038989829727    0.1500515228791081    
  0.15430457632784914    0.1569992715289213    0.1579228559872767    0.19176682446102428    0.19045139609586995    
  0.1866068394775814    0.18051828133445336    0.17260499850762176    0.16336512801485553    0.15333017763662385    
  0.1430278993989826    0.13294419370929658    0.12348375631327899    0.11494190566282182    0.10749910967645582    
  0.10123581962381288    0.09615491898411027    0.09220258742377548    0.08928807500753043    0.08730612045056409    
  0.08616103328259941    0.08578708677105351    0.08616103328259941    0.08730612045056409    0.08928807500753044    
  0.09220258742377548    0.09615491898411027    0.10123581962381288    0.10749910967645585    0.11494190566282182    
  0.123483756313279    0.13294419370929658    0.1430278993989826    0.15333017763662385    0.16336512801485556    
  0.17260499850762176    0.18051828133445336    0.1866068394775814    0.19045139609586997    0.19176682446102428    
  0.23293836266165346    0.23119699254340523    0.22608243588400626    0.21791123222987388    0.20717614015734057    
  0.19450636809921526    0.18062089666481257    0.16626933145627842    0.15215929222622665    0.1388837265048529    
  0.1268710697910519    0.11637468166558375    0.10749910967645586    0.10024418986783097    0.094545723760186    
  0.09030291824163073    0.0873971172783918    0.08571226900614116    0.08516148569102834    0.08571226900614116    
  0.0873971172783918    0.09030291824163073    0.094545723760186    0.10024418986783096    0.10749910967645586    
  0.11637468166558375    0.1268710697910519    0.1388837265048529    0.15215929222622665    0.16626933145627842    
  0.18062089666481257    0.19450636809921526    0.20717614015734057    0.21791123222987388    0.22608243588400626    
  0.23119699254340517    0.23293836266165346    0.2791103681086215    0.27704255926808746    0.2708963675725441    
  0.26087296266528914    0.24738344604000265    0.23109660016396325    0.21291637281987277    0.19387840669577003    
  0.17500352905204417    0.15716314666784353    0.1409936066664305    0.12687106979105187    0.1149419056628218    
  0.1051903735221137    0.09751322011448381    0.09177279442768893    0.08782263103466172    0.08552377659151142    
  0.08477085355229441    0.0855237765915114    0.08782263103466172    0.09177279442768893    0.09751322011448381    
  0.10519037352211373    0.1149419056628218    0.1268710697910519    0.1409936066664305    0.15716314666784356    
  0.17500352905204417    0.19387840669577006    0.21291637281987277    0.23109660016396325    0.24738344604000265    
  0.26087296266528914    0.2708963675725441    0.27704255926808746    0.2791103681086215    0.3242300364797826    
  0.3222213268139974    0.3160629882852481    0.3054921729074134    0.29043420672839865    0.27130351518136636    
  0.2490910042842728    0.22519062811872778    0.20108946728068305    0.17809190724346208    0.15716314666784353    
  0.1388837265048529    0.12348375631327899    0.11093556818333451    0.10107313485760937    0.09369092918151442    
  0.08859421754356452    0.0856166543509555    0.08463897656966823    0.08561665435095547    0.08859421754356452    
  0.09369092918151439    0.1010731348576094    0.11093556818333451    0.123483756313279    0.1388837265048529    
  0.15716314666784353    0.1780919072434621    0.20108946728068305    0.22519062811872784    0.2490910042842728    
  0.27130351518136636    0.29043420672839865    0.3054921729074134    0.3160629882852481    0.3222213268139974    
  0.3242300364797826    0.35721228325083226    0.35608719715381243    0.35217160731829494    0.3441485556383633    
  0.33069251619134205    0.31130106621820397    0.28671518151774983    0.2587132702582339    0.2294968287242474    
  0.20108946728068305    0.17500352905204414    0.15215929222622665    0.13294419370929655    0.11734685836056834    
  0.10513195893714179    0.096001072742547    0.08968779309840401    0.08598844558096362    0.0847709505713309    
  0.08598844558096361    0.08968779309840401    0.09600107274254698    0.10513195893714179    0.11734685836056834    
  0.13294419370929655    0.15215929222622665    0.17500352905204414    0.20108946728068305    0.2294968287242474    
  0.2587132702582339    0.28671518151774983    0.31130106621820397    0.33069251619134205    0.3441485556383633    
  0.35217160731829494    0.35608719715381243    0.35721228325083226    0.3639859480444512    0.36492749085787995    
  0.36661123396590617    0.3660620103313765    0.35972303751479456    0.3450848273854068    0.32185900211764756    
  0.2920031679145812    0.25871327025823393    0.22519062811872778    0.19387840669577003    0.16626933145627842    
  0.1430278993989826    0.12421529917076549    0.10954322057593781    0.09860947022866143    0.09105480941898933    
  0.08662246723313399    0.08516167745664824    0.08662246723313399    0.09105480941898933    0.09860947022866139    
  0.1095432205759378    0.12421529917076549    0.1430278993989826    0.16626933145627842    0.19387840669577003    
  0.22519062811872778    0.25871327025823393    0.2920031679145812    0.32185900211764756    0.3450848273854068    
  0.35972303751479456    0.3660620103313765    0.36661123396590617    0.36492749085787995    0.3639859480444512    
  0.33512602421666693    0.3391330614198689    0.34948127075201346    0.3615023496962557    0.36882794298286553    
  0.3657399769674111    0.3496160405473693    0.32185900211764756    0.2867151815177499    0.24909100428427275    
  0.21291637281987277    0.18062089666481257    0.15333017763662382    0.1312637206420656    0.11411796138674407    
  0.10139318141279245    0.09262385367460173    0.08748230457296717    0.08578736870383966    0.08748230457296712    
  0.09262385367460173    0.1013931814127925    0.11411796138674407    0.1312637206420656    0.1533301776366238    
  0.18062089666481257    0.21291637281987277    0.2490910042842728    0.2867151815177499    0.32185900211764756    
  0.34961604054736933    0.36573997696741106    0.36882794298286553    0.36150234969625583    0.34948127075201346    
  0.3391330614198688    0.33512602421666693    0.27485569447049024    0.28197502976987043    0.30161520367462613    
  0.3284525977644812    0.35391211270955314    0.3684950752053334    0.3657399769674111    0.3450848273854068    
  0.311301066218204    0.2713035151813664    0.23109660016396325    0.19450636809921526    0.16336512801485553    
  0.1381628097439331    0.11863388892759562    0.10420255680150586    0.09429500181209165    0.08849884272879309    
  0.0865895939127204    0.08849884272879305    0.09429500181209165    0.10420255680150588    0.11863388892759562    
  0.1381628097439331    0.16336512801485553    0.19450636809921532    0.23109660016396325    0.2713035151813664    
  0.311301066218204    0.3450848273854068    0.3657399769674111    0.3684950752053334    0.35391211270955314    
  0.3284525977644812    0.30161520367462613    0.2819750297698704    0.27485569447049024    0.20149086059952925    
  0.21058573355478738    0.23681309575270404    0.2759890834016877    0.31921599111805454    0.35391211270955314    
  0.3688279429828655    0.35972303751479456    0.33069251619134216    0.29043420672839865    0.24738344604000265    
  0.20717614015734054    0.17260499850762176    0.1445503898982972    0.12284360865973314    0.1068637837998843    
  0.09593881555700756    0.08956673757830427    0.08747076046790406    0.08956673757830427    0.09593881555700756    
  0.1068637837998843    0.12284360865973314    0.14455038989829724    0.17260499850762176    0.20717614015734057    
  0.24738344604000265    0.29043420672839865    0.33069251619134216    0.35972303751479456    0.3688279429828655    
  0.35391211270955314    0.31921599111805454    0.2759890834016877    0.23681309575270404    0.21058573355478735    
  0.20149086059952925    0.13621112068398358    0.14566954077994504    0.17410346873238647    0.21990286786807495    
  0.2759890834016877    0.3284525977644811    0.36150234969625583    0.3660620103313764    0.34414855563836333    
  0.3054921729074134    0.2608729626652891    0.21791123222987388    0.18051828133445336    0.15005152287910808    
  0.12648660786240834    0.10918961772347908    0.09740923113527886    0.09055977096245436    0.08831046527618361    
  0.09055977096245435    0.09740923113527886    0.10918961772347913    0.1264866078624083    0.15005152287910814    
  0.18051828133445336    0.21791123222987394    0.2608729626652891    0.3054921729074134    0.34414855563836333    
  0.3660620103313765    0.36150234969625583    0.32845259776448116    0.2759890834016877    0.21990286786807495    
  0.17410346873238647    0.14566954077994504    0.13621112068398358    0.09092070658248866    0.09965884739155317    