#     DFTpy    
  CRYSTAL 
    
  PRIMVEC    
  3.6227586206896505    0.0    0.0    
  0.0    3.6227586206896505    0.0    
  0.0    0.0    3.6227586206896505    
  PRIMCOORD    
  2    1    
  Si    0.0    0.0    0.0    
  Si    1.8113793103448304    1.8113793103448304    1.8113793103448304    
  BEGIN_BLOCK_DATAGRID_3D    
  3d_datagrid_density    
  BEGIN_DATAGRID_3D#0    
  37    37    37    
  0.0    0.0    0.0    
  3.6227586342026092    0.0    0.0    
  0.0    3.6227586342026092    0.0    
  0.0    0.0    3.6227586342026092    
  0.05932339550506801    0.06712260247364568    0.09264368458606494    0.13979805000338505    0.20724700838132393    
  0.28155493690245637    0.3400484850778192    0.364550033239127    0.3526465564400128    0.3156374491332557    
  0.26831655479528776    0.22149015722989185    0.18062491500395006    0.14755286897989128    0.1222405642262885    
  0.1038729333953329    0.09149053265787663    0.08434386500131254    0.08200579487428056    0.08434386500131257    
  0.09149053265787663    0.1038729333953329    0.1222405642262885    0.14755286897989128    0.18062491500395006    
  0.22149015722989185    0.26831655479528776    0.3156374491332557    0.3526465564400128    0.364550033239127    
  0.3400484850778192    0.2815549369024564    0.20724700838132393    0.13979805000338505    0.09264368458606494    
  0.06712260247364561    0.05932339550506801    0.0671226024736456    0.07530694763899443    0.10174550881654652    
  0.14960851288860336    0.21654355398853953    0.2886012738433775    0.34372580388956797    0.36506210156044205    
  0.3511553900487436    0.3133947534519212    0.2661302550695563    0.2197004613357906    0.17929374259532788    
  0.14662437394319702    0.12162340895941057    0.10347573409007474    0.09123551698954277    0.08416796127154616    
  0.08185527685977811    0.08416796127154617    0.09123551698954277    0.10347573409007474    0.12162340895941057    
  0.14662437394319702    0.17929374259532788    0.2197004613357906    0.2661302550695563    0.3133947534519212    
  0.3511553900487436    0.36506210156044205    0.34372580388956797    0.2886012738433776    0.21654355398853953    
  0.14960851288860338    0.10174550881654652    0.0753069476389944    0.0671226024736456    0.09264368458606502    
  0.10174550881654654    0.13019481836898042    0.17901343887954668    0.24321339399747105    0.3078753172621881    
  0.3530296600796    0.3654933710314426    0.34621547896451876    0.3066004454613884    0.25967194487517314    
  0.21446622790360284    0.1754170027037655    0.1439244974821075    0.11982865439971073    0.10231949341842214    
  0.09049261107160704    0.0836557048553053    0.08141719671338209    0.08365570485530532    0.09049261107160704    
  0.10231949341842214    0.11982865439971073    0.1439244974821075    0.1754170027037655    0.21446622790360284    
  0.25967194487517314    0.3066004454613884    0.34621547896451876    0.3654933710314426    0.35302966007960007    
  0.3078753172621881    0.24321339399747105    0.17901343887954668    0.13019481836898042    0.10174550881654654    
  0.09264368458606502    0.13979805000338508    0.14960851288860338    0.17901343887954668    0.22599602722436898    
  0.2825522026555689    0.3336618162643243    0.3631798146050887    0.36298775259897165    0.3367080511902562    
  0.295157740014676    0.24924782021812464    0.20616351786021495    0.16931441965588356    0.13968777352729822    
  0.11701412658140126    0.10050618915472548    0.08932950773192175    0.08285747230669119    0.08073679064077989    
  0.08285747230669122    0.08932950773192175    0.10050618915472549    0.11701412658140126    0.13968777352729822    
  0.16931441965588356    0.20616351786021495    0.24924782021812464    0.295157740014676    0.3367080511902562    
  0.36298775259897165    0.3631798146050887    0.3336618162643243    0.2825522026555689    0.22599602722436904    
  0.17901343887954668    0.14960851288860336    0.13979805000338508    0.20724700838132384    0.21654355398853956    
  0.2432133939974709    0.2825522026555689    0.3248644067979392    0.35695856942578663    0.3677926727597418    
  0.3542174126054045    0.3215748173764159    0.2791881111990939    0.23538305325717754    0.19534527776395658    
  0.16143802525753673    0.1342446364029489    0.11340764044331214    0.09819157181672451    0.08785860008183556    
  0.0818638421744727    0.07989812774080891    0.08186384217447272    0.08785860008183556    0.09819157181672451    
  0.11340764044331214    0.1342446364029489    0.16143802525753673    0.19534527776395658    0.23538305325717754    
  0.2791881111990939    0.3215748173764159    0.35421741260540457    0.3677926727597418    0.35695856942578663    
  0.3248644067979392    0.2825522026555689    0.2432133939974709    0.21654355398853956    0.20724700838132384    
  0.2815549369024564    0.28860127384337764    0.3078753172621881    0.3336618162643243    0.35695856942578674    
  0.3681841330092992    0.36140991993046395    0.33702346296994673    0.3005928547711259    0.2592754509857189    
  0.21883273560878164    0.182680212131401    0.15230365152562655    0.12796662489629645    0.10927021052071458    
  0.09556352793196998    0.08622508876781815    0.08079849801236777    0.07901836756193643    0.0807984980123678    
  0.08622508876781815    0.09556352793196997    0.10927021052071458    0.12796662489629645    0.15230365152562655    
  0.182680212131401    0.21883273560878164    0.25927545098571897    0.3005928547711259    0.33702346296994673    
  0.36140991993046395    0.3681841330092992    0.35695856942578674    0.3336618162643243    0.30787531726218803    
  0.28860127384337764    0.2815549369024564    0.34004848507781915    0.343725803889568    0.35302966007960007    
  0.36317981460508875    0.3677926727597418    0.36140991993046395    0.34197442655609406    0.3115370194331987    
  0.2747501207772054    0.2365353294667631    0.20055682235802666    0.1689080579231843    0.14244733522934788    
  0.1212291424307487    0.10486527384806583    0.09281539171665108    0.08458170328477971    0.07979290019863775    
  0.07822224432506705    0.0797929001986377    0.08458170328477971    0.0928153917166511    0.10486527384806583    
  0.1212291424307487    0.14244733522934788    0.16890805792318433    0.20055682235802666    0.2365353294667631    
  0.2747501207772054    0.3115370194331987    0.34197442655609406    0.36140991993046395    0.3677926727597418    
  0.36317981460508875    0.35302966007960007    0.343725803889568    0.34004848507781915    0.364550033239127    
  0.36506210156044205    0.3654933710314425    0.36298775259897165    0.35421741260540457    0.33702346296994673    
  0.3115370194331987    0.2800747870261894    0.245998140531328    0.212441777454276    0.18162667854031156    
  0.15478970765049802    0.13239530722456802    0.11438982258770848    0.10043842199526881    0.09012242288192981    
  0.08306028843690583    0.07895401925253635    0.07760839512901394    0.0789540192525363    0.08306028843690583    
  0.09012242288192981    0.10043842199526881    0.11438982258770848    0.13239530722456802    0.15478970765049802    
  0.18162667854031156    0.212441777454276    0.245998140531328    0.28007478702618943    0.31153701943319867    
  0.33702346296994673    0.35421741260540457    0.36298775259897165    0.3654933710314425    0.36506210156044205    
  0.364550033239127    0.35264655644001286    0.3511553900487436    0.34621547896451876    0.33670805119025615    
  0.3215748173764159    0.3005928547711259    0.2747501207772053    0.245998140531328    0.2165982795244616    
  0.188506518738854    0.16307330316946006    0.1410325091355901    0.12262702911885759    0.1077704642481109    
  0.09620589821319582    0.08762945059316676    0.08175615818732941    0.07834609827354476    0.07723022795853873    
  0.07834609827354475    0.08175615818732941    0.08762945059316676    0.09620589821319582    0.1077704642481109    
  0.12262702911885759    0.14103250913559012    0.16307330316946006    0.188506518738854    0.2165982795244616    
  0.245998140531328    0.2747501207772053    0.3005928547711259    0.3215748173764159    0.33670805119025615    
  0.34621547896451876    0.3511553900487436    0.35264655644001286    0.31563744913325564    0.31339475345192114    
  0.3066004454613884    0.295157740014676    0.2791881111990939    0.25927545098571897    0.2365353294667631    
  0.212441777454276    0.188506518738854    0.16598660820398034    0.14573669011457044    0.12820781355877078    
  0.11353253390497696    0.10163794073368046    0.09234769940886983    0.08545012849368411    0.08073149436805543    
  0.07799719004742559    0.07710371142986683    0.07799719004742559    0.08073149436805543    0.08545012849368411    
  0.09234769940886983    0.10163794073368046    0.11353253390497696    0.12820781355877078    0.14573669011457044    
  0.16598660820398034    0.188506518738854    0.212441777454276    0.2365353294667631    0.25927545098571897    
  0.2791881111990939    0.295157740014676    0.3066004454613884    0.3133947534519212    0.31563744913325564    
  0.26831655479528776    0.2661302550695563    0.25967194487517314    0.24924782021812464    0.23538305325717754    
  0.21883273560878164    0.20055682235802663    0.18162667854031153    0.16307330316946006    0.14573669011457038    
  0.13018164532874912    0.1167020914550053    0.10538538581851431    0.09618945401863771    0.0890008659417728    
  0.08366871088065478    0.08002680443405229    0.07791874772148445    0.07723016209311365    0.07791874772148445    
  0.08002680443405229    0.08366871088065478    0.0890008659417728    0.09618945401863774    0.10538538581851431    
  0.1167020914550053    0.13018164532874912    0.1457366901145704    0.16307330316946006    0.18162667854031156    
  0.20055682235802663    0.21883273560878164    0.23538305325717754    0.24924782021812464    0.25967194487517314    
  0.2661302550695563    0.26831655479528776    0.22149015722989185    0.21970046133579066    0.21446622790360284    
  0.20616351786021495    0.19534527776395658    0.18268021213140107    0.16890805792318428    0.1547897076504981    
  0.14103250913559015    0.12820781355877078    0.11670209145500539    0.10672332745944954    0.09834412245002737    
  0.09154629154184378    0.08624982627705058    0.08233395599048293    0.07966269383473705    0.07811473009670207    
  0.07760826453410723    0.07811473009670204    0.07966269383473705    0.08233395599048293    0.08624982627705058    
  0.09154629154184378    0.09834412245002737    0.10672332745944954    0.11670209145500537    0.1282078135587708    
  0.14103250913559015    0.1547897076504981    0.16890805792318428    0.18268021213140107    0.19534527776395658    
  0.20616351786021497    0.21446622790360284    0.21970046133579066    0.22149015722989185    0.18062491500395006    
  0.1792937425953279    0.1754170027037655    0.16931441965588356    0.1614380252575368    0.15230365152562655    
  0.14244733522934788    0.13239530722456802    0.12262702911885767    0.11353253390497696    0.10538538581851435    
  0.09834412245002733    0.09247148422948913    0.08775350543120951    0.08411553488376391    0.08144538574088321    
  0.07962668059678327    0.07856929250048617    0.07822205137791136    0.07856929250048617    0.07962668059678327    
  0.08144538574088321    0.08411553488376391    0.08775350543120951    0.09247148422948913    0.09834412245002734    
  0.10538538581851435    0.113532533904977    0.12262702911885767    0.13239530722456802    0.14244733522934788    
  0.15230365152562655    0.1614380252575368    0.16931441965588356    0.1754170027037655    0.17929374259532788    
  0.18062491500395006    0.1475528689798913    0.14662437394319708    0.1439244974821075    0.1396877735272983    
  0.13424463640294895    0.12796662489629648    0.12122914243074867    0.1143898225877085    0.10777046424811096    
  0.10163794073368045    0.09618945401863778    0.09154629154184381    0.08775350543120945    0.08478390345259261    
  0.08255222454194333    0.08094509090510513    0.07985899747376336    0.07922659305044401    0.07901811623750105    
  0.07922659305044395    0.07985899747376334    0.08094509090510513    0.08255222454194333    0.08478390345259264    
  0.08775350543120945    0.09154629154184378    0.09618945401863778    0.10163794073368046    0.10777046424811096    
  0.11438982258770852    0.1212291424307487    0.12796662489629645    0.13424463640294898    0.1396877735272983    
  0.1439244974821075    0.14662437394319708    0.1475528689798913    0.12224056422628853    0.1216234089594106    
  0.11982865439971073    0.11701412658140127    0.11340764044331218    0.10927021052071456    0.10486527384806585    
  0.10043842199526883    0.09620589821319586    0.09234769940886982    0.0890008659417728    0.08624982627705058    
  0.08411553488376386    0.08255222454194333    0.0814621902904011    0.08072927423312701    0.08025639950495038    
  0.07998645918284776    0.07989782412463318    0.07998645918284775    0.08025639950495038    0.08072927423312702    
  0.0814621902904011    0.08255222454194333    0.08411553488376386    0.08624982627705058    0.0890008659417728    
  0.09234769940886983    0.09620589821319586    0.10043842199526883    0.10486527384806585    0.10927021052071456    
  0.11340764044331218    0.11701412658140127    0.11982865439971073    0.1216234089594106    0.12224056422628853    
  0.10387293339533293    0.10347573409007475    0.10231949341842211    0.1005061891547255    0.09819157181672451    
  0.09556352793196995    0.09281539171665108    0.09012242288192987    0.08762945059316679    0.08545012849368407    
  0.08366871088065489    0.0823339559904829    0.08144538574088317    0.08094509090510517    0.08072927423312709    
  0.08067964760267811    0.08069817767434925    0.08072544733287641    0.08073644322376232    0.0807254473328764    
  0.08069817767434925    0.08067964760267816    0.08072927423312709    0.0809450909051052    0.08144538574088317    
  0.08233395599048293    0.08366871088065486    0.08545012849368407    0.08762945059316679    0.09012242288192986    
  0.09281539171665108    0.09556352793196995    0.09819157181672451    0.1005061891547255    0.10231949341842211    
  0.10347573409007475    0.10387293339533293    0.09149053265787661    0.09123551698954278    0.09049261107160701    
  0.08932950773192176    0.08785860008183559    0.08622508876781816    0.08458170328477967    0.08306028843690583    
  0.08175615818732944    0.08073149436805543    0.08002680443405231    0.07966269383473708    0.07962668059678321    
  0.0798589974737634    0.0802563995049504    0.08069817767434928    0.08107922198667528    0.08133008831728046    
  0.08141681623484588    0.08133008831728045    0.08107922198667528    0.0806981776743493    0.0802563995049504    
  0.07985899747376338    0.07962668059678321    0.07966269383473708    0.08002680443405231    0.08073149436805543    
  0.08175615818732944    0.08306028843690583    0.08458170328477967    0.08622508876781818    0.08785860008183559    
  0.08932950773192176    0.09049261107160701    0.09123551698954277    0.09149053265787661    0.08434386500131257    
  0.08416796127154619    0.0836557048553053    0.08285747230669124    0.08186384217447273    0.08079849801236778    
  0.07979290019863768    0.07895401925253635    0.07834609827354477    0.07799719004742552    0.07791874772148447    
  0.07811473009670201    0.07856929250048611    0.07922659305044401    0.07998645918284768    0.0807254473328764    
  0.08133008831728042    0.08172059225800742    0.08185487580776299    0.08172059225800746    0.08133008831728042    
  0.0807254473328764    0.07998645918284768    0.07922659305044401    0.07856929250048611    0.07811473009670201    
  0.07791874772148447    0.07799719004742552    0.07834609827354477    0.07895401925253634    0.07979290019863765    
  0.0807984980123678    0.08186384217447272    0.08285747230669124    0.0836557048553053    0.08416796127154619    
  0.08434386500131257    0.08200579487428057    0.08185527685977817    0.08141719671338211    0.08073679064077992    
  0.07989812774080897    0.07901836756193652    0.07822224432506705    0.07760839512901402    0.07723022795853879    
  0.07710371142986684    0.07723016209311379    0.07760826453410723    0.07822205137791133    0.07901811623750105    
  0.07989782412463318    0.0807364432237623    0.08141681623484588    0.08185487580776296    0.08200538683813523    
  0.08185487580776298    0.08141681623484588    0.08073644322376232    0.07989782412463318    0.07901811623750102    
  0.07822205137791133    0.07760826453410727    0.07723016209311379    0.07710371142986687    0.07723022795853879    
  0.077608395129014    0.07822224432506705    0.07901836756193652    0.07989812774080897    0.08073679064077992    
  0.08141719671338211    0.08185527685977816    0.08200579487428057    0.0843438650013125    0.08416796127154615    
  0.08365570485530528    0.08285747230669122    0.08186384217447268    0.08079849801236778    0.07979290019863768    
  0.07895401925253633    0.07834609827354475    0.07799719004742552    0.07791874772148445    0.07811473009670197    
  0.07856929250048611    0.07922659305044401    0.07998645918284772    0.08072544733287634    0.0813300883172804    
  0.08172059225800744    0.08185487580776299    0.08172059225800742    0.0813300883172804    0.08072544733287634    
  0.07998645918284772    0.07922659305044398    0.07856929250048611    0.07811473009670197    0.07791874772148445    
  0.07799719004742552    0.07834609827354475    0.07895401925253634    0.07979290019863768    0.08079849801236778    
  0.08186384217447269    0.08285747230669122    0.08365570485530528    0.08416796127154616    0.0843438650013125    
  0.09149053265787663    0.09123551698954278    0.09049261107160701    0.08932950773192178    0.08785860008183559    
  0.08622508876781816    0.08458170328477967    0.08306028843690583    0.08175615818732944    0.08073149436805543    
  0.08002680443405231    0.07966269383473708    0.07962668059678321    0.0798589974737634    0.0802563995049504    
  0.08069817767434928    0.0810792219866753    0.08133008831728046    0.08141681623484588    0.08133008831728045    
  0.08107922198667528    0.0806981776743493    0.0802563995049504    0.0798589974737634    0.07962668059678321    
  0.07966269383473708    0.08002680443405231    0.08073149436805543    0.08175615818732944    0.08306028843690583    
  0.08458170328477967    0.08622508876781818    0.08785860008183559    0.08932950773192176    0.09049261107160701    
  0.09123551698954278    0.09149053265787663    0.1038729333953329    0.10347573409007474    0.10231949341842214    
  0.10050618915472546    0.09819157181672453    0.09556352793196995    0.09281539171665108    0.09012242288192984    
  0.08762945059316679    0.0854501284936841    0.08366871088065486    0.0823339559904829    0.08144538574088321    
  0.08094509090510517    0.08072927423312706    0.0806796476026781    0.08069817767434928    0.08072544733287633    
  0.08073644322376232    0.08072544733287634    0.08069817767434928    0.08067964760267807    0.08072927423312706    
  0.0809450909051052    0.08144538574088321    0.08233395599048293    0.08366871088065486    0.0854501284936841    
  0.08762945059316679    0.09012242288192984    0.09281539171665108    0.09556352793196995    0.09819157181672454    
  0.10050618915472548    0.10231949341842216    0.10347573409007474    0.1038729333953329    0.12224056422628853    
  0.1216234089594106    0.11982865439971073    0.11701412658140127    0.11340764044331218    0.10927021052071456    
  0.10486527384806585    0.10043842199526883    0.09620589821319586    0.09234769940886982    0.0890008659417728    
  0.08624982627705058    0.08411553488376386    0.08255222454194333    0.0814621902904011    0.08072927423312701    
  0.08025639950495038    0.07998645918284776    0.07989782412463318    0.07998645918284775    0.08025639950495038    
  0.08072927423312702    0.0814621902904011    0.08255222454194333    0.08411553488376386    0.08624982627705058    
  0.0890008659417728    0.09234769940886983    0.09620589821319586    0.10043842199526881    0.10486527384806585    
  0.10927021052071456    0.11340764044331218    0.11701412658140127    0.11982865439971073    0.1216234089594106    
  0.12224056422628853    0.14755286897989128    0.14662437394319708    0.14392449748210756    0.1396877735272983    
  0.13424463640294892    0.1279666248962965    0.1212291424307487    0.11438982258770856    0.10777046424811096    
  0.10163794073368047    0.09618945401863782    0.09154629154184384    0.08775350543120945    0.08478390345259264    
  0.08255222454194339    0.0809450909051052    0.07985899747376334    0.07922659305044402    0.07901811623750098    
  0.07922659305044401    0.07985899747376334    0.08094509090510521    0.08255222454194333    0.08478390345259264    
  0.08775350543120945    0.09154629154184384    0.09618945401863781    0.10163794073368049    0.10777046424811096    
  0.11438982258770856    0.1212291424307487    0.1279666248962965    0.13424463640294898    0.1396877735272983    
  0.14392449748210756    0.1466243739431971    0.14755286897989128    0.18062491500395006    0.1792937425953279    
  0.1754170027037655    0.16931441965588356    0.1614380252575368    0.15230365152562655    0.14244733522934788    
  0.13239530722456802    0.12262702911885767    0.11353253390497696    0.10538538581851435    0.09834412245002733    
  0.09247148422948913    0.08775350543120951    0.08411553488376391    0.08144538574088321    0.07962668059678327    
  0.07856929250048617    0.07822205137791136    0.07856929250048617    0.07962668059678327    0.08144538574088321    
  0.08411553488376391    0.08775350543120951    0.09247148422948913    0.09834412245002734    0.10538538581851435    
  0.113532533904977    0.12262702911885767    0.13239530722456802    0.14244733522934788    0.15230365152562655    
  0.1614380252575368    0.16931441965588356    0.1754170027037655    0.17929374259532788    0.18062491500395006    
  0.2214901572298918    0.21970046133579066    0.21446622790360279    0.206163517860215    0.19534527776395658    
  0.182680212131401    0.16890805792318433    0.1547897076504981    0.14103250913559012    0.12820781355877078    
  0.11670209145500532    0.10672332745944954    0.09834412245002734    0.09154629154184378    0.0862498262770506    
  0.08233395599048293    0.07966269383473705    0.078114730096702    0.07760826453410723    0.07811473009670195    
  0.07966269383473705    0.08233395599048293    0.0862498262770506    0.09154629154184381    0.09834412245002734    
  0.10672332745944954    0.11670209145500532    0.12820781355877078    0.14103250913559012    0.15478970765049807    
  0.16890805792318433    0.182680212131401    0.19534527776395658    0.206163517860215    0.21446622790360279    
  0.21970046133579066    0.2214901572298918    0.26831655479528776    0.2661302550695563    0.25967194487517314    
  0.24924782021812464    0.23538305325717754    0.21883273560878164    0.20055682235802663    0.18162667854031153    
  0.16307330316946006    0.14573669011457038    0.13018164532874912    0.1167020914550053    0.10538538581851431    
  0.09618945401863771    0.0890008659417728    0.08366871088065478    0.08002680443405229    0.07791874772148445    
  0.07723016209311365    0.07791874772148445    0.08002680443405229    0.08366871088065478    0.0890008659417728    
  0.09618945401863774    0.10538538581851431    0.1167020914550053    0.13018164532874912    0.1457366901145704    
  0.16307330316946006    0.18162667854031156    0.20055682235802663    0.2188327356087816    0.23538305325717754    
  0.24924782021812464    0.25967194487517314    0.2661302550695563    0.26831655479528776    0.31563744913325564    
  0.31339475345192114    0.3066004454613884    0.295157740014676    0.2791881111990939    0.25927545098571897    
  0.2365353294667631    0.212441777454276    0.188506518738854    0.16598660820398034    0.14573669011457044    
  0.12820781355877078    0.11353253390497696    0.10163794073368046    0.09234769940886983    0.0854501284936841    
  0.08073149436805543    0.07799719004742559    0.07710371142986683    0.07799719004742559    0.08073149436805543    
  0.0854501284936841    0.09234769940886983    0.10163794073368046    0.11353253390497696    0.12820781355877078    
  0.14573669011457044    0.16598660820398034    0.188506518738854    0.212441777454276    0.2365353294667631    
  0.25927545098571897    0.2791881111990939    0.295157740014676    0.3066004454613884    0.3133947534519212    
  0.31563744913325564    0.35264655644001286    0.3511553900487436    0.34621547896451876    0.33670805119025615    
  0.3215748173764159    0.3005928547711259    0.2747501207772053    0.245998140531328    0.2165982795244616    
  0.188506518738854    0.16307330316946006    0.1410325091355901    0.12262702911885759    0.1077704642481109    
  0.09620589821319582    0.08762945059316676    0.08175615818732941    0.07834609827354476    0.07723022795853873    
  0.07834609827354475    0.08175615818732941    0.08762945059316676    0.09620589821319582    0.1077704642481109    
  0.12262702911885759    0.14103250913559012    0.16307330316946006    0.188506518738854    0.2165982795244616    
  0.245998140531328    0.2747501207772053    0.3005928547711259    0.3215748173764159    0.33670805119025615    
  0.34621547896451876    0.3511553900487436    0.35264655644001286    0.364550033239127    0.36506210156044194    
  0.36549337103144264    0.36298775259897165    0.35421741260540457    0.33702346296994673    0.3115370194331986    
  0.2800747870261894    0.245998140531328    0.21244177745427606    0.1816266785403116    0.15478970765049804    
  0.13239530722456802    0.11438982258770848    0.1004384219952688    0.09012242288192987    0.08306028843690588    
  0.07895401925253637    0.07760839512901399    0.0789540192525364    0.08306028843690588    0.09012242288192987    
  0.10043842199526878    0.11438982258770848    0.13239530722456802    0.15478970765049807    0.1816266785403116    
  0.21244177745427606    0.245998140531328    0.2800747870261894    0.3115370194331986    0.33702346296994673    
  0.35421741260540457    0.36298775259897165    0.36549337103144264    0.36506210156044205    0.364550033239127    
  0.34004848507781915    0.343725803889568    0.35302966007960007    0.36317981460508875    0.3677926727597418    
  0.36140991993046395    0.34197442655609406    0.3115370194331987    0.2747501207772054    0.2365353294667631    
  0.20055682235802666    0.1689080579231843    0.14244733522934788    0.1212291424307487    0.10486527384806583    
  0.09281539171665108    0.08458170328477971    0.07979290019863775    0.07822224432506705    0.0797929001986377    
  0.08458170328477971    0.0928153917166511    0.10486527384806583    0.1212291424307487    0.14244733522934788    
  0.16890805792318433    0.20055682235802666    0.2365353294667631    0.2747501207772054    0.3115370194331987    
  0.34197442655609406    0.36140991993046395    0.3677926727597418    0.36317981460508875    0.35302966007960007    
  0.343725803889568    0.34004848507781915    0.28155493690245637    0.2886012738433776    0.30787531726218803    
  0.3336618162643243    0.35695856942578674    0.3681841330092992    0.36140991993046395    0.3370234629699467    
  0.3005928547711259    0.25927545098571886    0.21883273560878164    0.18268021213140098    0.15230365152562655    
  0.12796662489629645    0.10927021052071456    0.09556352793196993    0.08622508876781815    0.08079849801236777    
  0.07901836756193648    0.08079849801236774    0.08622508876781815    0.09556352793196993    0.10927021052071456    
  0.12796662489629643    0.15230365152562655    0.182680212131401    0.21883273560878164    0.2592754509857189    
  0.3005928547711259    0.33702346296994673    0.36140991993046395    0.36818413300929925    0.35695856942578674    
  0.3336618162643243    0.30787531726218803    0.28860127384337764    0.28155493690245637    0.20724700838132384    
  0.21654355398853956    0.24321339399747094    0.2825522026555689    0.3248644067979392    0.35695856942578663    
  0.3677926727597418    0.3542174126054045    0.3215748173764159    0.2791881111990939    0.23538305325717754    
  0.19534527776395658    0.16143802525753673    0.1342446364029489    0.11340764044331214    0.09819157181672451    
  0.08785860008183556    0.0818638421744727    0.07989812774080891    0.08186384217447272    0.08785860008183556    
  0.09819157181672451    0.11340764044331214    0.1342446364029489    0.16143802525753673    0.19534527776395658    
  0.23538305325717754    0.2791881111990939    0.3215748173764159    0.3542174126054045    0.3677926727597418    
  0.35695856942578663    0.3248644067979392    0.2825522026555689    0.2432133939974709    0.21654355398853956    
  0.20724700838132384    0.1397980500033851    0.14960851288860338    0.17901343887954668    0.22599602722436898    
  0.2825522026555689    0.3336618162643243    0.3631798146050887    0.3629877525989717    0.3367080511902562    
  0.295157740014676    0.2492478202181247    0.20616351786021497    0.16931441965588356    0.13968777352729822    
  0.11701412658140126    0.10050618915472548    0.08932950773192176    0.08285747230669123    0.0807367906407799    
  0.08285747230669124    0.08932950773192175    0.10050618915472546    0.11701412658140126    0.1396877735272982    
  0.16931441965588356    0.20616351786021495    0.2492478202181247    0.295157740014676    0.3367080511902562    
  0.36298775259897176    0.3631798146050887    0.3336618162643243    0.2825522026555689    0.22599602722436898    
  0.17901343887954665    0.14960851288860338    0.1397980500033851    0.09264368458606505    0.10174550881654654    