#     DFTpy    
  CRYSTAL 
    
  PRIMVEC    
  2.5359310344827604    0.0    0.0    
  0.0    2.5359310344827604    0.0    
  0.0    0.0    2.5359310344827604    
  PRIMCOORD    
  2    1    
  Si    0.0    0.0    0.0    
  Si    1.2679655172413802    1.2679655172413802    1.2679655172413802    
  BEGIN_BLOCK_DATAGRID_3D    
  3d_datagrid_density    
  BEGIN_DATAGRID_3D#0    
  25    25    25    
  0.0    0.0    0.0    
  2.5359310439418317    0.0    0.0    
  0.0    2.5359310439418317    0.0    
  0.0    0.0    2.5359310439418317    
  0.050000663234866835    0.05885593266744612    0.08904646198942368    0.14827837042538738    0.23838101190580965    
  0.3444066945934631    0.4374037072378658    0.49338038000034895    0.5087299116466536    0.4971051038045919    
  0.4762408170456582    0.45917561457872647    0.45279970925423874    0.45917561457872647    0.4762408170456582    
  0.49710510380459166    0.5087299116466536    0.49338038000034906    0.4374037072378658    0.3444066945934631    
  0.23838101190580965    0.14827837042538744    0.08904646198942368    0.05885593266744617    0.050000663234866835    
  0.05885593266744612    0.06839200264984237    0.10035606364873095    0.1615024148984108    0.2521655949012411    
  0.35643051996832625    0.44593710607297715    0.4983381961283697    0.5112533798426941    0.4984790119570337    
  0.47726567154337435    0.4601632677622266    0.4537992620429373    0.4601632677622266    0.47726567154337435    
  0.4984790119570336    0.5112533798426941    0.4983381961283698    0.44593710607297715    0.3564305199683262    
  0.2521655949012411    0.16150241489841088    0.10035606364873086    0.06839200264984233    0.05885593266744612    
  0.08904646198942373    0.10035606364873081    0.13672144731806923    0.2019894055131903    0.29248529781863825    
  0.390240280631421    0.4691074755761898    0.5113430441444027    0.5176353030062203    0.5018729497649465    
  0.4798389819333257    0.4627144851513111    0.45640898441369426    0.4627144851513111    0.47983898193332575    
  0.5018729497649463    0.5176353030062203    0.5113430441444027    0.4691074755761898    0.39024028063142097    
  0.29248529781863825    0.2019894055131904    0.13672144731806923    0.10035606364873081    0.08904646198942373    
  0.1482783704253873    0.16150241489841088    0.20198940551319022    0.2691404390366309    0.35436623237273507    
  0.43856565008256115    0.5000416561948294    0.5274477255093508    0.5248509632185316    0.5054784255234637    
  0.4827335755395525    0.46583152677700246    0.45969032755177414    0.4658315267770025    0.4827335755395526    
  0.5054784255234637    0.5248509632185316    0.5274477255093509    0.5000416561948294    0.43856565008256104    
  0.35436623237273507    0.2691404390366309    0.20198940551319022    0.16150241489841086    0.1482783704253873    
  0.2383810119058095    0.2521655949012411    0.2924852978186383    0.35436623237273496    0.4258361405302769    
  0.4892646147767705    0.5291849655673604    0.5405106117891367    0.5294105318778656    0.5072977396676605    
  0.48462434097413015    0.46845149678620895    0.4626490151451528    0.46845149678620895    0.48462434097413015    
  0.5072977396676605    0.5294105318778656    0.5405106117891368    0.5291849655673604    0.4892646147767705    
  0.4258361405302769    0.35436623237273507    0.2924852978186383    0.2521655949012411    0.2383810119058095    
  0.344406694593463    0.3564305199683262    0.39024028063142113    0.43856565008256115    0.48926461477677063    
  0.5287090445013247    0.5477578364032214    0.5456955316391003    0.5288598333870713    0.5060068672681576    
  0.4846365716891601    0.4698616530232611    0.46461356459671016    0.4698616530232611    0.4846365716891601    
  0.5060068672681575    0.5288598333870713    0.5456955316391003    0.5477578364032214    0.5287090445013247    
  0.48926461477677063    0.43856565008256115    0.39024028063142113    0.3564305199683262    0.344406694593463    
  0.4374037072378659    0.44593710607297726    0.46910747557618987    0.5000416561948294    0.5291849655673604    
  0.5477578364032214    0.5513756860503961    0.5412932890964758    0.522603523196623    0.5013263963896496    
  0.4825211157456186    0.46978363738994244    0.4652906035839498    0.46978363738994244    0.4825211157456186    
  0.5013263963896495    0.522603523196623    0.5412932890964758    0.5513756860503961    0.5477578364032213    
  0.5291849655673604    0.5000416561948295    0.46910747557618987    0.44593710607297726    0.4374037072378659    
  0.49338038000034906    0.4983381961283697    0.5113430441444026    0.5274477255093508    0.5405106117891367    
  0.5456955316391003    0.5412932890964757    0.5288296259286709    0.511744135379871    0.4938630259860406    
  0.47851422380600545    0.4682281788698611    0.46461357969065464    0.4682281788698611    0.47851422380600545    
  0.4938630259860405    0.511744135379871    0.528829625928671    0.5412932890964757    0.5456955316391002    
  0.5405106117891367    0.5274477255093509    0.5113430441444026    0.4983381961283697    0.49338038000034906    
  0.5087299116466536    0.5112533798426943    0.5176353030062204    0.5248509632185318    0.5294105318778657    
  0.5288598333870714    0.5226035231966228    0.5117441353798708    0.4983469285954575    0.4847488623757946    
  0.47315342949449996    0.46538202133090156    0.46264904708174215    0.46538202133090156    0.47315342949449996    
  0.4847488623757945    0.4983469285954575    0.511744135379871    0.5226035231966228    0.5288598333870712    
  0.5294105318778657    0.5248509632185319    0.5176353030062204    0.5112533798426943    0.5087299116466536    
  0.4971051038045919    0.4984790119570338    0.5018729497649465    0.5054784255234637    0.5072977396676607    
  0.5060068672681576    0.5013263963896496    0.4938630259860405    0.4847488623757946    0.47537382751322244    
  0.4672207633131427    0.46166329319606564    0.4596903760609878    0.46166329319606564    0.4672207633131427    
  0.4753738275132224    0.4847488623757946    0.4938630259860406    0.5013263963896496    0.5060068672681575    
  0.5072977396676607    0.5054784255234638    0.5018729497649465    0.4984790119570337    0.4971051038045919    
  0.4762408170456582    0.47726567154337446    0.47983898193332586    0.4827335755395525    0.48462434097413015    
  0.4846365716891602    0.48252111574561873    0.47851422380600556    0.47315342949449996    0.4672207633131429    
  0.46173766330582405    0.45782965659561853    0.45640904502125207    0.45782965659561853    0.46173766330582405    
  0.4672207633131427    0.47315342949449996    0.4785142238060056    0.48252111574561873    0.4846365716891601    
  0.48462434097413015    0.4827335755395526    0.47983898193332586    0.47726567154337446    0.4762408170456582    
  0.4591756145787263    0.4601632677622266    0.4627144851513111    0.46583152677700224    0.46845149678620895    
  0.4698616530232611    0.4697836373899423    0.468228178869861    0.4653820213309015    0.4616632931960656    
  0.4578296565956185    0.454900849185918    0.4537993285419783    0.454900849185918    0.4578296565956185    
  0.46166329319606547    0.46538202133090156    0.4682281788698611    0.4697836373899423    0.46986165302326105    
  0.46845149678620895    0.46583152677700235    0.4627144851513111    0.4601632677622266    0.4591756145787263    
  0.4527997092542386    0.4537992620429373    0.45640898441369415    0.459690327551774    0.4626490151451528    
  0.46461356459671016    0.4652906035839498    0.46461357969065453    0.46264904708174187    0.45969037606098756    
  0.4564090450212519    0.45379932854197824    0.45279977722426396    0.45379932854197824    0.4564090450212519    
  0.45969037606098756    0.46264904708174187    0.46461357969065475    0.4652906035839498    0.46461356459670994    
  0.4626490151451528    0.45969032755177414    0.45640898441369415    0.4537992620429373    0.4527997092542386    
  0.4591756145787264    0.4601632677622266    0.4627144851513111    0.46583152677700235    0.46845149678620895    
  0.4698616530232611    0.4697836373899423    0.468228178869861    0.4653820213309015    0.46166329319606564    
  0.4578296565956185    0.454900849185918    0.45379932854197824    0.454900849185918    0.4578296565956185    
  0.46166329319606547    0.4653820213309015    0.4682281788698611    0.4697836373899423    0.46986165302326105    
  0.46845149678620895    0.46583152677700246    0.4627144851513111    0.4601632677622266    0.4591756145787264    
  0.4762408170456582    0.47726567154337446    0.47983898193332586    0.4827335755395525    0.48462434097413015    
  0.4846365716891602    0.48252111574561873    0.47851422380600556    0.47315342949449996    0.4672207633131429    
  0.46173766330582405    0.45782965659561853    0.45640904502125207    0.45782965659561853    0.46173766330582405    
  0.4672207633131427    0.47315342949449996    0.4785142238060056    0.48252111574561873    0.4846365716891601    
  0.48462434097413015    0.4827335755395526    0.47983898193332586    0.47726567154337446    0.4762408170456582    
  0.4971051038045919    0.4984790119570338    0.5018729497649463    0.5054784255234637    0.5072977396676607    
  0.5060068672681575    0.5013263963896496    0.4938630259860405    0.4847488623757946    0.47537382751322244    
  0.4672207633131427    0.46166329319606564    0.45969037606098756    0.46166329319606564    0.4672207633131427    
  0.4753738275132224    0.4847488623757946    0.4938630259860406    0.5013263963896496    0.5060068672681574    
  0.5072977396676607    0.5054784255234638    0.5018729497649463    0.4984790119570338    0.4971051038045919    
  0.5087299116466536    0.5112533798426943    0.5176353030062204    0.5248509632185318    0.5294105318778657    
  0.5288598333870714    0.5226035231966228    0.5117441353798708    0.4983469285954575    0.4847488623757946    
  0.47315342949449996    0.46538202133090156    0.46264904708174215    0.46538202133090156    0.47315342949449996    
  0.4847488623757945    0.4983469285954575    0.511744135379871    0.5226035231966228    0.5288598333870712    
  0.5294105318778657    0.5248509632185319    0.5176353030062204    0.5112533798426943    0.5087299116466536    
  0.49338038000034895    0.4983381961283698    0.5113430441444026    0.5274477255093508    0.5405106117891368    
  0.5456955316391003    0.5412932890964757    0.5288296259286709    0.511744135379871    0.4938630259860406    
  0.47851422380600556    0.4682281788698609    0.46461357969065475    0.4682281788698609    0.47851422380600545    
  0.4938630259860405    0.511744135379871    0.528829625928671    0.5412932890964757    0.5456955316391002    
  0.5405106117891367    0.5274477255093509    0.5113430441444027    0.4983381961283698    0.49338038000034895    
  0.4374037072378659    0.44593710607297726    0.46910747557618987    0.5000416561948294    0.5291849655673604    
  0.5477578364032214    0.5513756860503961    0.5412932890964758    0.522603523196623    0.5013263963896496    
  0.4825211157456186    0.46978363738994244    0.4652906035839498    0.46978363738994244    0.4825211157456186    
  0.5013263963896495    0.522603523196623    0.5412932890964758    0.5513756860503961    0.5477578364032213    
  0.5291849655673604    0.5000416561948295    0.46910747557618987    0.44593710607297726    0.4374037072378659    
  0.3444066945934631    0.35643051996832625    0.3902402806314212    0.43856565008256115    0.48926461477677063    
  0.5287090445013247    0.5477578364032214    0.5456955316391003    0.5288598333870713    0.5060068672681576    
  0.4846365716891601    0.4698616530232611    0.46461356459671016    0.4698616530232611    0.4846365716891601    
  0.5060068672681574    0.5288598333870713    0.5456955316391003    0.5477578364032214    0.5287090445013247    
  0.48926461477677063    0.43856565008256126    0.3902402806314212    0.35643051996832625    0.3444066945934631    
  0.2383810119058095    0.2521655949012411    0.2924852978186383    0.35436623237273496    0.4258361405302769    
  0.4892646147767705    0.5291849655673604    0.5405106117891367    0.5294105318778656    0.5072977396676605    
  0.48462434097413015    0.46845149678620895    0.4626490151451528    0.46845149678620895    0.48462434097413015    
  0.5072977396676605    0.5294105318778656    0.5405106117891368    0.5291849655673604    0.4892646147767705    
  0.4258361405302769    0.35436623237273507    0.2924852978186383    0.2521655949012411    0.2383810119058095    
  0.14827837042538733    0.1615024148984108    0.20198940551319033    0.2691404390366309    0.35436623237273507    
  0.43856565008256126    0.5000416561948294    0.5274477255093507    0.5248509632185316    0.5054784255234637    
  0.4827335755395526    0.46583152677700246    0.45969032755177414    0.46583152677700246    0.4827335755395526    
  0.5054784255234637    0.5248509632185316    0.5274477255093509    0.5000416561948294    0.43856565008256115    
  0.35436623237273507    0.26914043903663093    0.20198940551319033    0.16150241489841086    0.14827837042538733    
  0.08904646198942373    0.10035606364873081    0.13672144731806923    0.2019894055131903    0.29248529781863825    
  0.390240280631421    0.4691074755761898    0.5113430441444027    0.5176353030062203    0.5018729497649465    
  0.47983898193332575    0.4627144851513111    0.45640898441369426    0.4627144851513111    0.4798389819333257    
  0.5018729497649463    0.5176353030062203    0.5113430441444027    0.4691074755761898    0.39024028063142097    
  0.29248529781863825    0.2019894055131904    0.13672144731806923    0.10035606364873081    0.08904646198942373    
  0.05885593266744617    0.06839200264984241    0.10035606364873095    0.16150241489841075    0.2521655949012411    
  0.35643051996832625    0.44593710607297715    0.4983381961283697    0.5112533798426941    0.4984790119570336    
  0.47726567154337446    0.4601632677622267    0.4537992620429373    0.4601632677622267    0.47726567154337446    
  0.49847901195703354    0.5112533798426941    0.4983381961283698    0.44593710607297715    0.3564305199683262    
  0.25216559490124113    0.1615024148984108    0.10035606364873095    0.0683920026498425    0.05885593266744617    
  0.050000663234866835    0.05885593266744612    0.08904646198942368    0.14827837042538738    0.23838101190580965    
  0.3444066945934631    0.4374037072378658    0.49338038000034895    0.5087299116466536    0.4971051038045919    
  0.4762408170456582    0.45917561457872647    0.45279970925423874    0.45917561457872647    0.4762408170456582    
  0.49710510380459166    0.5087299116466536    0.49338038000034906    0.4374037072378658    0.3444066945934631    
  0.23838101190580965    0.14827837042538744    0.08904646198942368    0.05885593266744617    0.050000663234866835    
  0.05885593266744615    0.06839200264984227    0.10035606364873081    0.16150241489841088    0.25216559490124113    
  0.35643051996832625    0.44593710607297715    0.4983381961283696    0.5112533798426941    0.4984790119570337    
  0.47726567154337435    0.4601632677622267    0.4537992620429373    0.4601632677622267    0.47726567154337435    
  0.4984790119570336    0.5112533798426941    0.4983381961283698    0.44593710607297715    0.35643051996832625    
  0.25216559490124113    0.16150241489841094    0.10035606364873081    0.06839200264984233    0.05885593266744615    
  0.06839200264984227    0.07857058348644881    0.11217082052474464    0.17497783558892846    0.26590386091676227    
  0.3682080597865297    0.45419878983007816    0.5031206463557009    0.5137190039147976    0.499878551974567    
  0.47836271354287374    0.46124590519307523    0.4549007846621446    0.46124590519307523    0.47836271354287374    
  0.4998785519745669    0.5137190039147976    0.503120646355701    0.45419878983007816    0.36820805978652965    
  0.26590386091676227    0.1749778355889285    0.1121708205247446    0.07857058348644881    0.06839200264984227    
  0.10035606364873091    0.11217082052474454    0.14972483134523426    0.21591147503483146    0.3058818152805011    
  0.4012157565227063    0.47658862428383836    0.5156648053253278    0.5199831881826361    0.5033866846645482    
  0.4811759732627105    0.46409772152742185    0.457829598840588    0.46409772152742185    0.4811759732627105    
  0.5033866846645481    0.5199831881826361    0.5156648053253279    0.47658862428383836    0.40121575652270614    
  0.3058818152805011    0.21591147503483152    0.14972483134523426    0.1121708205247446    0.10035606364873091    
  0.16150241489841077    0.1749778355889285    0.21591147503483132    0.2829243881123672    0.3666892240776485    
  0.44810691681587256    0.5063686985382272    0.5312001474697164    0.5271537512408773    0.507273790641237    
  0.48452043076044854    0.4677433322929553    0.46166324763967775    0.4677433322929553    0.48452043076044854    
  0.507273790641237    0.5271537512408772    0.5312001474697164    0.5063686985382272    0.44810691681587245    
  0.3666892240776485    0.28292438811236725    0.21591147503483138    0.1749778355889284    0.16150241489841077    
  0.25216559490124096    0.26590386091676227    0.3058818152805011    0.36668922407764837    0.4361199451118192    
  0.4968747422722749    0.5342497299838431    0.5438059997881675    0.5318660603894947    0.5095915485659884    
  0.4870756074385459    0.47110157568451033    0.4653819913010547    0.47110157568451033    0.4870756074385459    
  0.5095915485659883    0.5318660603894947    0.5438059997881676    0.5342497299838431    0.4968747422722749    
  0.4361199451118192    0.3666892240776485    0.3058818152805011    0.26590386091676227    0.25216559490124096    
  0.3564305199683262    0.3682080597865296    0.4012157565227063    0.44810691681587256    0.496874742272275    
  0.5343122615888342    0.5517730103146883    0.5488087948618696    0.5317053896228157    0.5089858457639844    
  0.4879024061551694    0.473378768124899    0.46822816414034346    0.473378768124899    0.4879024061551694    
  0.5089858457639844    0.5317053896228157    0.5488087948618697    0.5517730103146883    0.5343122615888342    
  0.496874742272275    0.4481069168158726    0.4012157565227063    0.3682080597865296    0.3564305199683262    
  0.44593710607297726    0.4541987898300783    0.47658862428383847    0.5063686985382272    0.5342497299838431    
  0.5517730103146883    0.5547736259953485    0.5445307820641214    0.5260132329318441    0.5050762946386776    
  0.4866361429726145    0.4741741520534824    0.46978363647059546    0.4741741520534823    0.4866361429726145    
  0.5050762946386775    0.5260132329318441    0.5445307820641215    0.5547736259953485    0.5517730103146882    
  0.5342497299838431    0.5063686985382272    0.47658862428383847    0.4541987898300783    0.44593710607297726    
  0.4983381961283697    0.5031206463557009    0.5156648053253277    0.5312001474697163    0.5438059997881676    
  0.5488087948618696    0.5445307820641214    0.5324138875431199    0.5157772068531593    0.49835057024157864    
  0.483394102131586    0.4733787809040489    0.4698616662989749    0.4733787809040489    0.483394102131586    
  0.4983505702415787    0.5157772068531593    0.5324138875431201    0.5445307820641214    0.5488087948618695    
  0.5438059997881676    0.5312001474697166    0.5156648053253277    0.5031206463557009    0.4983381961283697    
  0.5112533798426941    0.5137190039147976    0.5199831881826363    0.5271537512408773    0.5318660603894948    
  0.5317053896228158    0.5260132329318441    0.5157772068531592    0.5029634982754458    0.4898556524560894    
  0.47863417427538474    0.4711016029654162    0.46845152615400515    0.4711016029654162    0.47863417427538474    
  0.48985565245608936    0.5029634982754458    0.5157772068531593    0.5260132329318441    0.5317053896228155    
  0.5318660603894948    0.5271537512408774    0.5199831881826363    0.5137190039147976    0.5112533798426941    
  0.4984790119570337    0.49987855197456704    0.5033866846645483    0.507273790641237    0.5095915485659887    
  0.5089858457639844    0.5050762946386776    0.4983505702415787    0.4898556524560894    0.48094834560614946    
  0.47311500639533516    0.46774337453253484    0.46583157212179127    0.46774337453253484    0.47311500639533516    
  0.4809483456061494    0.4898556524560894    0.4983505702415787    0.5050762946386776    0.5089858457639844    
  0.5095915485659887    0.5072737906412372    0.5033866846645483    0.499878551974567    0.4984790119570337    
  0.47726567154337435    0.47836271354287385    0.4811759732627106    0.48452043076044854    0.48707560743854594    
  0.4879024061551695    0.4866361429726146    0.48339410213158607    0.47863417427538474    0.47311500639533516    
  0.46788042986201134    0.46409777579356665    0.46271454239205057    0.46409777579356665    0.46788042986201134    
  0.47311500639533516    0.4786341742753846    0.4833941021315862    0.4866361429726146    0.4879024061551694    
  0.48707560743854594    0.4845204307604486    0.4811759732627106    0.47836271354287385    0.47726567154337435    
  0.4601632677622266    0.4612459051930751    0.46409772152742185    0.46774333229295506    0.47110157568451033    
  0.473378768124899    0.4741741520534822    0.4733787809040488    0.4711016029654161    0.4677433745325348    
  0.46409777579356665    0.461245966387149    0.46016333105830287    0.461245966387149    0.46409777579356665    
  0.4677433745325347    0.4711016029654162    0.47337878090404895    0.4741741520534822    0.4733787681248989    
  0.47110157568451033    0.46774333229295517    0.46409772152742185    0.4612459051930751    0.4601632677622266    
  0.45379926204293713    0.4549007846621446    0.457829598840588    0.46166324763967764    0.4653819913010547    
  0.46822816414034346    0.4697836364705954    0.46986166629897486    0.468451526154005    0.46583157212179127    
  0.4627145423920504    0.46016333105830287    0.45917567948294447    0.46016333105830287    0.4627145423920504    
  0.46583157212179116    0.468451526154005    0.4698616662989749    0.4697836364705954    0.46822816414034324    
  0.4653819913010547    0.46166324763967775    0.457829598840588    0.4549007846621446    0.45379926204293713    
  0.4601632677622266    0.4612459051930751    0.46409772152742185    0.46774333229295517    0.47110157568451033    
  0.473378768124899    0.4741741520534822    0.4733787809040488    0.4711016029654161    0.4677433745325348    
  0.46409777579356654    0.461245966387149    0.46016333105830287    0.461245966387149    0.46409777579356654    
  0.4677433745325347    0.4711016029654161    0.47337878090404895    0.4741741520534822    0.4733787681248989    
  0.47110157568451033    0.4677433322929553    0.46409772152742185    0.4612459051930751    0.4601632677622266    
  0.47726567154337435    0.47836271354287385    0.4811759732627106    0.48452043076044854    0.48707560743854594    
  0.4879024061551695    0.4866361429726146    0.48339410213158607    0.47863417427538474    0.47311500639533516    
  0.46788042986201134    0.46409777579356665    0.46271454239205057    0.46409777579356665    0.46788042986201134    
  0.47311500639533516    0.47863417427538474    0.4833941021315862    0.4866361429726146    0.4879024061551694    
  0.48707560743854594    0.4845204307604486    0.4811759732627106    0.47836271354287385    0.47726567154337435    
  0.4984790119570337    0.49987855197456715    0.5033866846645482    0.507273790641237    0.5095915485659887    
  0.5089858457639844    0.5050762946386776    0.4983505702415787    0.4898556524560894    0.48094834560614946    
  0.47311500639533494    0.4677433745325348    0.46583157212179116    0.46774337453253484    0.47311500639533494    
  0.4809483456061494    0.4898556524560894    0.4983505702415787    0.5050762946386776    0.5089858457639843    
  0.5095915485659887    0.5072737906412372    0.5033866846645482    0.49987855197456704    0.4984790119570337    
  0.5112533798426941    0.5137190039147976    0.5199831881826363    0.5271537512408773    0.5318660603894948    
  0.5317053896228158    0.5260132329318441    0.5157772068531592    0.5029634982754458    0.4898556524560894    
  0.47863417427538474    0.4711016029654162    0.46845152615400515    0.4711016029654162    0.47863417427538474    
  0.48985565245608936    0.5029634982754458    0.5157772068531593    0.5260132329318441    0.5317053896228155    
  0.5318660603894948    0.5271537512408774    0.5199831881826363    0.5137190039147976    0.5112533798426941    
  0.4983381961283697    0.5031206463557009    0.5156648053253277    0.5312001474697164    0.5438059997881676    
  0.5488087948618696    0.5445307820641214    0.53241388754312    0.5157772068531593    0.4983505702415787    
  0.48339410213158607    0.47337878090404867    0.4698616662989749    0.47337878090404867    0.483394102131586    
  0.49835057024157864    0.5157772068531593    0.5324138875431201    0.5445307820641214    0.5488087948618695    
  0.5438059997881676    0.5312001474697166    0.5156648053253277    0.5031206463557009    0.4983381961283697    
  0.44593710607297726    0.4541987898300783    0.47658862428383847    0.5063686985382272    0.5342497299838431    
  0.5517730103146883    0.5547736259953485    0.5445307820641214    0.5260132329318441    0.5050762946386776    
  0.4866361429726145    0.4741741520534824    0.46978363647059546    0.4741741520534823    0.4866361429726145    
  0.5050762946386775    0.5260132329318441    0.5445307820641215    0.5547736259953485    0.5517730103146882    
  0.5342497299838431    0.5063686985382272    0.47658862428383847    0.4541987898300783    0.44593710607297726    
  0.35643051996832625    0.36820805978652965    0.4012157565227063    0.44810691681587256    0.496874742272275    
  0.5343122615888342    0.5517730103146883    0.5488087948618695    0.5317053896228155    0.5089858457639844    
  0.4879024061551694    0.473378768124899    0.46822816414034346    0.473378768124899    0.4879024061551694    
  0.5089858457639844    0.5317053896228155    0.5488087948618697    0.5517730103146883    0.5343122615888342    
  0.496874742272275    0.4481069168158726    0.4012157565227063    0.36820805978652965    0.35643051996832625    
  0.25216559490124096    0.26590386091676227    0.3058818152805011    0.36668922407764837    0.4361199451118192    
  0.4968747422722749    0.5342497299838431    0.5438059997881675    0.5318660603894947    0.5095915485659884    
  0.4870756074385459    0.47110157568451033    0.4653819913010547    0.47110157568451033    0.4870756074385459    
  0.5095915485659883    0.5318660603894947    0.5438059997881676    0.5342497299838431    0.4968747422722749    
  0.4361199451118192    0.3666892240776485    0.3058818152805011    0.26590386091676227    0.25216559490124096    
  0.16150241489841077    0.1749778355889284    0.21591147503483143    0.28292438811236714    0.3666892240776485    
  0.4481069168158726    0.5063686985382272    0.5312001474697164    0.5271537512408772    0.507273790641237    
  0.4845204307604486    0.4677433322929553    0.46166324763967764    0.4677433322929553    0.4845204307604486    
  0.5072737906412369    0.5271537512408772    0.5312001474697164    0.5063686985382272    0.44810691681587256    
  0.3666892240776485    0.28292438811236725    0.21591147503483152    0.1749778355889284    0.16150241489841077    
  0.10035606364873091    0.11217082052474454    0.14972483134523426    0.21591147503483146    0.3058818152805011    
  0.4012157565227063    0.47658862428383836    0.5156648053253278    0.5199831881826361    0.5033866846645483    
  0.4811759732627105    0.46409772152742185    0.457829598840588    0.46409772152742185    0.4811759732627105    
  0.5033866846645481    0.5199831881826361    0.5156648053253279    0.47658862428383836    0.40121575652270614    
  0.3058818152805011    0.21591147503483152    0.14972483134523426    0.11217082052474454    0.10035606364873091    
  0.0683920026498423    0.07857058348644891    0.11217082052474464    0.17497783558892835    0.2659038609167623    
  0.3682080597865297    0.45419878983007816    0.5031206463557009    0.5137190039147976    0.4998785519745669    
  0.47836271354287374    0.46124590519307523    0.4549007846621446    0.46124590519307523    0.47836271354287374    
  0.49987855197456676    0.5137190039147975    0.503120646355701    0.45419878983007816    0.36820805978652965    
  0.2659038609167623    0.17497783558892835    0.11217082052474464    0.078570583486449    0.0683920026498423    
  0.05885593266744615    0.06839200264984227    0.10035606364873081    0.16150241489841088    0.25216559490124113    
  0.35643051996832625    0.44593710607297715    0.4983381961283696    0.5112533798426941    0.4984790119570337    
  0.47726567154337435    0.4601632677622267    0.4537992620429373    0.4601632677622267    0.47726567154337435    
  0.4984790119570336    0.5112533798426941    0.4983381961283698    0.44593710607297715    0.35643051996832625    
  0.25216559490124113    0.16150241489841094    0.10035606364873081    0.06839200264984233    0.05885593266744615    
  0.08904646198942366    0.10035606364873079    0.13672144731806912    0.2019894055131904    0.2924852978186384    
  0.39024028063142113    0.4691074755761897    0.5113430441444026    0.5176353030062204    0.5018729497649462    
  0.47983898193332575    0.4627144851513111    0.45640898441369404    0.4627144851513111    0.47983898193332575    
  0.5018729497649461    0.5176353030062204    0.5113430441444027    0.4691074755761897    0.39024028063142113    
  0.2924852978186384    0.20198940551319047    0.13672144731806912    0.10035606364873084    0.08904646198942366    
  0.10035606364873079    0.11217082052474457    0.14972483134523426    0.21591147503483146    0.3058818152805011    
  0.40121575652270636    0.47658862428383836    0.5156648053253278    0.5199831881826362    0.5033866846645481    