#     DFTpy    
  CRYSTAL 
    
  PRIMVEC    
  4.262068965517241    0.0    0.0    
  0.0    4.262068965517241    0.0    
  0.0    0.0    4.262068965517241    
  PRIMCOORD    
  2    1    
  Si    0.0    0.0    0.0    
  Si    2.1310344827586203    2.1310344827586203    2.1310344827586203    
  BEGIN_BLOCK_DATAGRID_3D    
  3d_datagrid_density    
  BEGIN_DATAGRID_3D#0    
  41    41    41    
  0.0    0.0    0.0    
  4.262068981414839    0.0    0.0    
  0.0    4.262068981414839    0.0    
  0.0    0.0    4.262068981414839    
  0.06204348466715617    0.07100509670993141    0.10043249147147548    0.15438163344966138    0.2287109807254314    
  0.30367439617431646    0.3519396669502531    0.3580008648800796    0.3273173609668024    0.2772193876899153    
  0.2235840383808523    0.1753661198848831    0.13582678618904007    0.10513666119209536    0.08212390734020548    
  0.06526663354767852    0.053206204319524456    0.04488623006868807    0.039511339918696736    0.03651255619570597    
  0.03555012239419106    0.036512556195706015    0.039511339918696764    0.04488623006868806    0.053206204319524456    
  0.06526663354767849    0.08212390734020554    0.10513666119209533    0.13582678618904007    0.1753661198848831    
  0.2235840383808523    0.2772193876899153    0.3273173609668024    0.3580008648800795    0.35193966695025314    
  0.3036743961743164    0.2287109807254314    0.1543816334496614    0.10043249147147554    0.07100509670993137    
  0.06204348466715617    0.07100509670993145    0.08043224658846017    0.11090582966811313    0.16542078452092726    
  0.2385309134708955    0.31015658381113087    0.3542184175903186    0.3569667638476083    0.32466253644184484    
  0.2743101854002106    0.2210934533224122    0.17346943704925055    0.13447324868986332    0.1042073595305378    
  0.0814999237494674    0.06485382751315152    0.0529374290196739    0.04471362823363423    0.03939895588416504    
  0.036432525678867345    0.03548017196411752    0.03643252567886738    0.03939895588416505    0.04471362823363423    
  0.0529374290196739    0.0648538275131515    0.08149992374946745    0.10420735953053778    0.13447324868986335    
  0.17346943704925055    0.2210934533224122    0.2743101854002107    0.32466253644184484    0.3569667638476082    
  0.35421841759031863    0.31015658381113087    0.2385309134708955    0.16542078452092723    0.11090582966811319    
  0.08043224658846011    0.07100509670993145    0.10043249147147552    0.1109058296681132    0.14344213117857943    
  0.1980405492934281    0.26604207759004705    0.32715561047391284    0.3591435584146701    0.3528929946720892    
  0.31645225614661204    0.2656791410698073    0.21380244866202242    0.16793806460190078    0.1305251998495006    
  0.10149161702336665    0.07967237279931794    0.06364309013077066    0.05214908789110951    0.04420795898494216    
  0.03907042631410551    0.03619924506876355    0.035276592810784164    0.03619924506876361    0.039070426314105546    
  0.04420795898494216    0.05214908789110951    0.0636430901307706    0.07967237279931796    0.1014916170233666    
  0.13052519984950062    0.16793806460190075    0.21380244866202242    0.26567914106980733    0.31645225614661204    
  0.3528929946720891    0.3591435584146701    0.3271556104739128    0.26604207759004705    0.19804054929342815    
  0.14344213117857946    0.1109058296681132    0.10043249147147552    0.15438163344966135    0.1654207845209272    
  0.19804054929342804    0.2482929492989591    0.3043790089890726    0.3475459996965528    0.36167836204015347    
  0.3434207504201299    0.3021999548020971    0.2516680137827869    0.20223352589259813    0.1592206139593796    
  0.12430344230499155    0.0971996505718932    0.07677451289765615    0.061719860815839626    0.05089752469619713    
  0.04340721006932319    0.03855242052209113    0.0358334618354037    0.03495835361615812    0.03583346183540375    
  0.038552420522091166    0.04340721006932316    0.05089752469619713    0.06171986081583961    0.07677451289765617    
  0.09719965057189316    0.12430344230499155    0.1592206139593796    0.20223352589259813    0.2516680137827869    
  0.3021999548020971    0.3434207504201299    0.36167836204015347    0.3475459996965528    0.3043790089890726    
  0.2482929492989591    0.1980405492934281    0.1654207845209272    0.15438163344966135    0.2287109807254314    
  0.2385309134708955    0.266042077590047    0.30437900898907266    0.34097551322952574    0.36116124056738974    
  0.3557941628851249    0.3262331116282015    0.28177257453985166    0.2329782408443085    0.18720065873149824    
  0.14798701914648688    0.11629091876936197    0.09165745811433974    0.07302138658786239    0.05922697899125742    
  0.049278683151394866    0.04237616861969684    0.03789005679010708    0.035369899306282024    0.03455703408088248    
  0.035369899306282086    0.03789005679010711    0.04237616861969681    0.049278683151394866    0.05922697899125739    
  0.0730213865878624    0.09165745811433969    0.116290918769362    0.14798701914648685    0.18720065873149822    
  0.23297824084430854    0.28177257453985166    0.32623311162820146    0.355794162885125    0.3611612405673897    
  0.34097551322952574    0.30437900898907266    0.26604207759004705    0.2385309134708955    0.2287109807254314    
  0.3036743961743165    0.31015658381113087    0.32715561047391273    0.3475459996965528    0.3611612405673897    
  0.3589173881576123    0.3374899140948118    0.30060770309863627    0.2559295701405871    0.21074366165837033    
  0.1697395485840927    0.1350435701340047    0.10706717001752318    0.08526398972669716    0.06868388746971058    
  0.05634886883704603    0.047418033220761706    0.04120005712150957    0.037143107718832676    0.03485496352519018    
  0.03411501078393976    0.034854963525190234    0.03714310771883269    0.04120005712150956    0.047418033220761706    
  0.05634886883704602    0.0686838874697106    0.08526398972669713    0.10706717001752321    0.1350435701340047    
  0.1697395485840927    0.21074366165837036    0.2559295701405871    0.30060770309863627    0.3374899140948118    
  0.35891738815761237    0.3611612405673897    0.3475459996965528    0.32715561047391273    0.31015658381113076    
  0.3036743961743165    0.35193966695025314    0.3542184175903186    0.35914355841467005    0.36167836204015347    
  0.35579416288512494    0.3374899140948118    0.30693162221324655    0.2680977412648933    0.22641707911756925    
  0.18646109869748861    0.15101214690924097    0.12124405763933722    0.09723445008706579    0.07843404649171207    
  0.06404621080188765    0.053280297686518    0.04544840655972448    0.03996981257191677    0.03637675553904864    
  0.03434067479542581    0.03368039373974153    0.03434067479542588    0.03637675553904865    0.03996981257191675    
  0.04544840655972448    0.053280297686517965    0.06404621080188767    0.07843404649171201    0.09723445008706579    
  0.1212440576393372    0.151012146909241    0.18646109869748861    0.22641707911756925    0.2680977412648933    
  0.30693162221324655    0.3374899140948118    0.35579416288512494    0.36167836204015347    0.3591435584146701    
  0.3542184175903185    0.35193966695025314    0.35800086488007954    0.3569667638476082    0.3528929946720891    
  0.3434207504201299    0.3262331116282015    0.3006077030986363    0.2680977412648933    0.23190648889153465    
  0.19554601412292413    0.1617635789051727    0.13217531107351382    0.10739866505715198    0.08734948131987881    
  0.07154665087008737    0.05936622988674742    0.050195889375204174    0.04348734452968703    0.03876603654312894    
  0.035650242826842364    0.03387588462213383    0.033299015731941814    0.033875884622133874    0.035650242826842364    
  0.038766036543128914    0.04348734452968703    0.05019588937520414    0.05936622988674745    0.07154665087008734    
  0.0873494813198788    0.10739866505715195    0.13217531107351382    0.16176357890517273    0.19554601412292413    
  0.23190648889153465    0.2680977412648933    0.3006077030986363    0.3262331116282015    0.3434207504201299    
  0.3528929946720892    0.3569667638476082    0.35800086488007954    0.32731736096680236    0.32466253644184484    
  0.316452256146612    0.30219995480209716    0.2817725745398516    0.2559295701405871    0.22641707911756917    
  0.19554601412292413    0.16555406811493656    0.1381267047850787    0.11423044745951484    0.09418910264820785    
  0.07787493041408602    0.0649164243658422    0.05485657742011789    0.0472362437424152    0.04162648108874456    
  0.037650399871336504    0.035009075919087626    0.03349850376484357    0.033006567962511606    0.03349850376484362    
  0.03500907591908761    0.0376503998713365    0.04162648108874456    0.04723624374241516    0.05485657742011791    
  0.06491642436584218    0.07787493041408604    0.09418910264820783    0.11423044745951484    0.13812670478507877    
  0.16555406811493656    0.1955460141229241    0.22641707911756917    0.2559295701405871    0.28177257453985155    
  0.30219995480209716    0.31645225614661193    0.32466253644184484    0.32731736096680236    0.2772193876899153    
  0.2743101854002107    0.2656791410698073    0.25166801378278697    0.2329782408443085    0.21074366165837038    
  0.18646109869748861    0.16176357890517273    0.13812670478507877    0.11663695163600386    0.09790299078630009    
  0.08211011753034361    0.06915582250557048    0.05878624062999809    0.050683776437112686    0.044509779102358114    
  0.03993404671451123    0.036666960913360684    0.034484106884297205    0.03323259026795167    0.032824914514248724    
  0.03323259026795171    0.034484106884297205    0.03666696091336073    0.03993404671451123    0.0445097791023581    
  0.050683776437112714    0.05878624062999806    0.06915582250557048    0.08211011753034364    0.09790299078630009    
  0.11663695163600389    0.13812670478507877    0.1617635789051727    0.18646109869748861    0.21074366165837038    
  0.23297824084430854    0.2516680137827869    0.26567914106980733    0.2743101854002107    0.2772193876899153    
  0.22358403838085228    0.2210934533224122    0.21380244866202242    0.20223352589259813    0.1872006587314982    
  0.16973954858409274    0.15101214690924095    0.13217531107351382    0.11423044745951486    0.09790299078630008    
  0.08360012185556748    0.07145484192025504    0.06141556380285333    0.05332566580406296    0.04696879572396384    
  0.0420965125999522    0.038460749333864744    0.03584780962107463    0.03409553074440023    0.033090814530426824    
  0.03276398344267311    0.03309081453042684    0.03409553074440024    0.03584780962107463    0.038460749333864744    
  0.04209651259995219    0.04696879572396387    0.053325665804062956    0.061415563802853346    0.07145484192025504    
  0.08360012185556749    0.09790299078630009    0.11423044745951486    0.1321753110735138    0.15101214690924097    
  0.16973954858409274    0.1872006587314982    0.20223352589259813    0.21380244866202242    0.2210934533224122    
  0.22358403838085228    0.1753661198848831    0.17346943704925052    0.16793806460190078    0.1592206139593796    
  0.14798701914648688    0.13504357013400467    0.1212440576393372    0.10739866505715195    0.09418910264820783    
  0.0821101175303436    0.07145484192025503    0.062342229467232814    0.05476421631957605    0.048627285906511365    
  0.04378110230455208    0.04004505459756465    0.037240037967112824    0.03521522092384394    0.03385614081942479    
  0.0330786021435692    0.03282630691911488    0.03307860214356923    0.03385614081942479    0.03521522092384397    
  0.037240037967112824    0.0400450545975646    0.04378110230455209    0.04862728590651138    0.05476421631957605    
  0.062342229467232814    0.07145484192025502    0.08211011753034363    0.09418910264820783    0.10739866505715193    
  0.12124405763933722    0.1350435701340047    0.14798701914648688    0.1592206139593796    0.16793806460190075    
  0.17346943704925052    0.1753661198848831    0.13582678618904007    0.1344732486898633    0.1305251998495006    
  0.12430344230499162    0.11629091876936201    0.10706717001752315    0.09723445008706579    0.08734948131987881    
  0.07787493041408602    0.06915582250557048    0.06141556380285331    0.05476421631957605    0.049215223729112904    
  0.044708207137592604    0.041135183857151786    0.038368032511034794    0.03628337417213997    0.03477780799402885    
  0.033769770683558346    0.03319524248442944    0.033009325650276734    0.03319524248442941    0.033769770683558346    
  0.03477780799402888    0.03628337417213997    0.03836803251103477    0.041135183857151814    0.04470820713759262    
  0.04921522372911289    0.05476421631957605    0.06141556380285333    0.0691558225055705    0.07787493041408602    
  0.08734948131987877    0.0972344500870658    0.10706717001752315    0.11629091876936204    0.1243034423049916    
  0.13052519984950062    0.1344732486898633    0.13582678618904007    0.10513666119209535    0.10420735953053781    
  0.10149161702336662    0.09719965057189323    0.09165745811433974    0.08526398972669713    0.07843404649171203    
  0.07154665087008737    0.06491642436584223    0.05878624062999808    0.05332566580406298    0.048627285906511414    
  0.044708207137592645    0.04152523726711031    0.03900043201328259    0.03704567684582769    0.03557808709967738    
  0.03452552268897816    0.033826553953725864    0.03343075075963893    0.03330308439526127    0.03343075075963897    
  0.033826553953725864    0.03452552268897816    0.03557808709967738    0.037045676845827664    0.039000432013282606    
  0.04152523726711031    0.044708207137592666    0.04862728590651141    0.05332566580406299    0.05878624062999809    
  0.06491642436584223    0.07154665087008735    0.07843404649171203    0.08526398972669713    0.09165745811433974    
  0.09719965057189324    0.1014916170233666    0.10420735953053781    0.10513666119209535    0.08212390734020548    
  0.08149992374946742    0.07967237279931795    0.0767745128976562    0.07302138658786239    0.0686838874697106    
  0.06404621080188763    0.05936622988674743    0.054856577420117895    0.050683776437112686    0.04696879572396382    
  0.04378110230455208    0.0411351838571518    0.03900043201328258    0.03732179856642139    0.03603855631052568    
  0.03509279761966139    0.03443023012473989    0.03400066435531628    0.03376193550046248    0.03368569058490739    
  0.03376193550046248    0.03400066435531626    0.03443023012473994    0.03509279761966139    0.03603855631052563    
  0.03732179856642144    0.03900043201328256    0.041135183857151834    0.0437811023045521    0.04696879572396383    
  0.05068377643711271    0.054856577420117895    0.05936622988674743    0.06404621080188765    0.06868388746971059    
  0.07302138658786239    0.07677451289765617    0.07967237279931795    0.0814999237494674    0.08212390734020548    
  0.0652666335476785    0.06485382751315147    0.06364309013077066    0.06171986081583964    0.05922697899125739    
  0.05634886883704604    0.053280297686518    0.05019588937520417    0.04723624374241518    0.04450977910235807    
  0.042096512599952195    0.040045054597564675    0.03836803251103481    0.03704567684582769    0.03603855631052563    
  0.035300979172153885    0.03478745296113864    0.03445307014409722    0.03425407319897028    0.03415225952570159    
  0.034121422045045015    0.03415225952570161    0.03425407319897026    0.03445307014409722    0.03478745296113864    
  0.035300979172153815    0.03603855631052563    0.037045676845827664    0.03836803251103483    0.04004505459756466    
  0.04209651259995219    0.04450977910235808    0.04723624374241518    0.05019588937520413    0.05328029768651801    
  0.05634886883704604    0.05922697899125739    0.0617198608158396    0.06364309013077063    0.06485382751315147    
  0.0652666335476785    0.053206204319524476    0.052937429019673896    0.052149087891109475    0.05089752469619715    
  0.04927868315139483    0.04741803322076169    0.04544840655972445    0.043487344529687035    0.041626481088744546    
  0.039934046714511194    0.0384607493338647    0.037240037967112824    0.03628337417213998    0.03557808709967736    
  0.035092797619661366    0.03478745296113866    0.03462094313530893    0.03455303052585021    0.03454391980319609    
  0.03455676493076266    0.03456441350093199    0.03455676493076266    0.03454391980319611    0.03455303052585023    
  0.03462094313530893    0.03478745296113861    0.035092797619661366    0.03557808709967731    0.03628337417213996    
  0.037240037967112824    0.03846074933386472    0.03993404671451123    0.041626481088744546    0.043487344529687    
  0.04544840655972446    0.047418033220761685    0.049278683151394796    0.05089752469619714    0.05214908789110947    
  0.052937429019673896    0.053206204319524476    0.044886230068688096    0.044713628233634214    0.04420795898494215    
  0.04340721006932314    0.04237616861969683    0.04120005712150954    0.039969812571916744    0.03876603654312893    
  0.0376503998713365    0.0366669609133607    0.03584780962107463    0.035215220923843944    0.03477780799402885    
  0.03452552268897821    0.03443023012473989    0.03445307014409722    0.03455303052585023    0.0346907874353191    
  0.03482820914905424    0.03492931036818113    0.034966523888784205    0.03492931036818118    0.03482820914905427    
  0.03469078743531907    0.03455303052585023    0.034453070144097195    0.03443023012473987    0.03452552268897821    
  0.03477780799402885    0.035215220923843944    0.03584780962107463    0.03666696091336071    0.0376503998713365    
  0.0387660365431289    0.03996981257191674    0.04120005712150954    0.04237616861969685    0.04340721006932316    
  0.044207958984942126    0.04471362823363426    0.044886230068688096    0.039511339918696764    0.039398955884165    
  0.03907042631410553    0.03855242052209113    0.03789005679010711    0.03714310771883266    0.036376755539048636    
  0.03565024282684235    0.035009075919087605    0.034484106884297164    0.03409553074440018    0.03385614081942478    
  0.033769770683558326    0.033826553953725816    0.03400066435531624    0.03425407319897028    0.034543919803196065    
  0.03482820914905424    0.03506791443036769    0.03522864847158705    0.03528534978090964    0.03522864847158702    
  0.03506791443036767    0.03482820914905422    0.034543919803196065    0.03425407319897026    0.034000664355316214    
  0.033826553953725816    0.033769770683558326    0.03385614081942478    0.03409553074440019    0.03448410688429717    
  0.035009075919087605    0.03565024282684235    0.03637675553904864    0.03714310771883265    0.03789005679010711    
  0.03855242052209113    0.0390704263141055    0.039398955884165004    0.039511339918696764    0.036512556195705995    
  0.03643252567886737    0.036199245068763625    0.03583346183540373    0.0353698993062821    0.0348549635251902    
  0.03434067479542584    0.03387588462213386    0.03349850376484363    0.03323259026795172    0.03309081453042685    
  0.033078602143569245    0.03319524248442946    0.03343075075963895    0.03376193550046248    0.03415225952570164    
  0.03455676493076268    0.03492931036818122    0.03522864847158705    0.0354223034007187    0.03548929035303994    
  0.035422303400718766    0.035228648471587    0.03492931036818122    0.03455676493076268    0.03415225952570157    
  0.033761935500462505    0.03343075075963893    0.03319524248442944    0.033078602143569245    0.033090814530426824    
  0.03323259026795171    0.03349850376484363    0.03387588462213385    0.03434067479542586    0.03485496352519018    
  0.03536989930628211    0.03583346183540372    0.0361992450687636    0.03643252567886736    0.036512556195705995    
  0.03555012239419105    0.03548017196411755    0.03527659281078416    0.03495835361615812    0.03455703408088253    
  0.03411501078393972    0.03368039373974149    0.033299015731941765    0.033006567962511606    0.03282491451424869    
  0.03276398344267307    0.032826306919114895    0.033009325650276734    0.03330308439526116    0.03368569058490734    
  0.03412142204504504    0.03456441350093202    0.03496652388878416    0.035285349780909595    0.03548929035303987    
  0.035559362921873776    0.03548929035303989    0.035285349780909615    0.034966523888784136    0.03456441350093202    
  0.034121422045044966    0.03368569058490737    0.03330308439526118    0.03300932565027678    0.032826306919114874    
  0.03276398344267307    0.03282491451424869    0.033006567962511606    0.033299015731941765    0.03368039373974149    
  0.03411501078393971    0.03455703408088256    0.03495835361615812    0.03527659281078414    0.035480171964117534    
  0.03555012239419105    0.03651255619570601    0.036432525678867365    0.03619924506876363    0.03583346183540374    
  0.0353698993062821    0.03485496352519018    0.03434067479542586    0.033875884622133874    0.03349850376484361    
  0.03323259026795172    0.03309081453042684    0.033078602143569245    0.03319524248442946    0.03343075075963895    
  0.033761935500462456    0.03415225952570161    0.03455676493076273    0.0349293103681812    0.03522864847158707    
  0.0354223034007187    0.035489290353039916    0.03542230340071874    0.03522864847158702    0.03492931036818122    
  0.03455676493076273    0.03415225952570157    0.033761935500462456    0.0334307507596389    0.03319524248442949    
  0.033078602143569225    0.03309081453042684    0.03323259026795172    0.03349850376484361    0.03387588462213386    
  0.03434067479542585    0.03485496352519019    0.03536989930628211    0.035833461835403736    0.03619924506876361    
  0.03643252567886738    0.03651255619570601    0.039511339918696764    0.03939895588416499    0.03907042631410554    
  0.03855242052209114    0.03789005679010709    0.03714310771883265    0.03637675553904863    0.03565024282684235    
  0.035009075919087605    0.03448410688429718    0.03409553074440017    0.03385614081942478    0.033769770683558326    
  0.033826553953725816    0.03400066435531624    0.03425407319897026    0.034543919803196044    0.03482820914905429    
  0.03506791443036769    0.03522864847158702    0.035285349780909664    0.03522864847158707    0.03506791443036762    
  0.03482820914905424    0.034543919803196044    0.03425407319897023    0.03400066435531626    0.033826553953725816    
  0.033769770683558374    0.03385614081942478    0.03409553074440018    0.03448410688429717    0.035009075919087605    
  0.035650242826842336    0.03637675553904864    0.03714310771883264    0.03789005679010711    0.03855242052209113    
  0.039070426314105525    0.03939895588416503    0.039511339918696764    0.04488623006868813    0.044713628233634235    
  0.04420795898494217    0.04340721006932316    0.04237616861969686    0.04120005712150955    0.039969812571916744    
  0.03876603654312893    0.03765039987133649    0.03666696091336071    0.03584780962107462    0.035215220923843944    
  0.03477780799402888    0.03452552268897823    0.03443023012473991    0.034453070144097264    0.03455303052585023    
  0.03469078743531907    0.03482820914905417    0.03492931036818118    0.034966523888784205    0.0349293103681812    
  0.03482820914905424    0.03469078743531907    0.03455303052585023    0.034453070144097195    0.03443023012473991    
  0.03452552268897818    0.03477780799402888    0.035215220923843944    0.035847809621074644    0.03666696091336072    
  0.03765039987133649    0.03876603654312891    0.03996981257191676    0.04120005712150954    0.042376168619696855    
  0.04340721006932315    0.04420795898494215    0.044713628233634256    0.04488623006868813    0.053206204319524476    
  0.052937429019673896    0.052149087891109475    0.05089752469619715    0.04927868315139483    0.04741803322076169    
  0.04544840655972445    0.043487344529687035    0.041626481088744546    0.039934046714511194    0.0384607493338647    
  0.037240037967112824    0.03628337417213998    0.03557808709967736    0.035092797619661366    0.03478745296113866    
  0.03462094313530893    0.03455303052585021    0.03454391980319609    0.03455676493076266    0.03456441350093199    
  0.03455676493076266    0.03454391980319611    0.03455303052585023    0.03462094313530893    0.03478745296113861    
  0.035092797619661366    0.03557808709967731    0.03628337417213996    0.037240037967112824    0.03846074933386472    
  0.03993404671451123    0.041626481088744546    0.043487344529687    0.04544840655972446    0.047418033220761685    
  0.049278683151394796    0.05089752469619714    0.05214908789110947    0.052937429019673896    0.053206204319524476    
  0.06526663354767848    0.06485382751315143    0.06364309013077063    0.06171986081583958    0.059226978991257374    
  0.05634886883704603    0.053280297686518    0.05019588937520416    0.047236243742415154    0.044509779102358066    
  0.042096512599952195    0.04004505459756465    0.03836803251103481    0.037045676845827664    0.036038556310525584    
  0.035300979172153836    0.03478745296113861    0.03445307014409722    0.03425407319897021    0.03415225952570159    
  0.034121422045044994    0.03415225952570161    0.03425407319897026    0.03445307014409722    0.03478745296113861    
  0.035300979172153794    0.03603855631052563    0.037045676845827664    0.03836803251103481    0.04004505459756463    
  0.04209651259995219    0.04450977910235809    0.047236243742415154    0.05019588937520414    0.053280297686517986    
  0.05634886883704603    0.05922697899125739    0.0617198608158396    0.0636430901307706    0.06485382751315147    
  0.06526663354767848    0.0821239073402055    0.08149992374946739    0.07967237279931791    0.07677451289765619    
  0.0730213865878624    0.06868388746971058    0.06404621080188762    0.05936622988674744    0.054856577420117895    
  0.05068377643711267    0.04696879572396379    0.04378110230455208    0.041135183857151814    0.039000432013282564    
  0.03732179856642141    0.03603855631052568    0.035092797619661414    0.03443023012473991    0.034000664355316214    
  0.03376193550046248    0.03368569058490741    0.033761935500462456    0.03400066435531628    0.03443023012473991    
  0.035092797619661414    0.03603855631052565    0.037321798566421406    0.03900043201328256    0.041135183857151834    
  0.04378110230455209    0.0469687957239638    0.05068377643711268    0.054856577420117895    0.05936622988674743    
  0.06404621080188763    0.06868388746971058    0.0730213865878624    0.07677451289765617    0.07967237279931791    
  0.08149992374946738    0.0821239073402055    0.10513666119209535    0.1042073595305378    0.10149161702336662    
  0.09719965057189323    0.09165745811433976    0.08526398972669716    0.07843404649171201    0.07154665087008737    
  0.06491642436584223    0.05878624062999809    0.05332566580406299    0.048627285906511386    0.044708207137592666    
  0.041525237267110326    0.039000432013282564    0.03704567684582771    0.03557808709967738    0.03452552268897821    
  0.033826553953725816    0.03343075075963893    0.03330308439526123    0.03343075075963893    0.033826553953725864    
  0.03452552268897823    0.03557808709967738    0.037045676845827644    0.039000432013282606    0.04152523726711031    
  0.044708207137592666    0.0486272859065114    0.05332566580406298    0.05878624062999809    0.06491642436584223    
  0.07154665087008735    0.07843404649171204    0.08526398972669713    0.09165745811433974    0.09719965057189323    
  0.10149161702336662    0.10420735953053778    0.10513666119209535    0.13582678618904007    0.13447324868986335    
  0.13052519984950056    0.12430344230499155    0.11629091876936201    0.10706717001752315    0.09723445008706576    
  0.08734948131987881    0.07787493041408604    0.06915582250557045    0.06141556380285331    0.05476421631957605    
  0.049215223729112904    0.0447082071375926    0.041135183857151765    0.038368032511034815    0.03628337417213995    
  0.03477780799402888    0.033769770683558305    0.03319524248442944    0.033009325650276734    0.03319524248442946    
  0.033769770683558305    0.03477780799402885    0.03628337417213995    0.03836803251103477    0.041135183857151786    
  0.04470820713759258    0.04921522372911292    0.05476421631957603    0.06141556380285332    0.06915582250557047    
  0.07787493041408604    0.08734948131987877    0.09723445008706574    0.10706717001752315    0.11629091876936201    
  0.12430344230499155    0.13052519984950056    0.1344732486898633    0.13582678618904007    0.1753661198848831    
  0.17346943704925052    0.16793806460190078    0.15922061395937961    0.14798701914648685    0.1350435701340047    
  0.1212440576393372    0.10739866505715195    0.09418910264820785    0.08211011753034361    0.07145484192025503    
  0.06234222946723285    0.054764216319576085    0.04862728590651138    0.04378110230455209    0.04004505459756465    
  0.037240037967112845    0.035215220923843944    0.03385614081942478    0.0330786021435692    0.032826306919114916    
  0.033078602143569225    0.03385614081942478    0.03521522092384394    0.037240037967112845    0.040045054597564626    
  0.04378110230455209    0.04862728590651134    0.05476421631957605    0.06234222946723282    0.07145484192025503    
  0.08211011753034364    0.09418910264820785    0.10739866505715195    0.1212440576393372    0.1350435701340047    
  0.14798701914648685    0.1592206139593796    0.16793806460190078    0.17346943704925052    0.1753661198848831    
  0.22358403838085228    0.22109345332241218    0.21380244866202242    0.20223352589259813    0.18720065873149822    
  0.1697395485840927    0.15101214690924097    0.13217531107351382    0.11423044745951486    0.09790299078630005    
  0.08360012185556746    0.07145484192025503    0.06141556380285332    0.05332566580406299    0.04696879572396384    