#     DFTpy    
  CRYSTAL 
    
  PRIMVEC    
  2.983448275862071    0.0    0.0    
  0.0    2.983448275862071    0.0    
  0.0    0.0    2.983448275862071    
  PRIMCOORD    
  2    1    
  Si    0.0    0.0    0.0    
  Si    1.4917241379310302    1.4917241379310302    1.4917241379310302    
  BEGIN_BLOCK_DATAGRID_3D    
  3d_datagrid_density    
  BEGIN_DATAGRID_3D#0    
  28    28    28    
  0.0    0.0    0.0    
  2.9834482869903898    0.0    0.0    
  0.0    2.9834482869903898    0.0    
  0.0    0.0    2.9834482869903898    
  0.053628882535660595    0.06284428783499114    0.09380959554788952    0.15233106995095916    0.23505404136431537    
  0.3203742781849874    0.3780472914560065    0.3917517609453173    0.3683878919578421    0.32681252966646973    
  0.28353725333004726    0.24779014467293542    0.22329329612303497    0.21102514941351275    0.21102514941351275    
  0.22329329612303503    0.24779014467293542    0.28353725333004726    0.32681252966646973    0.3683878919578421    
  0.3917517609453173    0.3780472914560065    0.32037427818498737    0.23505404136431532    0.15233106995095913    
  0.09380959554788945    0.06284428783499114    0.053628882535660595    0.0628442878349911    0.07268333330100736    
  0.10513058400995376    0.16475656395365404    0.2466202563160119    0.3286696545545901    0.38208610337653065    
  0.392487163733167    0.36755324064845146    0.3257071336232011    0.2827257751070445    0.24736770774060216    
  0.22316805658511787    0.21105359392581421    0.21105359392581427    0.22316805658511793    0.24736770774060216    
  0.2827257751070445    0.3257071336232011    0.36755324064845146    0.39248716373316705    0.38208610337653065    
  0.3286696545545901    0.2466202563160119    0.16475656395365398    0.10513058400995369    0.07268333330100736    
  0.0628442878349911    0.09380959554788945    0.10513058400995383    0.14078618116523095    0.20179793873910945    
  0.2793004902454208    0.3508695370853093    0.39205205038252766    0.39352301884648966    0.3646185051459385    
  0.3223082108443032    0.2803138807013681    0.24613503848768523    0.22281655009338094    0.2111540985735227    
  0.2111540985735227    0.22281655009338094    0.24613503848768523    0.2803138807013681    0.3223082108443032    
  0.3646185051459385    0.39352301884648966    0.39205205038252766    0.3508695370853094    0.27930049024542075    
  0.2017979387391095    0.1407861811652309    0.10513058400995381    0.09380959554788945    0.15233106995095916    
  0.16475656395365407    0.20179793873910962    0.25970244795590536    0.3257229438821215    0.3790956143127585    
  0.4022423056871807    0.39193870496928784    0.3585529016200315    0.3164229933329403    0.2763499771686049    
  0.24416469322275355    0.2222854212588981    0.21135157438675206    0.21135157438675212    0.22228542125889814    
  0.24416469322275355    0.2763499771686049    0.3164229933329404    0.3585529016200315    0.39193870496928784    
  0.40224230568718083    0.3790956143127585    0.3257229438821214    0.25970244795590536    0.20179793873910956    
  0.16475656395365407    0.15233106995095916    0.23505404136431532    0.24662025631601192    0.2793004902454208    
  0.32572294388212136    0.3720411180590514    0.40202896674174227    0.4057175910579121    0.38459381118661307    
  0.3483726888140786    0.30790653927329314    0.2708919373288374    0.24151317041116593    0.2215911440918116    
  0.21163390411203187    0.21163390411203187    0.2215911440918116    0.24151317041116593    0.2708919373288374    
  0.3079065392732931    0.3483726888140786    0.38459381118661307    0.4057175910579121    0.40202896674174227    
  0.3720411180590513    0.32572294388212136    0.2793004902454207    0.24662025631601198    0.23505404136431532    
  0.32037427818498737    0.32866965455459013    0.35086953708530944    0.3790956143127584    0.40202896674174227    
  0.4094994910249851    0.39758395768709287    0.3698239667595412    0.33380911937211843    0.2968699557062334    
  0.26405435230146435    0.2382143480117141    0.22069319608695873    0.21191823694090609    0.21191823694090609    
  0.22069319608695873    0.23821434801171404    0.26405435230146435    0.2968699557062334    0.3338091193721185    
  0.3698239667595412    0.3975839576870929    0.4094994910249851    0.4020289667417422    0.3790956143127584    
  0.3508695370853094    0.32866965455459013    0.32037427818498737    0.3780472914560064    0.3820861033765307    
  0.3920520503825277    0.40224230568718067    0.4057175910579121    0.39758395768709287    0.37728967323715706    
  0.3482700269633244    0.3156026030407302    0.28382523056632597    0.25609988083691015    0.23433354023111672    
  0.21952319386792965    0.2120693059027398    0.2120693059027398    0.21952319386792965    0.23433354023111683    
  0.25609988083691015    0.28382523056632597    0.3156026030407302    0.3482700269633244    0.3772896732371571    
  0.39758395768709287    0.4057175910579121    0.4022423056871807    0.39205205038252766    0.38208610337653076    
  0.3780472914560064    0.3917517609453172    0.39248716373316705    0.3935230188464897    0.3919387049692878    
  0.3845938111866131    0.3698239667595412    0.3482700269633243    0.3223965530195147    0.2952875409625962    
  0.26965826726763115    0.24747936975121904    0.2300240340097954    0.21804982338131898    0.21197093855094795    
  0.21197093855094795    0.21804982338131898    0.2300240340097954    0.2474793697512191    0.26965826726763115    
  0.2952875409625962    0.3223965530195147    0.3482700269633244    0.3698239667595412    0.38459381118661307    
  0.3919387049692878    0.39352301884648966    0.39248716373316705    0.3917517609453172    0.3683878919578421    
  0.36755324064845163    0.36461850514593863    0.3585529016200315    0.34837268881407873    0.33380911937211843    
  0.3156026030407301    0.29528754096259624    0.27468307443326545    0.2554285838963119    0.23876033247506245    
  0.2255280725864272    0.21632890532527768    0.2116014701689845    0.21160147016898456    0.21632890532527768    
  0.2255280725864272    0.23876033247506245    0.2554285838963119    0.27468307443326545    0.29528754096259624    
  0.3156026030407302    0.33380911937211843    0.3483726888140786    0.35855290162003156    0.3646185051459385    
  0.3675532406484516    0.3683878919578421    0.32681252966646973    0.32570713362320114    0.32230821084430333    
  0.3164229933329403    0.3079065392732932    0.29686995570623337    0.28382523056632597    0.26965826726763126    
  0.2554285838963119    0.24211969934370037    0.2304961807052243    0.22112921200872462    0.21450385758034868    
  0.21105209346049897    0.21105209346049897    0.21450385758034868    0.22112921200872457    0.2304961807052243    
  0.24211969934370037    0.2554285838963119    0.26965826726763126    0.283825230566326    0.29686995570623337    
  0.30790653927329314    0.3164229933329403    0.3223082108443033    0.3257071336232012    0.32681252966646973    
  0.2835372533300471    0.2827257751070445    0.2803138807013681    0.27634997716860477    0.2708919373288374    
  0.2640543523014643    0.2560998808369101    0.24747936975121898    0.23876033247506243    0.2304961807052242    
  0.22314820006591604    0.21710938355232584    0.2127635707161298    0.21047326887739418    0.21047326887739415    
  0.21276357071612975    0.21710938355232584    0.22314820006591607    0.2304961807052242    0.23876033247506243    
  0.24747936975121898    0.25609988083691015    0.2640543523014643    0.2708919373288373    0.27634997716860477    
  0.280313880701368    0.2827257751070445    0.2835372533300471    0.24779014467293548    0.24736770774060224    
  0.24613503848768523    0.2441646932227535    0.24151317041116602    0.23821434801171415    0.23433354023111677    
  0.23002403400979538    0.22552807258642718    0.22112921200872449    0.21710938355232595    0.21374112435069167    
  0.21129118182112797    0.20999450250899368    0.20999450250899368    0.21129118182112797    0.21374112435069167    
  0.21710938355232595    0.22112921200872449    0.2255280725864272    0.23002403400979538    0.23433354023111677    
  0.2382143480117141    0.24151317041116596    0.2441646932227535    0.2461350384876852    0.2473677077406022    
  0.24779014467293548    0.22329329612303497    0.22316805658511787    0.22281655009338103    0.22228542125889805    
  0.2215911440918116    0.2206931960869588    0.21952319386792957    0.21804982338131895    0.21632890532527765    
  0.21450385758034868    0.21276357071612986    0.21129118182112805    0.21023098218756323    0.20967776338334843    
  0.20967776338334843    0.2102309821875632    0.21129118182112805    0.2127635707161298    0.21450385758034868    
  0.21632890532527768    0.21804982338131895    0.21952319386792965    0.2206931960869588    0.2215911440918116    
  0.22228542125889805    0.222816550093381    0.22316805658511793    0.22329329612303497    0.21102514941351275    
  0.21105359392581433    0.2111540985735227    0.21135157438675212    0.2116339041120318    0.21191823694090597    
  0.2120693059027398    0.2119709385509479    0.21160147016898445    0.2110520934604989    0.21047326887739418    
  0.2099945025089936    0.20967776338334845    0.2095266085981501    0.20952660859815012    0.20967776338334845    
  0.2099945025089936    0.21047326887739418    0.2110520934604989    0.2116014701689845    0.2119709385509479    
  0.21206930590273987    0.21191823694090597    0.2116339041120318    0.21135157438675212    0.21115409857352266    
  0.21105359392581435    0.21102514941351275    0.2110251494135128    0.21105359392581427    0.21115409857352266    
  0.21135157438675206    0.2116339041120318    0.21191823694090597    0.2120693059027398    0.21197093855094787    
  0.2116014701689845    0.2110520934604989    0.21047326887739418    0.20999450250899365    0.20967776338334845    
  0.20952660859815012    0.2095266085981501    0.20967776338334845    0.20999450250899365    0.21047326887739418    
  0.2110520934604989    0.2116014701689845    0.21197093855094787    0.21206930590273987    0.21191823694090609    
  0.2116339041120319    0.21135157438675206    0.21115409857352266    0.21105359392581433    0.2110251494135128    
  0.22329329612303497    0.22316805658511793    0.222816550093381    0.2222854212588981    0.2215911440918116    
  0.22069319608695875    0.21952319386792957    0.21804982338131895    0.21632890532527774    0.21450385758034868    
  0.2127635707161298    0.21129118182112802    0.21023098218756323    0.2096777633833485    0.2096777633833485    
  0.2102309821875632    0.21129118182112797    0.2127635707161298    0.21450385758034868    0.21632890532527774    
  0.21804982338131895    0.21952319386792965    0.22069319608695875    0.22159114409181155    0.2222854212588981    
  0.222816550093381    0.22316805658511793    0.22329329612303497    0.24779014467293536    0.2473677077406022    
  0.24613503848768523    0.2441646932227535    0.24151317041116602    0.23821434801171404    0.23433354023111677    
  0.23002403400979538    0.22552807258642718    0.22112921200872449    0.21710938355232595    0.21374112435069167    
  0.21129118182112802    0.20999450250899368    0.20999450250899368    0.21129118182112797    0.21374112435069167    
  0.21710938355232595    0.22112921200872449    0.2255280725864272    0.23002403400979538    0.23433354023111683    
  0.23821434801171415    0.24151317041116596    0.2441646932227535    0.2461350384876852    0.2473677077406022    
  0.24779014467293536    0.28353725333004715    0.28272577510704444    0.2803138807013681    0.2763499771686047    
  0.2708919373288374    0.2640543523014643    0.2560998808369101    0.24747936975121904    0.23876033247506243    
  0.23049618070522424    0.22314820006591604    0.2171093835523259    0.2127635707161298    0.21047326887739412    
  0.2104732688773941    0.21276357071612975    0.21710938355232584    0.22314820006591607    0.23049618070522424    
  0.23876033247506243    0.24747936975121904    0.2560998808369101    0.2640543523014643    0.2708919373288373    
  0.27634997716860477    0.280313880701368    0.28272577510704444    0.28353725333004715    0.32681252966646973    
  0.32570713362320114    0.32230821084430333    0.3164229933329403    0.3079065392732932    0.29686995570623337    
  0.28382523056632597    0.26965826726763126    0.2554285838963119    0.24211969934370037    0.2304961807052243    
  0.22112921200872462    0.21450385758034868    0.21105209346049897    0.21105209346049897    0.21450385758034868    
  0.22112921200872457    0.2304961807052243    0.24211969934370037    0.2554285838963119    0.26965826726763126    
  0.283825230566326    0.29686995570623337    0.30790653927329314    0.3164229933329403    0.3223082108443033    
  0.3257071336232012    0.32681252966646973    0.3683878919578421    0.3675532406484516    0.3646185051459386    
  0.3585529016200315    0.34837268881407873    0.33380911937211843    0.3156026030407301    0.29528754096259624    
  0.2746830744332655    0.2554285838963119    0.23876033247506245    0.2255280725864272    0.21632890532527774    
  0.21160147016898456    0.2116014701689846    0.21632890532527768    0.2255280725864272    0.2387603324750625    
  0.2554285838963119    0.2746830744332655    0.2952875409625962    0.3156026030407302    0.33380911937211843    
  0.3483726888140786    0.3585529016200315    0.3646185051459385    0.3675532406484516    0.3683878919578421    
  0.3917517609453173    0.39248716373316705    0.3935230188464897    0.3919387049692878    0.3845938111866131    
  0.3698239667595412    0.3482700269633243    0.3223965530195147    0.2952875409625962    0.2696582672676312    
  0.2474793697512191    0.2300240340097954    0.21804982338131898    0.2119709385509479    0.21197093855094795    
  0.21804982338131895    0.2300240340097954    0.24747936975121904    0.2696582672676312    0.2952875409625962    
  0.3223965530195147    0.3482700269633244    0.3698239667595412    0.38459381118661307    0.3919387049692878    
  0.39352301884648966    0.39248716373316705    0.3917517609453173    0.3780472914560064    0.3820861033765307    
  0.3920520503825277    0.4022423056871807    0.4057175910579121    0.39758395768709287    0.3772896732371571    
  0.3482700269633244    0.3156026030407302    0.28382523056632597    0.2560998808369102    0.23433354023111677    
  0.21952319386792965    0.2120693059027398    0.2120693059027398    0.21952319386792965    0.23433354023111677    
  0.25609988083691015    0.28382523056632597    0.3156026030407302    0.3482700269633243    0.3772896732371572    
  0.39758395768709287    0.4057175910579121    0.4022423056871807    0.39205205038252766    0.38208610337653076    
  0.3780472914560064    0.32037427818498737    0.32866965455459013    0.35086953708530944    0.3790956143127584    
  0.40202896674174227    0.4094994910249851    0.39758395768709287    0.3698239667595412    0.3338091193721185    
  0.2968699557062333    0.26405435230146435    0.23821434801171404    0.22069319608695875    0.21191823694090609    
  0.21191823694090609    0.22069319608695875    0.2382143480117141    0.26405435230146435    0.2968699557062333    
  0.3338091193721185    0.3698239667595412    0.39758395768709287    0.4094994910249852    0.40202896674174227    
  0.3790956143127584    0.3508695370853094    0.32866965455459013    0.32037427818498737    0.23505404136431532    
  0.24662025631601198    0.2793004902454208    0.32572294388212136    0.37204111805905143    0.40202896674174227    
  0.4057175910579121    0.38459381118661307    0.3483726888140786    0.3079065392732931    0.2708919373288374    
  0.24151317041116593    0.22159114409181155    0.21163390411203187    0.2116339041120319    0.22159114409181155    
  0.24151317041116593    0.2708919373288374    0.3079065392732931    0.3483726888140786    0.38459381118661307    
  0.40571759105791216    0.40202896674174227    0.3720411180590513    0.3257229438821213    0.2793004902454207    
  0.24662025631601198    0.23505404136431532    0.15233106995095913    0.16475656395365407    0.20179793873910956    
  0.25970244795590536    0.3257229438821215    0.37909561431275846    0.4022423056871808    0.39193870496928784    
  0.3585529016200315    0.3164229933329404    0.2763499771686049    0.24416469322275344    0.2222854212588981    
  0.21135157438675206    0.21135157438675212    0.22228542125889814    0.24416469322275355    0.2763499771686049    
  0.3164229933329404    0.35855290162003145    0.39193870496928784    0.4022423056871808    0.37909561431275846    
  0.3257229438821214    0.25970244795590536    0.20179793873910956    0.1647565639536541    0.15233106995095913    
  0.09380959554788945    0.10513058400995383    0.14078618116523098    0.2017979387391095    0.2793004902454208    
  0.3508695370853093    0.3920520503825277    0.39352301884648966    0.36461850514593847    0.32230821084430317    
  0.2803138807013681    0.24613503848768523    0.22281655009338094    0.21115409857352266    0.2111540985735227    
  0.22281655009338094    0.24613503848768523    0.2803138807013681    0.32230821084430317    0.3646185051459384    
  0.39352301884648966    0.3920520503825278    0.3508695370853094    0.27930049024542075    0.20179793873910948    
  0.1407861811652309    0.10513058400995381    0.09380959554788945    0.0628442878349911    0.07268333330100736    
  0.10513058400995372    0.164756563953654    0.2466202563160119    0.32866965455459013    0.38208610337653065    
  0.392487163733167    0.36755324064845146    0.3257071336232011    0.2827257751070445    0.24736770774060216    
  0.22316805658511782    0.2110535939258142    0.21105359392581421    0.22316805658511787    0.24736770774060224    
  0.2827257751070445    0.3257071336232011    0.36755324064845146    0.392487163733167    0.38208610337653065    
  0.32866965455459013    0.2466202563160119    0.16475656395365398    0.10513058400995372    0.07268333330100736    
  0.0628442878349911    0.053628882535660595    0.06284428783499114    0.09380959554788952    0.15233106995095916    
  0.23505404136431537    0.3203742781849874    0.3780472914560065    0.3917517609453173    0.3683878919578421    
  0.32681252966646973    0.28353725333004726    0.24779014467293542    0.22329329612303497    0.21102514941351275    
  0.21102514941351275    0.22329329612303503    0.24779014467293542    0.28353725333004726    0.32681252966646973    
  0.3683878919578421    0.3917517609453173    0.3780472914560065    0.32037427818498737    0.23505404136431532    
  0.15233106995095913    0.09380959554788945    0.06284428783499114    0.053628882535660595    0.0628442878349911    
  0.07268333330100732    0.10513058400995379    0.16475656395365407    0.2466202563160119    0.32866965455459    
  0.3820861033765307    0.392487163733167    0.3675532406484515    0.3257071336232012    0.2827257751070445    
  0.24736770774060207    0.22316805658511787    0.21105359392581421    0.21105359392581421    0.22316805658511787    
  0.24736770774060207    0.2827257751070445    0.3257071336232012    0.36755324064845146    0.392487163733167    
  0.38208610337653065    0.32866965455459    0.24662025631601184    0.164756563953654    0.10513058400995372    
  0.07268333330100732    0.0628442878349911    0.07268333330100732    0.08308580454905547    0.11681703850140272    
  0.17722762034954753    0.25792749430277667    0.3365893903009544    0.3858438343420403    0.3931169388879921    
  0.36674641304876343    0.32469214903798654    0.28202281312035277    0.2470549426726225    0.2231498798648523    
  0.21118712467314477    0.21118712467314477    0.22314987986485235    0.2470549426726225    0.2820228131203527    
  0.32469214903798654    0.3667464130487634    0.39311693888799215    0.3858438343420403    0.3365893903009544    
  0.25792749430277667    0.1772276203495475    0.11681703850140265    0.08308580454905547    0.07268333330100732    
  0.10513058400995368    0.11681703850140279    0.15315506968427584    0.21407344109698517    0.2896709549807139    
  0.35766380678226317    0.39503326918193093    0.3938867875253844    0.36390953263832126    0.32155569832861564    
  0.27991943091350113    0.2461329940768788    0.22310188641070763    0.21158579657302864    0.21158579657302864    
  0.22310188641070763    0.2461329940768788    0.2799194309135011    0.32155569832861564    0.36390953263832126    
  0.3938867875253844    0.3950332691819309    0.35766380678226317    0.2896709549807139    0.21407344109698517    
  0.15315506968427578    0.11681703850140276    0.10513058400995368    0.16475656395365404    0.1772276203495476    
  0.2140734410969853    0.2707972129150109    0.33422025400194255    0.3841224822791516    0.4041622009619958    
  0.3920114331558923    0.3580459354621776    0.3160813208480131    0.2764208247710473    0.24462847324629694    
  0.22302632120377142    0.21223152529882602    0.21223152529882608    0.22302632120377142    0.24462847324629694    
  0.2764208247710473    0.3160813208480131    0.3580459354621776    0.3920114331558923    0.4041622009619959    
  0.3841224822791515    0.3342202540019425    0.2707972129150109    0.21407344109698528    0.17722762034954756    
  0.16475656395365404    0.24662025631601184    0.2579274943027767    0.28967095498071394    0.3342202540019424    
  0.37784650681206744    0.40502032021641066    0.4066215463351499    0.38451562459099553    0.3482037519985762    
  0.3080924412569427    0.2715342979066262    0.24254532839020337    0.22288900877498147    0.21306312403837868    
  0.21306312403837868    0.22288900877498147    0.24254532839020337    0.27153429790662614    0.3080924412569427    
  0.3482037519985762    0.38451562459099553    0.4066215463351499    0.40502032021641066    0.37784650681206744    
  0.33422025400194244    0.2896709549807138    0.2579274943027768    0.24662025631601184    0.32866965455459    
  0.33658939030095447    0.35766380678226317    0.3841224822791514    0.40502032021641066    0.4107558808112286    
  0.3978377215746833    0.36985066496661595    0.3341213230058107    0.2976679142640087    0.2653335648268011    
  0.23987699761167747    0.22261098227844253    0.21396072248289721    0.21396072248289721    0.22261098227844248    
  0.23987699761167752    0.2653335648268011    0.2976679142640087    0.33412132300581077    0.36985066496661595    
  0.39783772157468333    0.41075588081122855    0.4050203202164106    0.3841224822791514    0.35766380678226317    
  0.33658939030095447    0.32866965455459    0.38208610337653065    0.38584383434204034    0.3950332691819309    
  0.4041622009619958    0.4066215463351499    0.3978377215746833    0.37740206947795724    0.3486675253624542    
  0.316511158724772    0.285288522193729    0.25805329960282436    0.23666362779549835    0.2221007697341217    
  0.21476722342444332    0.21476722342444332    0.22210076973412166    0.23666362779549835    0.25805329960282436    
  0.285288522193729    0.316511158724772    0.3486675253624542    0.37740206947795724    0.3978377215746833    
  0.4066215463351499    0.4041622009619958    0.3950332691819309    0.3858438343420404    0.38208610337653065    
  0.39248716373316694    0.39311693888799215    0.39388678752538453    0.39201143315589226    0.3845156245909956    
  0.36985066496661595    0.3486675253624542    0.3233460459899415    0.29685233237054715    0.27180569359170265    
  0.25011891280339404    0.23303659807876428    0.22130696974023525    0.2153473160568812    0.2153473160568812    
  0.22130696974023528    0.23303659807876428    0.25011891280339404    0.27180569359170265    0.2968523323705472    
  0.3233460459899415    0.34866752536245427    0.36985066496661595    0.38451562459099553    0.39201143315589226    
  0.3938867875253844    0.3931169388879922    0.39248716373316694    0.3675532406484515    0.36674641304876343    
  0.3639095326383214    0.3580459354621776    0.3482037519985762    0.3341213230058107    0.316511158724772    
  0.2968523323705472    0.27690005017027264    0.25823835572328163    0.24206473779218274    0.2292071670286256    
  0.2202552376871422    0.2156494411913123    0.2156494411913123    0.22025523768714217    0.2292071670286256    
  0.24206473779218274    0.25823835572328163    0.2769000501702727    0.2968523323705472    0.316511158724772    
  0.3341213230058107    0.3482037519985762    0.35804593546217767    0.36390953263832126    0.36674641304876343    
  0.3675532406484515    0.3257071336232012    0.3246921490379866    0.32155569832861575    0.3160813208480131    
  0.30809244125694274    0.2976679142640087    0.285288522193729    0.2718056935917027    0.2582383557232817    
  0.24552800892919233    0.23440496171689587    0.22541975334831652    0.21904929965546496    0.21572454768362145    
  0.2157245476836215    0.21904929965546494    0.22541975334831646    0.23440496171689587    0.24552800892919233    
  0.2582383557232817    0.2718056935917027    0.2852885221937291    0.2976679142640087    0.3080924412569427    
  0.3160813208480131    0.3215556983286157    0.3246921490379866    0.3257071336232012    0.2827257751070444    
  0.2820228131203527    0.279919430913501    0.2764208247710472    0.2715342979066261    0.26533356482680104    
  0.2580532996028243    0.25011891280339393    0.24206473779218268    0.2344049617168958    0.22756648017611747    
  0.22192060667025792    0.2178408181656134    0.2156847700013724    0.21568477000137234    0.21784081816561335    
  0.22192060667025787    0.22756648017611752    0.2344049617168958    0.24206473779218268    0.25011891280339393    
  0.25805329960282436    0.26533356482680104    0.27153429790662603    0.2764208247710472    0.27991943091350097    
  0.2820228131203527    0.2827257751070444    0.2473677077406021    0.24705494267262254    0.2461329940768788    
  0.24462847324629694    0.24254532839020349    0.23987699761167752    0.23666362779549835    0.23303659807876417    
  0.22920716702862554    0.22541975334831638    0.22192060667025795    0.21895860028884523    0.2167871551682498    
  0.21563248026876267    0.21563248026876267    0.2167871551682498    0.21895860028884523    0.221920606670258    
  0.22541975334831638    0.22920716702862554    0.23303659807876417    0.23666362779549835    0.23987699761167752    
  0.24254532839020343    0.24462847324629688    0.24613299407687875    0.24705494267262254    0.2473677077406021    
  0.22316805658511787    0.2231498798648523    0.22310188641070774    0.22302632120377133    0.22288900877498152    
  0.22261098227844256    0.22210076973412166    0.22130696974023525    0.22025523768714217    0.21904929965546496    
  0.2178408181656135    0.21678715516824984    0.21601656566424643    0.21561202295696336    0.2156120229569633    
  0.2160165656642464    0.2167871551682498    0.2178408181656135    0.21904929965546496    0.22025523768714217    
  0.22130696974023525    0.22210076973412166    0.22261098227844256    0.22288900877498147    0.22302632120377133    
  0.2231018864107077    0.22314987986485235    0.22316805658511787    0.21105359392581421    0.21118712467314488    
  0.21158579657302864    0.21223152529882608    0.21306312403837868    0.21396072248289716    0.21476722342444332    
  0.21534731605688115    0.21564944119131224    0.21572454768362145    0.21568477000137246    0.21563248026876258    
  0.21561202295696336    0.21561346229907294    0.215613462299073    0.21561202295696338    0.21563248026876258    
  0.21568477000137246    0.21572454768362145    0.2156494411913123    0.21534731605688115    0.21476722342444338    
  0.21396072248289716    0.21306312403837865    0.21223152529882608    0.2115857965730286    0.21118712467314488    
  0.21105359392581421    0.21105359392581427    0.21118712467314482    0.2115857965730286    0.21223152529882608    
  0.21306312403837868    0.21396072248289716    0.21476722342444332    0.2153473160568811    0.21564944119131224    
  0.21572454768362145    0.21568477000137246    0.21563248026876267    0.21561202295696336    0.215613462299073    
  0.21561346229907294    0.21561202295696336    0.21563248026876267    0.21568477000137246    0.21572454768362145    
  0.21564944119131224    0.2153473160568811    0.21476722342444343    0.21396072248289721    0.21306312403837868    
  0.21223152529882608    0.2115857965730286    0.21118712467314482    0.21105359392581427    0.22316805658511787    
  0.22314987986485235    0.2231018864107077    0.2230263212037714    0.22288900877498147    0.22261098227844256    
  0.22210076973412166    0.22130696974023525    0.2202552376871422    0.21904929965546496    0.21784081816561346    
  0.2167871551682498    0.21601656566424643    0.21561202295696336    0.21561202295696338    0.2160165656642464    
  0.2167871551682498    0.21784081816561346    0.21904929965546494    0.2202552376871422    0.22130696974023525    
  0.22210076973412166    0.22261098227844256    0.22288900877498147    0.2230263212037714    0.2231018864107077    
  0.22314987986485235    0.22316805658511787    0.24736770774060202    0.2470549426726225    0.2461329940768788    
  0.24462847324629688    0.24254532839020349    0.23987699761167752    0.23666362779549835    0.23303659807876417    
  0.22920716702862554    0.22541975334831643    0.221920606670258    0.21895860028884523    0.2167871551682498    
  0.21563248026876267    0.21563248026876267    0.2167871551682498    0.21895860028884523    0.221920606670258    
  0.22541975334831643    0.22920716702862554    0.23303659807876417    0.23666362779549843    0.23987699761167752    
  0.24254532839020343    0.24462847324629694    0.24613299407687875    0.2470549426726225    0.24736770774060202    
  0.2827257751070445    0.28202281312035266    0.279919430913501    0.2764208247710472    0.2715342979066261    
  0.26533356482680104    0.25805329960282436    0.250118912803394    0.24206473779218274    0.23440496171689584    