#     DFTpy    
  CRYSTAL 
    
  PRIMVEC    
  3.686689655172411    0.0    0.0    
  0.0    3.686689655172411    0.0    
  0.0    0.0    3.686689655172411    
  PRIMCOORD    
  2    1    
  Si    0.0    0.0    0.0    
  Si    1.8433448275862108    1.8433448275862108    1.8433448275862108    
  BEGIN_BLOCK_DATAGRID_3D    
  3d_datagrid_density    
  BEGIN_DATAGRID_3D#0    
  37    37    37    
  0.0    0.0    0.0    
  3.6866896689238335    0.0    0.0    
  0.0    3.6866896689238335    0.0    
  0.0    0.0    3.6866896689238335    
  0.05970169218046903    0.06779944354207246    0.09435193201969892    0.14339961480441746    0.2130076262399293    
  0.28811527390916963    0.34457629248255767    0.3645468281193469    0.3475860336141452    0.3068171773969057    
  0.2575954812308217    0.21035243365358722    0.16996283268793086    0.13778001071997628    0.11343367437076964    
  0.09590059220361213    0.08412953646115016    0.07735019339298513    0.07513462508966978    0.07735019339298514    
  0.08412953646115016    0.09590059220361218    0.11343367437076964    0.1377800107199763    0.16996283268793086    
  0.21035243365358722    0.2575954812308217    0.3068171773969057    0.3475860336141452    0.3645468281193469    
  0.34457629248255767    0.28811527390916963    0.2130076262399293    0.1433996148044175    0.09435193201969892    
  0.06779944354207247    0.05970169218046903    0.06779944354207242    0.0763066213633184    0.10382125099531209    
  0.1535588910496541    0.22248405867104235    0.29504917485208676    0.3478876850909345    0.36461856747747906    
  0.3457462103277431    0.30437365458913157    0.25532659443813616    0.20854594805726792    0.1686400899396639    
  0.13686266217162896    0.11282233059230996    0.09550480131389565    0.08387544518024512    0.07717700639714069    
  0.07498788053035962    0.07717700639714069    0.08387544518024512    0.09550480131389569    0.11282233059230994    
  0.13686266217162898    0.1686400899396639    0.20854594805726792    0.25532659443813616    0.30437365458913157    
  0.3457462103277431    0.36461856747747906    0.3478876850909345    0.2950491748520868    0.22248405867104235    
  0.15355889104965414    0.10382125099531206    0.07630662136331842    0.06779944354207242    0.09435193201969894    
  0.10382125099531209    0.1333951524063931    0.18391371724012054    0.2495189019439916    0.3138379107501052    
  0.3560494949934475    0.36377561699739674    0.33983459091049417    0.29703205298938407    0.24864726058232772    
  0.20326984215827507    0.16479035521210836    0.13419743343163446    0.11104740255298194    0.0943556898365987    
  0.08313759431485507    0.07667413792643299    0.07456186679762132    0.076674137926433    0.08313759431485507    
  0.09435568983659873    0.11104740255298194    0.13419743343163446    0.16479035521210836    0.20326984215827507    
  0.24864726058232772    0.2970320529893841    0.33983459091049417    0.36377561699739674    0.3560494949934475    
  0.3138379107501052    0.2495189019439916    0.18391371724012057    0.1333951524063931    0.10382125099531211    
  0.09435193201969894    0.1433996148044175    0.15355889104965403    0.18391371724012054    0.23200540331948397    
  0.2888660498336709    0.33839052477104226    0.36421269866140005    0.35931745705562507    0.32893795841581797    
  0.28484181822211424    0.23793526950485966    0.194925154740409    0.15874004946088532    0.13002273284075247    
  0.10827242311963566    0.09256163843336465    0.08198824997826283    0.07589377891203558    0.07390235145523907    
  0.07589377891203558    0.08198824997826282    0.09256163843336467    0.10827242311963566    0.13002273284075247    
  0.15874004946088532    0.194925154740409    0.23793526950485966    0.2848418182221143    0.328937958415818    
  0.3593174570556252    0.36421269866140005    0.33839052477104226    0.2888660498336709    0.23200540331948397    
  0.1839137172401205    0.1535588910496541    0.1433996148044175    0.2130076262399293    0.2224840586710424    
  0.24951890194399165    0.28886604983367087    0.3300451349670867    0.35934373084251153    0.36606035193227    
  0.34820149921906607    0.312282967522166    0.2681111907733347    0.22380898948027828    0.1841025311438016    
  0.15095491392031715    0.12467587523308865    0.10473152122750007    0.09028392195590691    0.0805422008490073    
  0.07492502220446907    0.07309016982861956    0.0749250222044691    0.0805422008490073    0.09028392195590694    
  0.10473152122750005    0.12467587523308865    0.15095491392031715    0.18410253114380162    0.22380898948027828    
  0.2681111907733347    0.312282967522166    0.34820149921906607    0.36606035193227    0.35934373084251164    
  0.3300451349670867    0.2888660498336709    0.24951890194399165    0.2224840586710424    0.2130076262399293    
  0.2881152739091695    0.29504917485208665    0.31383791075010514    0.3383905247710422    0.3593437308425115    
  0.36714373050739907    0.3564772284606984    0.3286579985566499    0.28993450972477625    0.24759253838790607    
  0.20710965460388303    0.17151134825266717    0.1419690026915359    0.11853708200302339    0.10069089821879396    
  0.08771286908234811    0.07894278799444007    0.07388514656727088    0.07223410547812859    0.07388514656727088    
  0.07894278799444007    0.08771286908234814    0.10069089821879394    0.11853708200302338    0.1419690026915359    
  0.1715113482526672    0.20710965460388303    0.24759253838790607    0.28993450972477625    0.3286579985566499    
  0.3564772284606984    0.36714373050739907    0.3593437308425115    0.3383905247710422    0.31383791075010514    
  0.2950491748520867    0.2881152739091695    0.34457629248255767    0.3478876850909345    0.35604949499344757    
  0.36421269866140005    0.36606035193226993    0.35647722846069835    0.33398779253493843    0.301213728251415    
  0.26309947948083134    0.2245130084344297    0.1888554342948188    0.15792182445694036    0.13233281949330164    
  0.11198808527884123    0.09641691730363382    0.08504206820413025    0.07733907881881727    0.07289793937763309    
  0.07144950224616968    0.0728979393776331    0.07733907881881727    0.08504206820413028    0.09641691730363382    
  0.11198808527884123    0.13233281949330164    0.15792182445694036    0.1888554342948188    0.2245130084344297    
  0.26309947948083134    0.301213728251415    0.33398779253493843    0.35647722846069846    0.36606035193226993    
  0.36421269866140005    0.35604949499344757    0.3478876850909345    0.34457629248255767    0.36454682811934697    
  0.3646185674774791    0.36377561699739674    0.35931745705562507    0.34820149921906607    0.32865799855664996    
  0.30121372825141507    0.2684610246521978    0.23384192287668734    0.20039403248475146    0.17014121514996847    
  0.14410531511468283    0.12257475747438164    0.10538560341988577    0.09215447898283237    0.0824465071435284    
  0.07586193600883877    0.07206819158688517    0.07083225694285111    0.07206819158688514    0.07586193600883874    
  0.08244650714352841    0.09215447898283237    0.10538560341988577    0.12257475747438167    0.14410531511468283    
  0.17014121514996847    0.2003940324847515    0.23384192287668734    0.2684610246521978    0.30121372825141507    
  0.3286579985566499    0.34820149921906607    0.35931745705562507    0.36377561699739674    0.3646185674774791    
  0.36454682811934697    0.3475860336141452    0.3457462103277431    0.3398345909104943    0.328937958415818    
  0.312282967522166    0.2899345097247763    0.26309947948083134    0.23384192287668729    0.2044296412571631    
  0.17673989900327383    0.151988595777706    0.130757438584576    0.11316220345604303    0.09904219626705375    
  0.08811485185044282    0.0800702953241845    0.07460991337098169    0.07146655230768345    0.07044344479779073    
  0.07146655230768348    0.07460991337098169    0.08007029532418454    0.08811485185044282    0.09904219626705377    
  0.11316220345604303    0.130757438584576    0.151988595777706    0.17673989900327386    0.2044296412571631    
  0.23384192287668729    0.2630994794808314    0.2899345097247763    0.312282967522166    0.32893795841581797    
  0.3398345909104943    0.3457462103277431    0.3475860336141452    0.3068171773969057    0.3043736545891316    
  0.2970320529893841    0.28484181822211435    0.2681111907733347    0.2475925383879061    0.22451300843442976    
  0.20039403248475146    0.17673989900327383    0.15475359925819737    0.13519845352947357    0.11841995423311857    
  0.10446395537321297    0.09321051488825366    0.08446922118070695    0.07802375991606599    0.0736485948611704    
  0.07113080733391579    0.07031142894003134    0.07113080733391582    0.0736485948611704    0.07802375991606604    
  0.08446922118070696    0.09321051488825367    0.10446395537321297    0.11841995423311855    0.1351984535294736    
  0.15475359925819737    0.17673989900327383    0.20039403248475146    0.22451300843442976    0.2475925383879061    
  0.2681111907733347    0.2848418182221143    0.2970320529893841    0.3043736545891316    0.3068171773969057    
  0.25759548123082165    0.25532659443813616    0.24864726058232772    0.23793526950485966    0.22380898948027822    
  0.20710965460388311    0.18885543429481882    0.1701412151499685    0.15198859577770596    0.13519845352947357    
  0.12027365951147602    0.10743963586138452    0.09672948092999244    0.08807184228636074    0.08134219436644893    
  0.07638226757025185    0.07301550096133941    0.07107569624277274    0.07044354533458494    0.07107569624277277    
  0.07301550096133941    0.07638226757025188    0.08134219436644893    0.08807184228636075    0.09672948092999244    
  0.10743963586138452    0.12027365951147602    0.13519845352947363    0.151988595777706    0.1701412151499685    
  0.1888554342948188    0.2071096546038831    0.22380898948027822    0.23793526950485966    0.24864726058232772    
  0.25532659443813616    0.25759548123082165    0.21035243365358725    0.20854594805726792    0.20326984215827504    
  0.194925154740409    0.1841025311438016    0.17151134825266717    0.15792182445694042    0.14410531511468283    
  0.13075743858457597    0.11841995423311857    0.10743963586138447    0.09798411613973249    0.09009383733455671    
  0.08373042971399272    0.07880228314555293    0.07517983374878062    0.07271973770842774    0.07129747480388786    
  0.07083245516846118    0.0712974748038878    0.07271973770842778    0.07517983374878066    0.07880228314555293    
  0.08373042971399272    0.09009383733455671    0.09798411613973249    0.10743963586138447    0.11841995423311855    
  0.13075743858457597    0.14410531511468277    0.15792182445694042    0.17151134825266717    0.1841025311438016    
  0.194925154740409    0.2032698421582751    0.20854594805726792    0.21035243365358725    0.16996283268793086    
  0.16864008993966395    0.16479035521210839    0.15874004946088532    0.15095491392031718    0.14196900269153595    
  0.13233281949330164    0.12257475747438164    0.11316220345604303    0.104463955373213    0.09672948092999241    
  0.09009383733455674    0.08459878915376955    0.08021396000983297    0.07685392396614803    0.07440047843518911    
  0.07273480686632174    0.07176747508002566    0.07144979291463333    0.07176747508002566    0.07273480686632174    
  0.07440047843518911    0.07685392396614803    0.08021396000983291    0.08459878915376955    0.09009383733455674    
  0.09672948092999241    0.104463955373213    0.11316220345604303    0.12257475747438164    0.13233281949330164    
  0.14196900269153592    0.15095491392031718    0.15874004946088527    0.16479035521210839    0.16864008993966395    
  0.16996283268793086    0.1377800107199763    0.13686266217162904    0.1341974334316345    0.13002273284075247    
  0.12467587523308866    0.11853708200302344    0.11198808527884127    0.1053856034198857    0.09904219626705371    
  0.09321051488825365    0.08807184228636071    0.0837304297139927    0.08021396000983297    0.0774812670548163    
  0.07544039388664506    0.07397817492510651    0.07299403559249991    0.07242260093529855    0.07223448121362702    
  0.07242260093529855    0.07299403559249991    0.07397817492510654    0.07544039388664506    0.07748126705481626    
  0.08021396000983297    0.08373042971399272    0.08807184228636071    0.09321051488825366    0.09904219626705371    
  0.1053856034198857    0.11198808527884127    0.11853708200302342    0.12467587523308866    0.13002273284075247    
  0.1341974334316345    0.136862662171629    0.1377800107199763    0.11343367437076964    0.11282233059230999    
  0.111047402552982    0.10827242311963563    0.10473152122750008    0.10069089821879398    0.09641691730363387    
  0.09215447898283236    0.08811485185044282    0.08446922118070692    0.0813421943664489    0.07880228314555303    
  0.07685392396614812    0.07544039388664506    0.07446308044353887    0.07381260050982658    0.07339880977703118    
  0.07316621945779113    0.07309062084196793    0.07316621945779113    0.07339880977703113    0.07381260050982665    
  0.07446308044353887    0.07544039388664506    0.07685392396614812    0.07880228314555303    0.0813421943664489    
  0.08446922118070692    0.08811485185044282    0.09215447898283233    0.09641691730363387    0.10069089821879397    
  0.10473152122750008    0.10827242311963561    0.11104740255298197    0.11282233059231002    0.11343367437076964    
  0.0959005922036121    0.09550480131389567    0.09435568983659866    0.09256163843336462    0.09028392195590693    
  0.08771286908234813    0.08504206820413027    0.08244650714352837    0.08007029532418443    0.078023759916066    
  0.07638226757025184    0.07517983374878064    0.07440047843518911    0.07397817492510651    0.07381260050982667    
  0.07379622216537701    0.07383979271109933    0.07388503646245305    0.07390286508385352    0.07388503646245304    
  0.07383979271109933    0.07379622216537707    0.07381260050982667    0.07397817492510654    0.07440047843518911    
  0.07517983374878064    0.07638226757025184    0.07802375991606601    0.08007029532418446    0.08244650714352837    
  0.08504206820413027    0.08771286908234813    0.09028392195590694    0.09256163843336462    0.09435568983659866    
  0.09550480131389566    0.0959005922036121    0.08412953646115022    0.08387544518024517    0.08313759431485511    
  0.08198824997826283    0.08054220084900733    0.07894278799444007    0.07733907881881734    0.07586193600883875    
  0.07460991337098165    0.07364859486117036    0.0730155009613394    0.07271973770842778    0.07273480686632174    
  0.07299403559249985    0.07339880977703117    0.07383979271109928    0.07422086974151901    0.07447417663515059    
  0.07456242747937362    0.07447417663515062    0.07422086974151901    0.07383979271109935    0.07339880977703117    
  0.07299403559249985    0.07273480686632174    0.07271973770842778    0.0730155009613394    0.07364859486117033    
  0.07460991337098165    0.07586193600883874    0.07733907881881733    0.07894278799444006    0.08054220084900733    
  0.08198824997826282    0.08313759431485511    0.08387544518024516    0.08412953646115022    0.07735019339298513    
  0.07717700639714066    0.07667413792643298    0.07589377891203554    0.07492502220446912    0.07388514656727085    
  0.07289793937763307    0.07206819158688507    0.07146655230768341    0.07113080733391584    0.07107569624277273    
  0.0712974748038878    0.07176747508002566    0.07242260093529852    0.07316621945779107    0.07388503646245292    
  0.07447417663515062    0.07485650812099263    0.07498847038285751    0.07485650812099265    0.07447417663515062    
  0.07388503646245294    0.07316621945779116    0.07242260093529858    0.07176747508002566    0.07129747480388776    
  0.07107569624277273    0.07113080733391584    0.07146655230768341    0.0720681915868851    0.07289793937763307    
  0.07388514656727084    0.07492502220446912    0.07589377891203551    0.07667413792643299    0.07717700639714066    
  0.07735019339298513    0.07513462508966987    0.07498788053035976    0.07456186679762142    0.07390235145523912    
  0.07309016982861966    0.07223410547812867    0.07144950224616972    0.07083225694285111    0.07044344479779074    
  0.07031142894003134    0.07044354533458497    0.07083245516846122    0.07144979291463342    0.07223448121362705    
  0.07309062084196793    0.07390286508385355    0.07456242747937367    0.07498847038285755    0.07513522481962606    
  0.07498847038285752    0.07456242747937367    0.07390286508385356    0.07309062084196793    0.07223448121362706    
  0.07144979291463342    0.0708324551684612    0.07044354533458497    0.07031142894003134    0.07044344479779074    
  0.07083225694285111    0.07144950224616972    0.07223410547812868    0.07309016982861966    0.07390235145523909    
  0.07456186679762142    0.07498788053035974    0.07513462508966987    0.07735019339298511    0.0771770063971407    
  0.07667413792643299    0.07589377891203555    0.07492502220446907    0.07388514656727085    0.07289793937763307    
  0.07206819158688509    0.07146655230768338    0.07113080733391577    0.0710756962427727    0.07129747480388776    
  0.07176747508002566    0.07242260093529852    0.07316621945779113    0.07388503646245295    0.07447417663515062    
  0.07485650812099266    0.07498847038285747    0.07485650812099266    0.07447417663515062    0.073885036462453    
  0.07316621945779113    0.07242260093529858    0.07176747508002566    0.07129747480388776    0.0710756962427727    
  0.07113080733391579    0.07146655230768338    0.07206819158688507    0.07289793937763309    0.07388514656727085    
  0.07492502220446907    0.07589377891203551    0.07667413792643299    0.07717700639714067    0.07735019339298511    
  0.08412953646115022    0.08387544518024517    0.08313759431485511    0.08198824997826282    0.08054220084900733    
  0.07894278799444007    0.07733907881881733    0.07586193600883874    0.07460991337098163    0.07364859486117036    
  0.0730155009613394    0.07271973770842774    0.07273480686632174    0.07299403559249985    0.07339880977703117    
  0.07383979271109928    0.07422086974151901    0.07447417663515059    0.07456242747937362    0.07447417663515062    
  0.07422086974151901    0.07383979271109932    0.07339880977703117    0.07299403559249985    0.07273480686632174    
  0.07271973770842774    0.0730155009613394    0.07364859486117033    0.07460991337098165    0.07586193600883875    
  0.07733907881881733    0.07894278799444006    0.08054220084900733    0.0819882499782628    0.08313759431485511    
  0.08387544518024516    0.08412953646115022    0.09590059220361213    0.09550480131389567    0.09435568983659869    
  0.09256163843336462    0.09028392195590694    0.08771286908234813    0.08504206820413027    0.08244650714352837    
  0.08007029532418448    0.07802375991606601    0.07638226757025184    0.07517983374878064    0.07440047843518911    
  0.07397817492510654    0.07381260050982662    0.07379622216537701    0.07383979271109933    0.07388503646245297    
  0.07390286508385356    0.07388503646245297    0.07383979271109933    0.07379622216537707    0.07381260050982662    
  0.07397817492510657    0.07440047843518911    0.07517983374878064    0.07638226757025184    0.07802375991606603    
  0.08007029532418446    0.08244650714352837    0.08504206820413027    0.08771286908234814    0.09028392195590694    
  0.09256163843336461    0.09435568983659869    0.09550480131389565    0.09590059220361213    0.11343367437076964    
  0.11282233059230999    0.11104740255298197    0.10827242311963563    0.10473152122750008    0.10069089821879398    
  0.09641691730363387    0.09215447898283236    0.08811485185044282    0.08446922118070692    0.0813421943664489    
  0.07880228314555303    0.07685392396614812    0.07544039388664506    0.07446308044353883    0.07381260050982658    
  0.07339880977703118    0.07316621945779113    0.07309062084196793    0.07316621945779113    0.07339880977703118    
  0.07381260050982665    0.07446308044353887    0.07544039388664506    0.07685392396614812    0.07880228314555303    
  0.0813421943664489    0.08446922118070692    0.08811485185044282    0.09215447898283233    0.09641691730363387    
  0.10069089821879397    0.10473152122750008    0.10827242311963563    0.11104740255298197    0.11282233059231002    
  0.11343367437076964    0.13778001071997625    0.13686266217162898    0.13419743343163446    0.13002273284075247    
  0.12467587523308865    0.11853708200302335    0.11198808527884124    0.1053856034198857    0.09904219626705368    
  0.09321051488825365    0.08807184228636068    0.08373042971399267    0.08021396000983291    0.0774812670548163    
  0.07544039388664511    0.07397817492510651    0.07299403559249991    0.07242260093529855    0.072234481213627    
  0.07242260093529855    0.07299403559249991    0.07397817492510657    0.07544039388664511    0.07748126705481626    
  0.08021396000983291    0.0837304297139927    0.08807184228636068    0.09321051488825366    0.09904219626705368    
  0.1053856034198857    0.11198808527884124    0.11853708200302338    0.12467587523308865    0.13002273284075244    
  0.13419743343163448    0.13686266217162898    0.13778001071997625    0.16996283268793086    0.16864008993966395    
  0.16479035521210839    0.1587400494608853    0.15095491392031718    0.14196900269153595    0.13233281949330164    
  0.12257475747438164    0.11316220345604303    0.104463955373213    0.09672948092999241    0.09009383733455675    
  0.08459878915376955    0.08021396000983291    0.07685392396614803    0.07440047843518911    0.07273480686632174    
  0.07176747508002566    0.07144979291463333    0.07176747508002564    0.07273480686632174    0.07440047843518911    
  0.07685392396614803    0.08021396000983291    0.08459878915376955    0.09009383733455675    0.09672948092999241    
  0.104463955373213    0.11316220345604303    0.12257475747438164    0.13233281949330164    0.14196900269153595    
  0.15095491392031718    0.15874004946088527    0.16479035521210839    0.16864008993966395    0.16996283268793086    
  0.21035243365358722    0.20854594805726792    0.2032698421582751    0.194925154740409    0.1841025311438016    
  0.17151134825266717    0.15792182445694042    0.14410531511468283    0.13075743858457597    0.11841995423311855    
  0.1074396358613845    0.09798411613973249    0.09009383733455674    0.0837304297139927    0.07880228314555293    
  0.07517983374878064    0.07271973770842774    0.0712974748038879    0.07083245516846118    0.07129747480388776    
  0.07271973770842778    0.07517983374878066    0.07880228314555293    0.08373042971399272    0.09009383733455671    
  0.09798411613973247    0.10743963586138447    0.11841995423311855    0.13075743858457597    0.1441053151146828    
  0.15792182445694042    0.17151134825266717    0.1841025311438016    0.19492515474040897    0.2032698421582751    
  0.20854594805726795    0.21035243365358722    0.25759548123082165    0.25532659443813616    0.24864726058232772    
  0.23793526950485966    0.22380898948027822    0.2071096546038831    0.18885543429481882    0.1701412151499685    
  0.151988595777706    0.13519845352947357    0.12027365951147602    0.10743963586138452    0.09672948092999244    
  0.08807184228636074    0.08134219436644893    0.07638226757025185    0.07301550096133941    0.07107569624277274    
  0.07044354533458494    0.07107569624277277    0.07301550096133941    0.07638226757025188    0.08134219436644893    
  0.08807184228636075    0.09672948092999244    0.10743963586138452    0.12027365951147602    0.13519845352947363    
  0.151988595777706    0.1701412151499685    0.1888554342948188    0.2071096546038831    0.22380898948027822    
  0.23793526950485966    0.24864726058232772    0.25532659443813616    0.25759548123082165    0.3068171773969057    
  0.3043736545891316    0.2970320529893841    0.28484181822211435    0.2681111907733347    0.2475925383879061    
  0.2245130084344297    0.20039403248475146    0.17673989900327383    0.15475359925819737    0.1351984535294736    
  0.11841995423311857    0.10446395537321297    0.09321051488825367    0.08446922118070695    0.07802375991606599    
  0.0736485948611704    0.07113080733391579    0.07031142894003134    0.07113080733391579    0.0736485948611704    
  0.07802375991606604    0.08446922118070693    0.09321051488825367    0.10446395537321299    0.11841995423311855    
  0.1351984535294736    0.15475359925819737    0.17673989900327383    0.20039403248475146    0.2245130084344297    
  0.2475925383879061    0.2681111907733347    0.28484181822211435    0.2970320529893841    0.3043736545891316    
  0.3068171773969057    0.3475860336141452    0.3457462103277431    0.3398345909104943    0.328937958415818    
  0.312282967522166    0.28993450972477625    0.26309947948083134    0.23384192287668729    0.2044296412571631    
  0.17673989900327383    0.151988595777706    0.130757438584576    0.11316220345604303    0.09904219626705375    
  0.08811485185044282    0.0800702953241845    0.07460991337098169    0.07146655230768345    0.07044344479779073    
  0.07146655230768348    0.07460991337098169    0.08007029532418454    0.08811485185044282    0.09904219626705377    
  0.11316220345604303    0.130757438584576    0.151988595777706    0.17673989900327386    0.2044296412571631    
  0.23384192287668729    0.2630994794808314    0.2899345097247763    0.312282967522166    0.32893795841581797    
  0.3398345909104943    0.3457462103277431    0.3475860336141452    0.36454682811934697    0.3646185674774791    
  0.36377561699739674    0.35931745705562507    0.34820149921906607    0.32865799855664984    0.30121372825141507    
  0.26846102465219784    0.23384192287668729    0.20039403248475146    0.17014121514996847    0.14410531511468283    
  0.12257475747438167    0.10538560341988577    0.09215447898283237    0.08244650714352839    0.07586193600883878    
  0.07206819158688518    0.07083225694285109    0.07206819158688517    0.07586193600883875    0.08244650714352844    
  0.09215447898283238    0.10538560341988577    0.12257475747438167    0.14410531511468283    0.17014121514996847    
  0.2003940324847515    0.23384192287668729    0.26846102465219784    0.30121372825141507    0.32865799855664996    
  0.34820149921906607    0.359317457055625    0.36377561699739674    0.3646185674774791    0.36454682811934697    
  0.34457629248255767    0.3478876850909345    0.35604949499344757    0.36421269866140005    0.36606035193226993    
  0.35647722846069835    0.33398779253493843    0.301213728251415    0.26309947948083134    0.2245130084344297    
  0.1888554342948188    0.1579218244569404    0.13233281949330164    0.1119880852788412    0.09641691730363382    
  0.08504206820413025    0.07733907881881727    0.07289793937763309    0.07144950224616968    0.0728979393776331    
  0.07733907881881727    0.08504206820413028    0.09641691730363382    0.11198808527884123    0.13233281949330164    
  0.1579218244569404    0.1888554342948188    0.2245130084344297    0.26309947948083134    0.301213728251415    
  0.33398779253493843    0.35647722846069846    0.36606035193226993    0.36421269866140005    0.35604949499344757    
  0.3478876850909345    0.34457629248255767    0.28811527390916963    0.29504917485208676    0.3138379107501052    
  0.3383905247710422    0.3593437308425115    0.36714373050739907    0.3564772284606984    0.3286579985566499    
  0.2899345097247763    0.24759253838790607    0.20710965460388306    0.17151134825266717    0.14196900269153592    
  0.11853708200302339    0.10069089821879396    0.08771286908234811    0.07894278799444007    0.07388514656727085    
  0.0722341054781286    0.07388514656727084    0.07894278799444007    0.08771286908234815    0.10069089821879396    
  0.11853708200302339    0.14196900269153592    0.17151134825266717    0.20710965460388306    0.24759253838790607    
  0.2899345097247763    0.3286579985566499    0.3564772284606984    0.36714373050739907    0.3593437308425115    
  0.33839052477104214    0.3138379107501052    0.29504917485208676    0.28811527390916963    0.2130076262399293    
  0.2224840586710424    0.2495189019439916    0.28886604983367087    0.3300451349670867    0.35934373084251153    
  0.3660603519322699    0.34820149921906607    0.312282967522166    0.2681111907733347    0.22380898948027828    
  0.1841025311438016    0.15095491392031715    0.12467587523308862    0.10473152122750005    0.09028392195590691    
  0.08054220084900729    0.07492502220446907    0.07309016982861956    0.0749250222044691    0.08054220084900732    
  0.09028392195590695    0.10473152122750005    0.12467587523308862    0.15095491392031715    0.18410253114380162    
  0.22380898948027828    0.2681111907733347    0.312282967522166    0.34820149921906607    0.3660603519322699    
  0.35934373084251164    0.3300451349670867    0.28886604983367087    0.24951890194399165    0.2224840586710424    
  0.2130076262399293    0.1433996148044175    0.15355889104965403    0.18391371724012054    0.23200540331948397    
  0.2888660498336709    0.33839052477104226    0.36421269866140005    0.35931745705562507    0.32893795841581797    
  0.2848418182221143    0.23793526950485966    0.19492515474040906    0.1587400494608853    0.13002273284075247    
  0.10827242311963566    0.09256163843336461    0.08198824997826283    0.07589377891203561    0.07390235145523903    
  0.07589377891203562    0.0819882499782628    0.09256163843336465    0.10827242311963566    0.13002273284075247    
  0.1587400494608853    0.19492515474040906    0.23793526950485966    0.2848418182221143    0.32893795841581797    
  0.3593174570556251    0.36421269866140005    0.33839052477104226    0.2888660498336709    0.2320054033194839    
  0.1839137172401205    0.1535588910496541    0.1433996148044175    0.09435193201969894    0.10382125099531209    