#     DFTpy    
  CRYSTAL 
    
  PRIMVEC    
  4.0702758620689705    0.0    0.0    
  0.0    4.0702758620689705    0.0    
  0.0    0.0    4.0702758620689705    
  PRIMCOORD    
  2    1    
  Si    0.0    0.0    0.0    
  Si    2.0351379310344804    2.0351379310344804    2.0351379310344804    
  BEGIN_BLOCK_DATAGRID_3D    
  3d_datagrid_density    
  BEGIN_DATAGRID_3D#0    
  41    41    41    
  0.0    0.0    0.0    
  4.070275877251177    0.0    0.0    
  0.0    4.070275877251177    0.0    
  0.0    0.0    4.070275877251177    
  0.06130692383946244    0.06942756001629342    0.0959576220750247    0.14470692195045984    0.21355423991908082    
  0.28752749807479006    0.34276970831482245    0.3615809349035002    0.3434245364064835    0.3013311180836914    
  0.2507027067193847    0.2020460132597387    0.16022710404117713    0.1265228569967545    0.10047128740174967    
  0.08093896346749406    0.06670110660910412    0.056715578082762654    0.05018067689930546    0.04650998213282651    
  0.04532995332489484    0.04650998213282659    0.050180676899305485    0.056715578082762674    0.06670110660910412    
  0.08093896346749403    0.10047128740174958    0.12652285699675445    0.16022710404117715    0.20204601325973873    
  0.25070270671938477    0.30133111808369134    0.3434245364064835    0.3615809349035002    0.34276970831482245    
  0.28752749807479006    0.21355423991908085    0.14470692195045987    0.0959576220750247    0.06942756001629337    
  0.06130692383946244    0.0694275600162935    0.07793934555544695    0.10537816944585926    0.15474278438960162    
  0.22284531416664144    0.29425796429772194    0.3459006791857143    0.36150624108656854    0.3414582470283692    
  0.2987625149703947    0.24830053885967462    0.2001000416535346    0.15876776801872916    0.1254811801024282    
  0.09975320986951211    0.08045594914144201    0.06638187867017081    0.05650679763270729    0.05004233448958633    
  0.04641058988268729    0.04524297794025869    0.04641058988268734    0.05004233448958634    0.05650679763270729    
  0.06638187867017081    0.08045594914144198    0.09975320986951204    0.12548118010242815    0.15876776801872916    
  0.20010004165353462    0.24830053885967462    0.2987625149703947    0.3414582470283692    0.3615062410865686    
  0.3459006791857143    0.29425796429772194    0.22284531416664147    0.15474278438960168    0.10537816944585925    
  0.077939345555447    0.0694275600162935    0.09595762207502477    0.10537816944585923    0.13472588103287653    
  0.18467223649986803    0.24929988460062208    0.3124280205233552    0.35350424924137125    0.3601870078025271    
  0.33511732845657116    0.2909970749409407    0.2411841040747055    0.19438215699095365    0.1544963286182698    
  0.12243831991959164    0.09765736094403794    0.07904628943085189    0.06545010709105575    0.055897385703505775    
  0.04963845013971138    0.046120224987106904    0.044988762015653085    0.04612022498710698    0.049638450139711396    
  0.055897385703505796    0.06545010709105575    0.07904628943085185    0.09765736094403789    0.12243831991959163    
  0.1544963286182698    0.19438215699095365    0.2411841040747055    0.2909970749409407    0.33511732845657116    
  0.36018700780252716    0.35350424924137125    0.3124280205233552    0.24929988460062216    0.18467223649986808    
  0.13472588103287644    0.10537816944585919    0.09595762207502477    0.1447069219504599    0.15474278438960162    
  0.18467223649986805    0.23195077268019296    0.28766899225730547    0.3359773973810551    0.3607347406604077    
  0.3548746484133509    0.3234069784655436    0.27800099303149706    0.2296680123161202    0.18525566052586104    
  0.14772128206249532    0.11762601928942978    0.09434559194683384    0.07681840553335066    0.0639775653949405    
  0.054935220726395534    0.04900169542507919    0.04566285471459302    0.04458840136300764    0.04566285471459312    
  0.049001695425079206    0.054935220726395534    0.0639775653949405    0.07681840553335062    0.09434559194683378    
  0.11762601928942974    0.14772128206249532    0.18525566052586104    0.2296680123161202    0.2780009930314971    
  0.3234069784655436    0.3548746484133509    0.3607347406604077    0.3359773973810551    0.2876689922573055    
  0.231950772680193    0.18467223649986803    0.1547427843896016    0.1447069219504599    0.2135542399190809    
  0.22284531416664144    0.24929988460062213    0.2876689922573055    0.3276161628008298    0.35569984836047797    
  0.36138583406352415    0.3425771148075407    0.3055651908700364    0.2600818975552921    0.21437443582136664    
  0.17332206571057135    0.1389207480937114    0.11138932514115846    0.09005281150327005    0.07392843473645273    
  0.06206901861553443    0.05369266414739715    0.04818420011700491    0.045079172311639465    0.044078845498073324    
  0.04507917231163952    0.04818420011700492    0.053692664147397165    0.06206901861553443    0.07392843473645269    
  0.09005281150327    0.11138932514115839    0.1389207480937114    0.17332206571057138    0.21437443582136664    
  0.2600818975552921    0.3055651908700364    0.3425771148075407    0.3613858340635241    0.35569984836047797    
  0.3276161628008299    0.2876689922573055    0.24929988460062208    0.22284531416664138    0.2135542399190809    
  0.28752749807479006    0.29425796429772194    0.3124280205233552    0.3359773973810551    0.35569984836047797    
  0.3622809694063994    0.35053564255331693    0.32168292036131546    0.2817943656821123    0.23811563275378425    
  0.19625336936789853    0.1593796296106913    0.1286921209047517    0.10414439982584703    0.08505732643041959    
  0.07056167173605428    0.059851229194928544    0.0522601322465645    0.047253960378643725    0.044424751868810765    
  0.04351167410988849    0.044424751868810834    0.047253960378643725    0.05226013224656452    0.059851229194928544    
  0.07056167173605424    0.08505732643041955    0.10414439982584696    0.1286921209047517    0.1593796296106913    
  0.19625336936789856    0.23811563275378425    0.2817943656821123    0.32168292036131546    0.3505356425533169    
  0.3622809694063993    0.3556998483604781    0.3359773973810551    0.3124280205233552    0.29425796429772194    
  0.28752749807479006    0.34276970831482245    0.3459006791857143    0.3535042492413713    0.3607347406604077    
  0.3613858340635241    0.3505356425533169    0.3268340800508055    0.29286526025081283    0.25346814364967846    
  0.21350140751833263    0.1764832047326592    0.14433316981525007    0.1176865592533281    0.09633797922090846    
  0.07965914138475466    0.06692143885141563    0.05746584861060005    0.050739785637195646    0.046288556182581334    
  0.043763867796577635    0.042947000326436    0.0437638677965777    0.046288556182581354    0.05073978563719569    
  0.05746584861060005    0.0669214388514156    0.0796591413847546    0.0963379792209084    0.1176865592533281    
  0.14433316981525007    0.17648320473265922    0.21350140751833258    0.25346814364967846    0.29286526025081283    
  0.3268340800508055    0.3505356425533169    0.3613858340635241    0.3607347406604077    0.35350424924137125    
  0.3459006791857143    0.34276970831482245    0.36158093490350024    0.36150624108656854    0.3601870078025271    
  0.35487464841335103    0.3425771148075407    0.3216829203613155    0.29286526025081283    0.2587492105493169    
  0.2227383685092151    0.18787857971609956    0.15628465252467091    0.12907192574964235    0.1065327222659508    
  0.08840483307376253    0.07415836585071495    0.0632171214744613    0.05506019814744715    0.049236415312124464    
  0.045365706422524715    0.0431598651125103    0.04244379363199548    0.04315986511251034    0.04536570642252472    
  0.04923641531212447    0.05506019814744715    0.06321712147446128    0.07415836585071492    0.0884048330737625    
  0.10653272226595079    0.12907192574964235    0.15628465252467094    0.1878785797160995    0.2227383685092151    
  0.2587492105493169    0.29286526025081283    0.32168292036131546    0.3425771148075407    0.35487464841335103    
  0.36018700780252716    0.36150624108656854    0.36158093490350024    0.34342453640648357    0.34145824702836913    
  0.3351173284565711    0.3234069784655436    0.3055651908700363    0.28179436568211236    0.25346814364967846    
  0.2227383685092151    0.19188238644639882    0.1627894598755209    0.1367324698063131    0.11435266635504963    
  0.09576299063485696    0.0807222391203189    0.06882595333230385    0.059643193225519406    0.05277100634798912    
  0.04784454610971289    0.044552690993662485    0.04266578726112808    0.042050845782875934    0.04266578726112815    
  0.04455269099366249    0.04784454610971292    0.05277100634798912    0.05964319322551938    0.06882595333230379    
  0.08072223912031885    0.09576299063485694    0.11435266635504965    0.1367324698063131    0.16278945987552088    
  0.19188238644639882    0.2227383685092151    0.25346814364967846    0.28179436568211236    0.3055651908700364    
  0.3234069784655436    0.3351173284565711    0.3414582470283692    0.34342453640648357    0.3013311180836914    
  0.2987625149703947    0.2909970749409407    0.27800099303149717    0.26008189755529215    0.23811563275378425    
  0.2135014075183327    0.18787857971609953    0.16278945987552088    0.1394453643803345    0.11863313320064232    
  0.1007265294427441    0.08576569553951865    0.0735744202153399    0.06387359152191896    0.05635367259107678    
  0.050704947785639824    0.046635445987468    0.043898272583575905    0.04231892069363631    0.04180206843829486    
  0.04231892069363638    0.04389827258357592    0.046635445987468035    0.050704947785639824    0.05635367259107675    
  0.06387359152191893    0.07357442021533989    0.08576569553951863    0.1007265294427441    0.11863313320064235    
  0.13944536438033447    0.16278945987552088    0.18787857971609956    0.21350140751833263    0.23811563275378425    
  0.26008189755529215    0.27800099303149717    0.2909970749409407    0.2987625149703947    0.3013311180836914    
  0.25070270671938477    0.24830053885967462    0.24118410407470553    0.22966801231612025    0.21437443582136664    
  0.19625336936789856    0.17648320473265922    0.15628465252467091    0.1367324698063131    0.11863313320064237    
  0.10248853766426053    0.08852869678516768    0.07678108280531008    0.06714356701529613    0.05943863332786147    
  0.05344589493364338    0.04892611270524788    0.04564992532170328    0.04342972365188696    0.04214008218035387    
  0.041716429111734545    0.042140082180353915    0.04342972365188695    0.04564992532170332    0.04892611270524788    
  0.05344589493364333    0.05943863332786144    0.06714356701529609    0.07678108280531007    0.08852869678516768    
  0.10248853766426057    0.11863313320064235    0.1367324698063131    0.15628465252467091    0.17648320473265922    
  0.19625336936789856    0.21437443582136664    0.2296680123161202    0.2411841040747055    0.24830053885967457    
  0.25070270671938477    0.2020460132597387    0.20010004165353454    0.19438215699095365    0.185255660525861    
  0.17332206571057135    0.15937962961069124    0.14433316981525005    0.1290719257496423    0.11435266635504963    
  0.10072652944274407    0.08852869678516766    0.07791828654894714    0.06893292829258302    0.06152721430179014    
  0.05559072695754467    0.05096261553061678    0.047457514586583295    0.0449002996034004    0.043154977882657986    
  0.04213566382780163    0.04179991357759738    0.04213566382780166    0.043154977882657986    0.04490029960340041    
  0.047457514586583295    0.050962615530616755    0.055590726957544634    0.06152721430179014    0.06893292829258302    
  0.07791828654894713    0.08852869678516768    0.1007265294427441    0.11435266635504963    0.1290719257496423    
  0.14433316981525002    0.15937962961069121    0.17332206571057135    0.185255660525861    0.1943821569909536    
  0.20010004165353454    0.2020460132597387    0.16022710404117715    0.15876776801872916    0.1544963286182698    
  0.14772128206249532    0.13892074809371147    0.12869212090475174    0.11768655925332812    0.10653272226595083    
  0.09576299063485696    0.08576569553951864    0.0767810828053101    0.06893292829258305    0.06226555954515388    
  0.05676245144502611    0.05235010973984148    0.04890785899684484    0.046294165221103814    0.04437938197907302    
  0.043067467016729526    0.04229964199837447    0.04204657710890691    0.04229964199837452    0.043067467016729526    
  0.04437938197907305    0.046294165221103814    0.048907858996844876    0.05235010973984146    0.05676245144502609    
  0.06226555954515388    0.06893292829258303    0.07678108280531014    0.08576569553951867    0.09576299063485696    
  0.10653272226595083    0.11768655925332812    0.1286921209047517    0.1389207480937115    0.14772128206249532    
  0.1544963286182698    0.15876776801872913    0.16022710404117715    0.12652285699675447    0.12548118010242815    
  0.12243831991959163    0.11762601928942974    0.11138932514115842    0.104144399825847    0.09633797922090842    
  0.08840483307376248    0.08072223912031887    0.07357442021533987    0.06714356701529606    0.06152721430179012    
  0.05676245144502606    0.05283898029155056    0.04970257424379717    0.047263548265397796    0.04541748919438014    
  0.04406967786624473    0.0431498772069326    0.042613724523848186    0.04243749349970414    0.04261372452384821    
  0.0431498772069326    0.04406967786624483    0.04541748919438014    0.04726354826539784    0.04970257424379715    
  0.05283898029155054    0.05676245144502606    0.06152721430179012    0.0671435670152961    0.07357442021533987    
  0.08072223912031887    0.08840483307376251    0.09633797922090839    0.1041443998258469    0.11138932514115846    
  0.11762601928942974    0.12243831991959164    0.12548118010242815    0.12652285699675447    0.10047128740174964    
  0.09975320986951204    0.09765736094403787    0.09434559194683381    0.09005281150327    0.08505732643041959    
  0.07965914138475466    0.0741583658507149    0.06882595333230383    0.0638735915219189    0.05943863332786142    
  0.05559072695754467    0.05235010973984148    0.04970257424379717    0.04760637017871629    0.04599771012738175    
  0.0448015993730074    0.043946261254969976    0.04337415773570457    0.04304582011622137    0.042938794197883705    
  0.04304582011622139    0.04337415773570457    0.04394626125497002    0.0448015993730074    0.04599771012738177    
  0.047606370178716245    0.0497025742437971    0.05235010973984148    0.055590726957544655    0.05943863332786144    
  0.06387359152191893    0.06882595333230383    0.07415836585071492    0.0796591413847546    0.08505732643041959    
  0.09005281150327002    0.09434559194683381    0.09765736094403789    0.09975320986951204    0.10047128740174964    
  0.08093896346749406    0.08045594914144197    0.0790462894308519    0.07681840553335069    0.07392843473645272    
  0.0705616717360543    0.06692143885141566    0.06321712147446129    0.05964319322551939    0.05635367259107673    
  0.053445894933643344    0.05096261553061682    0.04890785899684486    0.04726354826539784    0.0459977101273818    
  0.04506550281762229    0.04441077085045896    0.04397322636957625    0.04369911181982624    0.043549338480612126    
  0.04350173446813733    0.043549338480612224    0.04369911181982624    0.04397322636957622    0.04441077085045896    
  0.04506550281762234    0.04599771012738172    0.04726354826539782    0.048907858996844876    0.05096261553061684    
  0.053445894933643365    0.056353672591076764    0.05964319322551939    0.06321712147446129    0.06692143885141563    
  0.07056167173605431    0.07392843473645273    0.07681840553335069    0.07904628943085187    0.08045594914144198    
  0.08093896346749406    0.0667011066091041    0.06638187867017079    0.06545010709105573    0.06397756539494048    
  0.062069018615534426    0.05985122919492854    0.05746584861060003    0.055060198147447136    0.05277100634798906    
  0.05070494778563983    0.04892611270524783    0.0474575145865833    0.04629416522110383    0.04541748919438014    
  0.04480159937300745    0.04441077085045894    0.04419627353532559    0.04410086911186585    0.04407073779747673    
  0.04406665761934288    0.044067395907730296    0.044066657619342905    0.04407073779747673    0.04410086911186585    
  0.04419627353532559    0.04441077085045889    0.04480159937300742    0.04541748919438014    0.04629416522110379    
  0.0474575145865833    0.04892611270524783    0.05070494778563986    0.05277100634798906    0.055060198147447136    
  0.0574658486106    0.05985122919492851    0.062069018615534426    0.06397756539494048    0.06545010709105573    
  0.06638187867017079    0.0667011066091041    0.056715578082762674    0.05650679763270723    0.05589738570350576    
  0.054935220726395506    0.05369266414739714    0.052260132246564533    0.05073978563719564    0.04923641531212445    
  0.04784454610971288    0.046635445987468    0.04564992532170326    0.044900299603400445    0.04437938197907305    
  0.04406967786624478    0.043946261254970045    0.04397322636957627    0.04410086911186583    0.04427096150779201    
  0.04442941296321723    0.04453770240586685    0.044575716776235584    0.04453770240586688    0.04442941296321723    
  0.04427096150779201    0.04410086911186583    0.04397322636957627    0.04394626125497002    0.04406967786624476    
  0.04437938197907305    0.044900299603400445    0.0456499253217033    0.04663544598746804    0.04784454610971288    
  0.049236415312124464    0.05073978563719562    0.05226013224656453    0.053692664147397165    0.054935220726395506    
  0.05589738570350578    0.05650679763270725    0.056715578082762674    0.05018067689930551    0.050042334489586296    
  0.049638450139711375    0.04900169542507926    0.04818420011700493    0.04725396037864376    0.04628855618258132    
  0.04536570642252473    0.04455269099366249    0.043898272583575905    0.04342972365188692    0.043154977882658055    
  0.043067467016729574    0.0431498772069326    0.04337415773570464    0.04369911181982626    0.04407073779747673    
  0.04442941296321723    0.044721809008678705    0.04491036318127253    0.044975162520454394    0.044910363181272554    
  0.04472180900867868    0.04442941296321723    0.04407073779747673    0.04369911181982624    0.04337415773570459    
  0.04314987720693255    0.043067467016729574    0.043154977882658076    0.04342972365188692    0.04389827258357593    
  0.04455269099366249    0.045365706422524715    0.04628855618258129    0.04725396037864375    0.048184200117004944    
  0.04900169542507924    0.04963845013971139    0.05004233448958629    0.05018067689930551    0.04650998213282653    
  0.04641058988268729    0.04612022498710691    0.04566285471459306    0.04507917231163948    0.04442475186881075    
  0.04376386779657766    0.04315986511251028    0.042665787261128116    0.04231892069363633    0.04214008218035388    
  0.04213566382780168    0.04229964199837445    0.042613724523848186    0.04304582011622137    0.043549338480612175    
  0.04406665761934288    0.04453770240586685    0.044910363181272506    0.04514760540367073    0.04522881679121346    
  0.0451476054036707    0.044910363181272506    0.04453770240586683    0.04406665761934288    0.043549338480612175    
  0.04304582011622132    0.042613724523848144    0.04229964199837445    0.04213566382780166    0.04214008218035387    
  0.04231892069363637    0.042665787261128116    0.04315986511251031    0.043763867796577635    0.04442475186881077    
  0.045079172311639486    0.04566285471459305    0.04612022498710691    0.04641058988268727    0.04650998213282653    
  0.04532995332489489    0.0452429779402587    0.04498876201565318    0.04458840136300767    0.04407884549807336    
  0.043511674109888564    0.04294700032643605    0.04244379363199551    0.04205084578287595    0.04180206843829483    
  0.04171642911173464    0.04179991357759745    0.04204657710890698    0.04243749349970419    0.04293879419788375    
  0.04350173446813735    0.044067395907730296    0.04457571677623561    0.044975162520454366    0.04522881679121343    
  0.04531560292827472    0.04522881679121343    0.044975162520454394    0.044575716776235584    0.044067395907730296    
  0.04350173446813733    0.042938794197883705    0.04243749349970416    0.04204657710890696    0.04179991357759745    
  0.04171642911173465    0.04180206843829489    0.04205084578287595    0.04244379363199551    0.04294700032643601    
  0.043511674109888536    0.044078845498073366    0.04458840136300768    0.044988762015653154    0.04524297794025871    
  0.04532995332489489    0.04650998213282656    0.04641058988268731    0.046120224987106925    0.04566285471459307    
  0.045079172311639513    0.04442475186881075    0.04376386779657766    0.04315986511251027    0.042665787261128116    
  0.04231892069363632    0.04214008218035388    0.04213566382780168    0.04229964199837447    0.04261372452384821    
  0.04304582011622137    0.043549338480612196    0.04406665761934288    0.044537702405866804    0.04491036318127253    
  0.04514760540367073    0.04522881679121341    0.04514760540367068    0.044910363181272554    0.04453770240586683    
  0.04406665761934288    0.04354933848061215    0.04304582011622135    0.042613724523848165    0.04229964199837447    
  0.042135663827801643    0.04214008218035387    0.042318920693636346    0.042665787261128116    0.043159865112510284    
  0.043763867796577635    0.044424751868810765    0.04507917231163949    0.04566285471459307    0.046120224987106925    
  0.046410589882687286    0.04650998213282656    0.0501806768993055    0.0500423344895863    0.04963845013971136    
  0.04900169542507925    0.048184200117004944    0.04725396037864375    0.04628855618258134    0.04536570642252472    
  0.044552690993662505    0.0438982725835759    0.04342972365188692    0.04315497788265803    0.04306746701672955    
  0.0431498772069326    0.04337415773570466    0.04369911181982624    0.04407073779747671    0.04442941296321719    
  0.044721809008678726    0.044910363181272554    0.044975162520454394    0.044910363181272575    0.044721809008678726    
  0.04442941296321719    0.04407073779747671    0.04369911181982624    0.04337415773570464    0.04314987720693257    
  0.04306746701672955    0.04315497788265799    0.0434297236518869    0.043898272583575954    0.044552690993662505    
  0.045365706422524715    0.046288556182581306    0.04725396037864374    0.04818420011700497    0.04900169542507925    
  0.04963845013971138    0.050042334489586296    0.0501806768993055    0.05671557808276271    0.056506797632707266    
  0.055897385703505796    0.05493522072639554    0.05369266414739715    0.05226013224656455    0.05073978563719565    
  0.049236415312124464    0.04784454610971288    0.04663544598746802    0.0456499253217033    0.044900299603400445    
  0.044379381979073    0.04406967786624485    0.04394626125497002    0.04397322636957627    0.04410086911186585    
  0.04427096150779198    0.04442941296321723    0.04453770240586683    0.04457571677623563    0.04453770240586685    
  0.04442941296321723    0.04427096150779196    0.04410086911186585    0.04397322636957625    0.043946261254969976    
  0.04406967786624478    0.044379381979073    0.044900299603400466    0.04564992532170332    0.046635445987468035    
  0.04784454610971288    0.049236415312124464    0.05073978563719563    0.052260132246564533    0.05369266414739715    
  0.05493522072639554    0.05589738570350576    0.05650679763270728    0.05671557808276271    0.0667011066091041    
  0.06638187867017079    0.06545010709105573    0.06397756539494048    0.062069018615534426    0.05985122919492854    
  0.05746584861060003    0.055060198147447136    0.05277100634798906    0.05070494778563983    0.04892611270524783    
  0.0474575145865833    0.04629416522110383    0.04541748919438014    0.04480159937300745    0.04441077085045894    
  0.04419627353532559    0.04410086911186585    0.04407073779747673    0.04406665761934288    0.044067395907730296    
  0.044066657619342905    0.04407073779747673    0.04410086911186585    0.04419627353532559    0.04441077085045889    
  0.04480159937300742    0.04541748919438014    0.04629416522110379    0.0474575145865833    0.04892611270524783    
  0.05070494778563986    0.05277100634798906    0.055060198147447136    0.0574658486106    0.05985122919492851    
  0.062069018615534426    0.06397756539494048    0.06545010709105573    0.06638187867017079    0.0667011066091041    
  0.08093896346749406    0.08045594914144195    0.07904628943085187    0.07681840553335065    0.0739284347364527    
  0.0705616717360543    0.06692143885141562    0.06321712147446129    0.05964319322551936    0.05635367259107673    
  0.053445894933643316    0.050962615530616824    0.04890785899684484    0.04726354826539782    0.04599771012738177    
  0.04506550281762234    0.04441077085045896    0.04397322636957622    0.04369911181982622    0.04354933848061215    
  0.04350173446813726    0.043549338480612196    0.04369911181982622    0.04397322636957622    0.04441077085045896    
  0.04506550281762236    0.04599771012738177    0.047263548265397796    0.04890785899684484    0.05096261553061682    
  0.053445894933643344    0.056353672591076764    0.05964319322551936    0.06321712147446129    0.0669214388514156    
  0.07056167173605428    0.07392843473645273    0.07681840553335066    0.07904628943085189    0.08045594914144197    
  0.08093896346749406    0.10047128740174961    0.09975320986951203    0.09765736094403789    0.09434559194683384    
  0.09005281150327    0.08505732643041958    0.0796591413847546    0.07415836585071492    0.06882595333230383    
  0.06387359152191889    0.05943863332786141    0.05559072695754467    0.052350109739841444    0.04970257424379717    
  0.047606370178716266    0.04599771012738175    0.04480159937300745    0.043946261254969976    0.04337415773570464    
  0.04304582011622132    0.042938794197883726    0.04304582011622135    0.04337415773570461    0.04394626125497002    
  0.04480159937300745    0.04599771012738172    0.047606370178716245    0.04970257424379712    0.052350109739841444    
  0.05559072695754468    0.05943863332786142    0.0638735915219189    0.06882595333230383    0.0741583658507149    
  0.07965914138475459    0.08505732643041955    0.09005281150327    0.09434559194683384    0.09765736094403792    
  0.09975320986951203    0.10047128740174961    0.12652285699675447    0.12548118010242815    0.12243831991959163    
  0.11762601928942971    0.11138932514115839    0.10414439982584697    0.09633797922090843    0.08840483307376248    
  0.08072223912031884    0.07357442021533987    0.06714356701529607    0.06152721430179014    0.05676245144502604    
  0.05283898029155059    0.04970257424379717    0.04726354826539784    0.04541748919438014    0.04406967786624481    
  0.04314987720693255    0.042613724523848165    0.04243749349970416    0.042613724523848186    0.04314987720693255    
  0.04406967786624478    0.04541748919438014    0.047263548265397796    0.04970257424379712    0.05283898029155054    
  0.05676245144502604    0.06152721430179012    0.0671435670152961    0.0735744202153399    0.08072223912031884    
  0.0884048330737625    0.0963379792209084    0.10414439982584697    0.11138932514115839    0.11762601928942974    
  0.12243831991959164    0.12548118010242815    0.12652285699675447    0.16022710404117718    0.1587677680187292    
  0.1544963286182698    0.14772128206249532    0.13892074809371144    0.1286921209047517    0.1176865592533281    
  0.1065327222659508    0.09576299063485696    0.08576569553951863    0.0767810828053101    0.06893292829258303    
  0.062265559545153865    0.05676245144502608    0.05235010973984146    0.04890785899684484    0.04629416522110381    
  0.04437938197907307    0.04306746701672955    0.0422996419983745    0.042046577108906934    0.04229964199837452    
  0.043067467016729526    0.04437938197907307    0.04629416522110381    0.04890785899684485    0.05235010973984143    
  0.05676245144502609    0.06226555954515388    0.06893292829258303    0.07678108280531012    0.08576569553951867    
  0.09576299063485696    0.1065327222659508    0.11768655925332808    0.1286921209047517    0.13892074809371147    
  0.14772128206249532    0.1544963286182698    0.15876776801872916    0.16022710404117718    0.2020460132597387    
  0.20010004165353454    0.1943821569909536    0.18525566052586104    0.17332206571057135    0.15937962961069124    
  0.14433316981525007    0.1290719257496423    0.11435266635504963    0.10072652944274409    0.08852869678516766    
  0.07791828654894714    0.06893292829258303    0.06152721430179016    0.05559072695754467    0.050962615530616824    
  0.047457514586583316    0.04490029960340042    0.043154977882658006    0.04213566382780162    0.041799913577597395    
  0.042135663827801664    0.04315497788265803    0.04490029960340042    0.047457514586583316    0.0509626155306168    
  0.055590726957544606    0.06152721430179012    0.068932928292583    0.07791828654894711    0.08852869678516766    
  0.10072652944274407    0.11435266635504963    0.1290719257496423    0.14433316981525005    0.15937962961069127    
  0.17332206571057135    0.18525566052586107    0.19438215699095363    0.20010004165353454    0.2020460132597387    
  0.25070270671938477    0.24830053885967462    0.2411841040747055    0.22966801231612025    0.21437443582136664    
  0.19625336936789853    0.17648320473265922    0.15628465252467091    0.1367324698063131    0.11863313320064235    
  0.10248853766426051    0.0885286967851677    0.07678108280531012    0.06714356701529611    0.05943863332786145    
  0.05344589493364338    0.04892611270524783    0.0456499253217033    0.04342972365188699    0.042140082180353845    