
     Program PWSCF v.6.5 starts on 20Mar2023 at 13:55:39 

     This program is part of the open-source Quantum ESPRESSO suite
     for quantum simulation of materials; please cite
         "P. Giannozzi et al., J. Phys.:Condens. Matter 21 395502 (2009);
         "P. Giannozzi et al., J. Phys.:Condens. Matter 29 465901 (2017);
          URL http://www.quantum-espresso.org", 
     in publications or presentations arising from this work. More details at
     http://www.quantum-espresso.org/quote

     Serial version
     Reading input from /home/valeria/Documents/DFTPY/Fitting_densities/Si-bcc/DATA2/Si1.in
Warning: card &IONS ignored
Warning: card / ignored
Warning: card &CELL ignored
Warning: card / ignored
Warning: card &FCP ignored
Warning: card / ignored
Warning: card &RISM ignored
Warning: card / ignored

     Current dimensions of program PWSCF are:
     Max number of different atomic species (ntypx) = 10
     Max number of k-points (npk) =  40000
     Max angular momentum in pseudopotentials (lmaxx) =  3

     WARNING: check_stop already initialized
     Found symmetry operation: I + ( -0.5000 -0.5000 -0.5000)
     This is a supercell, fractional translations are disabled
     Message from routine setup:
     using ibrav=0 with symmetry is DISCOURAGED, use correct ibrav instead

     G-vector sticks info
     --------------------
     sticks:   dense  smooth     PW     G-vecs:    dense   smooth      PW
     Sum         437     437    145                 6931     6931    1309



     bravais-lattice index     =            0
     lattice parameter (alat)  =       4.7922  a.u.
     unit-cell volume          =     110.0548 (a.u.)^3
     number of atoms/cell      =            2
     number of atomic types    =            1
     number of electrons       =         8.00
     number of Kohn-Sham states=            8
     kinetic-energy cutoff     =      60.0000  Ry
     charge density cutoff     =     240.0000  Ry
     convergence threshold     =      1.0E-06
     mixing beta               =       0.7000
     number of iterations used =            8  plain     mixing
     Exchange-correlation= LDA
                           (   1   1   0   0   0   0   0)

     celldm(1)=   4.792215  celldm(2)=   0.000000  celldm(3)=   0.000000
     celldm(4)=   0.000000  celldm(5)=   0.000000  celldm(6)=   0.000000

     crystal axes: (cart. coord. in units of alat)
               a(1) = (   1.000000   0.000000   0.000000 )  
               a(2) = (   0.000000   1.000000   0.000000 )  
               a(3) = (   0.000000   0.000000   1.000000 )  

     reciprocal axes: (cart. coord. in units 2 pi/alat)
               b(1) = (  1.000000  0.000000  0.000000 )  
               b(2) = (  0.000000  1.000000  0.000000 )  
               b(3) = (  0.000000  0.000000  1.000000 )  


     PseudoPot. # 1 for Si read from file:
     /home/valeria/Desktop/programs/dftpy/examples/ofpp/EAC/upf/blps/si.lda.upf
     MD5 check sum: 946fc5a8d23174f015515f8139e499ed
     Pseudo is Norm-conserving, Zval =  4.0
     DFTpy
     Using radial grid of 1601 points,  1 beta functions with: 
                l(1) =   0

     atomic species   valence    mass     pseudopotential
        Si             4.00    28.08000     Si( 1.00)

     48 Sym. Ops., with inversion, found



   Cartesian axes

     site n.     atom                  positions (alat units)
         1           Si  tau(   1) = (   0.0000000   0.0000000   0.0000000  )
         2           Si  tau(   2) = (   0.5000000   0.5000000   0.5000000  )

     number of k points=   220  Gaussian smearing, width (Ry)=  0.0050

     Number of k-points >= 100: set verbosity='high' to print them.

     Dense  grid:     6931 G-vectors     FFT dimensions: (  24,  24,  24)

     Estimated max dynamical RAM per process >      28.07 MB

     Initial potential from superposition of free atoms

     starting charge    7.99872, renormalised to    8.00000
     Starting wfcs are random

     total cpu time spent up to now is        1.4 secs

     Self-consistent Calculation

     iteration #  1     ecut=    60.00 Ry     beta= 0.70
     Davidson diagonalization with overlap
     ethr =  1.00E-02,  avg # of iterations =  6.5

     Threshold (ethr) on eigenvalues was too large:
     Diagonalizing with lowered threshold

     Davidson diagonalization with overlap
     ethr =  2.52E-04,  avg # of iterations =  1.5

     total cpu time spent up to now is       10.6 secs

     total energy              =     -15.76083685 Ry
     Harris-Foulkes estimate   =     -15.76617803 Ry
     estimated scf accuracy    <       0.02006863 Ry

     iteration #  2     ecut=    60.00 Ry     beta= 0.70
     Davidson diagonalization with overlap
     ethr =  2.51E-04,  avg # of iterations =  1.0

     total cpu time spent up to now is       12.7 secs

     total energy              =     -15.76094711 Ry
     Harris-Foulkes estimate   =     -15.76114313 Ry
     estimated scf accuracy    <       0.00130070 Ry

     iteration #  3     ecut=    60.00 Ry     beta= 0.70
     Davidson diagonalization with overlap
     ethr =  1.63E-05,  avg # of iterations =  2.0

     total cpu time spent up to now is       15.0 secs

     total energy              =     -15.76099465 Ry
     Harris-Foulkes estimate   =     -15.76099284 Ry
     estimated scf accuracy    <       0.00000407 Ry

     iteration #  4     ecut=    60.00 Ry     beta= 0.70
     Davidson diagonalization with overlap
     ethr =  5.09E-08,  avg # of iterations =  3.0

     total cpu time spent up to now is       18.0 secs

     End of self-consistent calculation

     Number of k-points >= 100: set verbosity='high' to print the bands.

     the Fermi energy is    20.4996 ev

!    total energy              =     -15.76099749 Ry
     Harris-Foulkes estimate   =     -15.76099750 Ry
     estimated scf accuracy    <       0.00000023 Ry

     The total energy is the sum of the following terms:

     one-electron contribution =      14.28797978 Ry
     hartree contribution      =       0.04688199 Ry
     xc contribution           =      -5.79478368 Ry
     ewald contribution        =     -24.30096872 Ry
     smearing contrib. (-TS)   =      -0.00010686 Ry

     convergence has been achieved in   4 iterations

 Energies determined by pw2casino tool
 -------------------------------------
 Kinetic energy      4.2365886545301903       au  =     8.4731773090603806       Ry
 Local energy        2.9074012342967426       au  =     5.8148024685934852       Ry
 Non-Local energy    0.0000000000000000       au  =     0.0000000000000000       Ry
 Ewald energy       -12.150484361292058       au  =    -24.300968722584116       Ry
 xc contribution    -2.8973918375030046       au  =    -5.7947836750060091       Ry
 hartree energy      2.3440995906131884E-002  au  =     4.6881991812263768E-002  Ry
 Smearing (-TS)     -5.3431861569335146E-005  au  =    -1.0686372313867029E-004  Ry
 Total energy       -7.8804987459162659       au  =    -15.760997491832532       Ry
 -------------------------------------
 Total energy0      -7.8804987459235667       au  =    -15.760997491847133       Ry
 External energy0    0.0000000000000000       au  =     0.0000000000000000       Ry
 -------------------------------------


     Writing output data file ./si.save/
