
     Program PWSCF v.6.5 starts on 20Mar2023 at 14: 4:19 

     This program is part of the open-source Quantum ESPRESSO suite
     for quantum simulation of materials; please cite
         "P. Giannozzi et al., J. Phys.:Condens. Matter 21 395502 (2009);
         "P. Giannozzi et al., J. Phys.:Condens. Matter 29 465901 (2017);
          URL http://www.quantum-espresso.org", 
     in publications or presentations arising from this work. More details at
     http://www.quantum-espresso.org/quote

     Serial version
     Reading input from /home/valeria/Documents/DFTPY/Fitting_densities/Si-bcc/DATA2/Si17.in
Warning: card &IONS ignored
Warning: card / ignored
Warning: card &CELL ignored
Warning: card / ignored
Warning: card &FCP ignored
Warning: card / ignored
Warning: card &RISM ignored
Warning: card / ignored

     Current dimensions of program PWSCF are:
     Max number of different atomic species (ntypx) = 10
     Max number of k-points (npk) =  40000
     Max angular momentum in pseudopotentials (lmaxx) =  3

     WARNING: check_stop already initialized
     Found symmetry operation: I + ( -0.5000 -0.5000 -0.5000)
     This is a supercell, fractional translations are disabled
     Message from routine setup:
     using ibrav=0 with symmetry is DISCOURAGED, use correct ibrav instead

     G-vector sticks info
     --------------------
     sticks:   dense  smooth     PW     G-vecs:    dense   smooth      PW
     Sum         869     869    261                19093    19093    3191



     bravais-lattice index     =            0
     lattice parameter (alat)  =       6.7252  a.u.
     unit-cell volume          =     304.1708 (a.u.)^3
     number of atoms/cell      =            2
     number of atomic types    =            1
     number of electrons       =         8.00
     number of Kohn-Sham states=            8
     kinetic-energy cutoff     =      60.0000  Ry
     charge density cutoff     =     240.0000  Ry
     convergence threshold     =      1.0E-06
     mixing beta               =       0.7000
     number of iterations used =            8  plain     mixing
     Exchange-correlation= LDA
                           (   1   1   0   0   0   0   0)

     celldm(1)=   6.725209  celldm(2)=   0.000000  celldm(3)=   0.000000
     celldm(4)=   0.000000  celldm(5)=   0.000000  celldm(6)=   0.000000

     crystal axes: (cart. coord. in units of alat)
               a(1) = (   1.000000   0.000000   0.000000 )  
               a(2) = (   0.000000   1.000000   0.000000 )  
               a(3) = (   0.000000   0.000000   1.000000 )  

     reciprocal axes: (cart. coord. in units 2 pi/alat)
               b(1) = (  1.000000  0.000000  0.000000 )  
               b(2) = (  0.000000  1.000000  0.000000 )  
               b(3) = (  0.000000  0.000000  1.000000 )  


     PseudoPot. # 1 for Si read from file:
     /home/valeria/Desktop/programs/dftpy/examples/ofpp/EAC/upf/blps/si.lda.upf
     MD5 check sum: 946fc5a8d23174f015515f8139e499ed
     Pseudo is Norm-conserving, Zval =  4.0
     DFTpy
     Using radial grid of 1601 points,  1 beta functions with: 
                l(1) =   0

     atomic species   valence    mass     pseudopotential
        Si             4.00    28.08000     Si( 1.00)

     48 Sym. Ops., with inversion, found



   Cartesian axes

     site n.     atom                  positions (alat units)
         1           Si  tau(   1) = (   0.0000000   0.0000000   0.0000000  )
         2           Si  tau(   2) = (   0.5000000   0.5000000   0.5000000  )

     number of k points=   220  Gaussian smearing, width (Ry)=  0.0050

     Number of k-points >= 100: set verbosity='high' to print them.

     Dense  grid:    19093 G-vectors     FFT dimensions: (  36,  36,  36)

     Estimated max dynamical RAM per process >      78.00 MB

     Initial potential from superposition of free atoms

     starting charge    7.99872, renormalised to    8.00000
     Starting wfcs are random

     total cpu time spent up to now is        3.8 secs

     Self-consistent Calculation

     iteration #  1     ecut=    60.00 Ry     beta= 0.70
     Davidson diagonalization with overlap
     ethr =  1.00E-02,  avg # of iterations =  6.8

     Threshold (ethr) on eigenvalues was too large:
     Diagonalizing with lowered threshold

     Davidson diagonalization with overlap
     ethr =  9.94E-05,  avg # of iterations =  2.0

     total cpu time spent up to now is       33.1 secs

     total energy              =     -15.98245856 Ry
     Harris-Foulkes estimate   =     -15.98547699 Ry
     estimated scf accuracy    <       0.00761907 Ry

     iteration #  2     ecut=    60.00 Ry     beta= 0.70
     Davidson diagonalization with overlap
     ethr =  9.52E-05,  avg # of iterations =  1.0

     total cpu time spent up to now is       40.1 secs

     total energy              =     -15.98276083 Ry
     Harris-Foulkes estimate   =     -15.98283040 Ry
     estimated scf accuracy    <       0.00023391 Ry

     iteration #  3     ecut=    60.00 Ry     beta= 0.70
     Davidson diagonalization with overlap
     ethr =  2.92E-06,  avg # of iterations =  2.8

     total cpu time spent up to now is       49.7 secs

     total energy              =     -15.98280917 Ry
     Harris-Foulkes estimate   =     -15.98280924 Ry
     estimated scf accuracy    <       0.00000215 Ry

     iteration #  4     ecut=    60.00 Ry     beta= 0.70
     Davidson diagonalization with overlap
     ethr =  2.69E-08,  avg # of iterations =  2.0

     total cpu time spent up to now is       58.1 secs

     End of self-consistent calculation

     Number of k-points >= 100: set verbosity='high' to print the bands.

     the Fermi energy is     5.3077 ev

!    total energy              =     -15.98280957 Ry
     Harris-Foulkes estimate   =     -15.98280963 Ry
     estimated scf accuracy    <       0.00000017 Ry

     The total energy is the sum of the following terms:

     one-electron contribution =       5.45160515 Ry
     hartree contribution      =       0.28209095 Ry
     xc contribution           =      -4.40002653 Ry
     ewald contribution        =     -17.31625915 Ry
     smearing contrib. (-TS)   =      -0.00021999 Ry

     convergence has been achieved in   4 iterations

 Energies determined by pw2casino tool
 -------------------------------------
 Kinetic energy      2.5409490186185457       au  =     5.0818980372370914       Ry
 Local energy       0.18485355747847004       au  =    0.36970711495694009       Ry
 Non-Local energy    0.0000000000000000       au  =     0.0000000000000000       Ry
 Ewald energy       -8.6581295752950957       au  =    -17.316259150590191       Ry
 xc contribution    -2.2000132660851199       au  =    -4.4000265321702399       Ry
 hartree energy     0.14104547523620478       au  =    0.28209095047240956       Ry
 Smearing (-TS)     -1.0999351583450562E-004  au  =    -2.1998703166901124E-004  Ry
 Total energy       -7.9914047835483677       au  =    -15.982809567096735       Ry
 -------------------------------------
 Total energy0      -7.9914047835628290       au  =    -15.982809567125658       Ry
 External energy0    0.0000000000000000       au  =     0.0000000000000000       Ry
 -------------------------------------


     Writing output data file ./si.save/
