
     Program PWSCF v.6.5 starts on 20Mar2023 at 14: 8:55 

     This program is part of the open-source Quantum ESPRESSO suite
     for quantum simulation of materials; please cite
         "P. Giannozzi et al., J. Phys.:Condens. Matter 21 395502 (2009);
         "P. Giannozzi et al., J. Phys.:Condens. Matter 29 465901 (2017);
          URL http://www.quantum-espresso.org", 
     in publications or presentations arising from this work. More details at
     http://www.quantum-espresso.org/quote

     Serial version
     Reading input from /home/valeria/Documents/DFTPY/Fitting_densities/Si-bcc/DATA2/Si21.in
Warning: card &IONS ignored
Warning: card / ignored
Warning: card &CELL ignored
Warning: card / ignored
Warning: card &FCP ignored
Warning: card / ignored
Warning: card &RISM ignored
Warning: card / ignored

     Current dimensions of program PWSCF are:
     Max number of different atomic species (ntypx) = 10
     Max number of k-points (npk) =  40000
     Max angular momentum in pseudopotentials (lmaxx) =  3

     WARNING: check_stop already initialized
     Found symmetry operation: I + ( -0.5000 -0.5000 -0.5000)
     This is a supercell, fractional translations are disabled
     Message from routine setup:
     using ibrav=0 with symmetry is DISCOURAGED, use correct ibrav instead

     G-vector sticks info
     --------------------
     sticks:   dense  smooth     PW     G-vecs:    dense   smooth      PW
     Sum         989     989    293                23583    23583    3887



     bravais-lattice index     =            0
     lattice parameter (alat)  =       7.2085  a.u.
     unit-cell volume          =     374.5649 (a.u.)^3
     number of atoms/cell      =            2
     number of atomic types    =            1
     number of electrons       =         8.00
     number of Kohn-Sham states=            8
     kinetic-energy cutoff     =      60.0000  Ry
     charge density cutoff     =     240.0000  Ry
     convergence threshold     =      1.0E-06
     mixing beta               =       0.7000
     number of iterations used =            8  plain     mixing
     Exchange-correlation= LDA
                           (   1   1   0   0   0   0   0)

     celldm(1)=   7.208458  celldm(2)=   0.000000  celldm(3)=   0.000000
     celldm(4)=   0.000000  celldm(5)=   0.000000  celldm(6)=   0.000000

     crystal axes: (cart. coord. in units of alat)
               a(1) = (   1.000000   0.000000   0.000000 )  
               a(2) = (   0.000000   1.000000   0.000000 )  
               a(3) = (   0.000000   0.000000   1.000000 )  

     reciprocal axes: (cart. coord. in units 2 pi/alat)
               b(1) = (  1.000000  0.000000  0.000000 )  
               b(2) = (  0.000000  1.000000  0.000000 )  
               b(3) = (  0.000000  0.000000  1.000000 )  


     PseudoPot. # 1 for Si read from file:
     /home/valeria/Desktop/programs/dftpy/examples/ofpp/EAC/upf/blps/si.lda.upf
     MD5 check sum: 946fc5a8d23174f015515f8139e499ed
     Pseudo is Norm-conserving, Zval =  4.0
     DFTpy
     Using radial grid of 1601 points,  1 beta functions with: 
                l(1) =   0

     atomic species   valence    mass     pseudopotential
        Si             4.00    28.08000     Si( 1.00)

     48 Sym. Ops., with inversion, found



   Cartesian axes

     site n.     atom                  positions (alat units)
         1           Si  tau(   1) = (   0.0000000   0.0000000   0.0000000  )
         2           Si  tau(   2) = (   0.5000000   0.5000000   0.5000000  )

     number of k points=   220  Gaussian smearing, width (Ry)=  0.0050

     Number of k-points >= 100: set verbosity='high' to print them.

     Dense  grid:    23583 G-vectors     FFT dimensions: (  36,  36,  36)

     Estimated max dynamical RAM per process >      95.35 MB

     Initial potential from superposition of free atoms

     starting charge    7.99872, renormalised to    8.00000
     Starting wfcs are random

     total cpu time spent up to now is        4.4 secs

     Self-consistent Calculation

     iteration #  1     ecut=    60.00 Ry     beta= 0.70
     Davidson diagonalization with overlap
     ethr =  1.00E-02,  avg # of iterations =  6.8

     Threshold (ethr) on eigenvalues was too large:
     Diagonalizing with lowered threshold

     Davidson diagonalization with overlap
     ethr =  1.21E-04,  avg # of iterations =  1.8

     total cpu time spent up to now is       42.9 secs

     total energy              =     -15.90583197 Ry
     Harris-Foulkes estimate   =     -15.90960009 Ry
     estimated scf accuracy    <       0.00929216 Ry

     iteration #  2     ecut=    60.00 Ry     beta= 0.70
     Davidson diagonalization with overlap
     ethr =  1.16E-04,  avg # of iterations =  1.0

     total cpu time spent up to now is       51.6 secs

     total energy              =     -15.90631180 Ry
     Harris-Foulkes estimate   =     -15.90636979 Ry
     estimated scf accuracy    <       0.00023972 Ry

     iteration #  3     ecut=    60.00 Ry     beta= 0.70
     Davidson diagonalization with overlap
     ethr =  3.00E-06,  avg # of iterations =  2.8

     total cpu time spent up to now is       64.7 secs

     total energy              =     -15.90637797 Ry
     Harris-Foulkes estimate   =     -15.90637825 Ry
     estimated scf accuracy    <       0.00000329 Ry

     iteration #  4     ecut=    60.00 Ry     beta= 0.70
     Davidson diagonalization with overlap
     ethr =  4.12E-08,  avg # of iterations =  2.0

     total cpu time spent up to now is       75.4 secs

     End of self-consistent calculation

     Number of k-points >= 100: set verbosity='high' to print the bands.

     the Fermi energy is     3.5512 ev

!    total energy              =     -15.90637850 Ry
     Harris-Foulkes estimate   =     -15.90637860 Ry
     estimated scf accuracy    <       0.00000030 Ry

     The total energy is the sum of the following terms:

     one-electron contribution =       4.02261092 Ry
     hartree contribution      =       0.45433057 Ry
     xc contribution           =      -4.22774904 Ry
     ewald contribution        =     -16.15539262 Ry
     smearing contrib. (-TS)   =      -0.00017833 Ry

     convergence has been achieved in   4 iterations

 Energies determined by pw2casino tool
 -------------------------------------
 Kinetic energy      2.4103668826886091       au  =     4.8207337653772182       Ry
 Local energy      -0.39906142128610472       au  =   -0.79812284257220945       Ry
 Non-Local energy    0.0000000000000000       au  =     0.0000000000000000       Ry
 Ewald energy       -8.0776963076912303       au  =    -16.155392615382461       Ry
 xc contribution    -2.1138745221506703       au  =    -4.2277490443013406       Ry
 hartree energy     0.22716528443347253       au  =    0.45433056886694506       Ry
 Smearing (-TS)     -8.9165650600183879E-005  au  =    -1.7833130120036776E-004  Ry
 Total energy       -7.9531892496396921       au  =    -15.906378499279384       Ry
 -------------------------------------
 Total energy0      -7.9531892496565240       au  =    -15.906378499313048       Ry
 External energy0    0.0000000000000000       au  =     0.0000000000000000       Ry
 -------------------------------------


     Writing output data file ./si.save/
