
     Program PWSCF v.6.5 starts on 20Mar2023 at 13:56:59 

     This program is part of the open-source Quantum ESPRESSO suite
     for quantum simulation of materials; please cite
         "P. Giannozzi et al., J. Phys.:Condens. Matter 21 395502 (2009);
         "P. Giannozzi et al., J. Phys.:Condens. Matter 29 465901 (2017);
          URL http://www.quantum-espresso.org", 
     in publications or presentations arising from this work. More details at
     http://www.quantum-espresso.org/quote

     Serial version
     Reading input from /home/valeria/Documents/DFTPY/Fitting_densities/Si-bcc/DATA2/Si5.in
Warning: card &IONS ignored
Warning: card / ignored
Warning: card &CELL ignored
Warning: card / ignored
Warning: card &FCP ignored
Warning: card / ignored
Warning: card &RISM ignored
Warning: card / ignored

     Current dimensions of program PWSCF are:
     Max number of different atomic species (ntypx) = 10
     Max number of k-points (npk) =  40000
     Max angular momentum in pseudopotentials (lmaxx) =  3

     WARNING: check_stop already initialized
     Found symmetry operation: I + ( -0.5000 -0.5000 -0.5000)
     This is a supercell, fractional translations are disabled
     Message from routine setup:
     using ibrav=0 with symmetry is DISCOURAGED, use correct ibrav instead

     G-vector sticks info
     --------------------
     sticks:   dense  smooth     PW     G-vecs:    dense   smooth      PW
     Sum         529     529    177                 9171     9171    1647



     bravais-lattice index     =            0
     lattice parameter (alat)  =       5.2755  a.u.
     unit-cell volume          =     146.8189 (a.u.)^3
     number of atoms/cell      =            2
     number of atomic types    =            1
     number of electrons       =         8.00
     number of Kohn-Sham states=            8
     kinetic-energy cutoff     =      60.0000  Ry
     charge density cutoff     =     240.0000  Ry
     convergence threshold     =      1.0E-06
     mixing beta               =       0.7000
     number of iterations used =            8  plain     mixing
     Exchange-correlation= LDA
                           (   1   1   0   0   0   0   0)

     celldm(1)=   5.275464  celldm(2)=   0.000000  celldm(3)=   0.000000
     celldm(4)=   0.000000  celldm(5)=   0.000000  celldm(6)=   0.000000

     crystal axes: (cart. coord. in units of alat)
               a(1) = (   1.000000   0.000000   0.000000 )  
               a(2) = (   0.000000   1.000000   0.000000 )  
               a(3) = (   0.000000   0.000000   1.000000 )  

     reciprocal axes: (cart. coord. in units 2 pi/alat)
               b(1) = (  1.000000  0.000000  0.000000 )  
               b(2) = (  0.000000  1.000000  0.000000 )  
               b(3) = (  0.000000  0.000000  1.000000 )  


     PseudoPot. # 1 for Si read from file:
     /home/valeria/Desktop/programs/dftpy/examples/ofpp/EAC/upf/blps/si.lda.upf
     MD5 check sum: 946fc5a8d23174f015515f8139e499ed
     Pseudo is Norm-conserving, Zval =  4.0
     DFTpy
     Using radial grid of 1601 points,  1 beta functions with: 
                l(1) =   0

     atomic species   valence    mass     pseudopotential
        Si             4.00    28.08000     Si( 1.00)

     48 Sym. Ops., with inversion, found



   Cartesian axes

     site n.     atom                  positions (alat units)
         1           Si  tau(   1) = (   0.0000000   0.0000000   0.0000000  )
         2           Si  tau(   2) = (   0.5000000   0.5000000   0.5000000  )

     number of k points=   220  Gaussian smearing, width (Ry)=  0.0050

     Number of k-points >= 100: set verbosity='high' to print them.

     Dense  grid:     9171 G-vectors     FFT dimensions: (  27,  27,  27)

     Estimated max dynamical RAM per process >      37.46 MB

     Initial potential from superposition of free atoms

     starting charge    7.99872, renormalised to    8.00000
     Starting wfcs are random

     total cpu time spent up to now is        2.0 secs

     Self-consistent Calculation

     iteration #  1     ecut=    60.00 Ry     beta= 0.70
     Davidson diagonalization with overlap
     ethr =  1.00E-02,  avg # of iterations =  6.6

     Threshold (ethr) on eigenvalues was too large:
     Diagonalizing with lowered threshold

     Davidson diagonalization with overlap
     ethr =  1.49E-04,  avg # of iterations =  1.8

     total cpu time spent up to now is       16.6 secs

     total energy              =     -16.01889662 Ry
     Harris-Foulkes estimate   =     -16.02222666 Ry
     estimated scf accuracy    <       0.01176301 Ry

     iteration #  2     ecut=    60.00 Ry     beta= 0.70
     Davidson diagonalization with overlap
     ethr =  1.47E-04,  avg # of iterations =  1.0

     total cpu time spent up to now is       20.5 secs

     total energy              =     -16.01898991 Ry
     Harris-Foulkes estimate   =     -16.01913211 Ry
     estimated scf accuracy    <       0.00070136 Ry

     iteration #  3     ecut=    60.00 Ry     beta= 0.70
     Davidson diagonalization with overlap
     ethr =  8.77E-06,  avg # of iterations =  2.2

     total cpu time spent up to now is       24.5 secs

     total energy              =     -16.01902440 Ry
     Harris-Foulkes estimate   =     -16.01902355 Ry
     estimated scf accuracy    <       0.00000310 Ry

     iteration #  4     ecut=    60.00 Ry     beta= 0.70
     Davidson diagonalization with overlap
     ethr =  3.87E-08,  avg # of iterations =  2.8

     total cpu time spent up to now is       29.5 secs

     End of self-consistent calculation

     Number of k-points >= 100: set verbosity='high' to print the bands.

     the Fermi energy is    14.8372 ev

!    total energy              =     -16.01902663 Ry
     Harris-Foulkes estimate   =     -16.01902665 Ry
     estimated scf accuracy    <       0.00000010 Ry

     The total energy is the sum of the following terms:

     one-electron contribution =      11.33329847 Ry
     hartree contribution      =       0.02485755 Ry
     xc contribution           =      -5.30213100 Ry
     ewald contribution        =     -22.07492579 Ry
     smearing contrib. (-TS)   =      -0.00012587 Ry

     convergence has been achieved in   4 iterations

 Energies determined by pw2casino tool
 -------------------------------------
 Kinetic energy      3.5251425670249041       au  =     7.0502851340498083       Ry
 Local energy        2.1415066689179949       au  =     4.2830133378359898       Ry
 Non-Local energy    0.0000000000000000       au  =     0.0000000000000000       Ry
 Ewald energy       -11.037462893518136       au  =    -22.074925787036271       Ry
 xc contribution    -2.6510655007477806       au  =    -5.3021310014955612       Ry
 hartree energy      1.2428774787423026E-002  au  =     2.4857549574846052E-002  Ry
 Smearing (-TS)     -6.2933154370508999E-005  au  =    -1.2586630874101800E-004  Ry
 Total energy       -8.0095133166815291       au  =    -16.019026633363058       Ry
 -------------------------------------
 Total energy0      -8.0095133166899650       au  =    -16.019026633379930       Ry
 External energy0    0.0000000000000000       au  =     0.0000000000000000       Ry
 -------------------------------------


     Writing output data file ./si.save/
