#     DFTpy    
  CRYSTAL 
    
  PRIMVEC    
  4.743655172413792    0.0    0.0    
  0.0    4.743655172413792    0.0    
  0.0    0.0    2.6134482758620687    
  PRIMCOORD    
  4    1    
  Si    0.0    0.0    0.0    
  Si    2.371827586206896    2.371827586206896    1.3067241379310344    
  Si    0.0    2.371827586206896    0.6533620689655172    
  Si    2.371827586206896    0.0    1.9600862068965517    
  BEGIN_BLOCK_DATAGRID_3D    
  3d_datagrid_density    
  BEGIN_DATAGRID_3D#0    
  21    21    13    
  0.0    0.0    0.0    
  4.743655172413792    0.0    0.0    
  0.0    4.743655172413792    0.0    
  0.0    0.0    2.6134482758620687    
  0.05189408499593995    0.09731671946717758    0.26479682394843906    0.4330362056984175    0.44091531559068814    
  0.3953665468017127    0.38511458950634336    0.40637588578301664    0.41613138147204287    0.3915327617745643    
  0.37240936947214326    0.3915327345091239    0.41613157526699796    0.4063756258028797    0.38511485631451337    
  0.39536621330582816    0.440915661326826    0.4330359129000467    0.26479693443752556    0.09731667032951054    
  0.05189408499593995    0.09731664237711138    0.15066684648087936    0.3083373599996747    0.42916936251707505    
  0.41290965111259986    0.36596986551712807    0.35662296052315207    0.37959228848722365    0.3988686019705031    
  0.3901837214882636    0.37880197221892586    0.39018377813833877    0.39886846297457457    0.3795925793335739    
  0.35662269075097874    0.3659701479117948    0.4129093969451118    0.42916961484342925    0.30833714725229316    
  0.15066692130478046    0.09731664237711138    0.2647969996887953    0.3083372288793108    0.38830453040149376    
  0.3983995884607518    0.34237717449431826    0.29579921052992586    0.28796416084625676    0.3119775010536022    
  0.3456906499347466    0.3650936463994682    0.3687223258587058    0.36509359617732584    0.34569084669814143    
  0.31197721899266034    0.2879644796175737    0.29579894151245306    0.3423774667654116    0.3983993394126117    
  0.38830473166160123    0.308337190012614    0.2647969996887953    0.4330357376831327    0.4291696163639744    
  0.3983994761333171    0.3306302399778137    0.2608627487859127    0.22035080317292705    0.21389982802312055    
  0.23498067968648767    0.27102262973259966    0.3022769718060443    0.31377923679256153    0.30227708197986586    
  0.27102249195056    0.2349808584794064    0.2138996367456197    0.22035104038258804    0.26086246142594466    
  0.33063048741545914    0.39839928145008263    0.4291696947492478    0.4330357376831327    0.44091586365936114    
  0.4129092507922975    0.3423773932436631    0.26086265102891903    0.19782329374765198    0.16473461056927013    
  0.1594237033751454    0.1763046616747346    0.2066275784165295    0.23556337213413164    0.24742359160454327    
  0.2355633024167714    0.20662772151285394    0.17630448289422831    0.15942390970312556    0.16473441159147018    
  0.19782354058747686    0.26086241838317664    0.34237754692432737    0.41290918670395965    0.44091586365936114    
  0.39536602498636436    0.36597022644271976    0.2957989773045604    0.220350938237618    0.16473458764284843    
  0.13577839206023626    0.1308261052694851    0.14510733099075412    0.1709886773639055    0.1964610234136798    
  0.2073786291278929    0.1964611553948305    0.17098851908689372    0.14510748150423838    0.13082590558767287    
  0.13577859115299853    0.16473437939831106    0.22035112992294556    0.295798818912855    0.36597032143766306    
  0.39536602498636436    0.3851150822839481    0.35662253862319526    0.28796442910838543    0.21389971168774485    
  0.1594237693481666    0.1308260623864682    0.12566448084846327    0.13959321542736816    0.16517653854098402    
  0.1905145632297487    0.20141513590814583    0.1905144700289191    0.1651766603160418    0.1395930742480603    
  0.1256646728523179    0.13082584879766448    0.15942396334221678    0.2138994939611469    0.28796454486946155    
  0.3566224736244463    0.3851150822839481    0.40637527431779835    0.3795927346117577    0.31197725346034016    
  0.234980775176788    0.1763046932314093    0.1451072739232936    0.13959326953478607    0.1552187295711011    
  0.18416404251757457    0.21281495994656824    0.22497052606432047    0.21281505105851548    0.18416391790315534    
  0.15521887877679583    0.13959311033606872    0.14510750032092232    0.17630444206778206    0.23498099553412585    
  0.31197711649228643    0.37959284701222334    0.40637527431779835    0.41613186665787977    0.398868298455826    
  0.345690845328579    0.27102257767226634    0.206627596134111    0.17098873217529173    0.16517647624479048    
  0.18416410323287646    0.21893533207672156    0.2532907482998542    0.26776214679377436    0.25329064812279856    
  0.21893551742813747    0.18416388821414922    0.16517671606577933    0.17098850223652917    0.2066277641490712    
  0.2710224032825468    0.3456909779193654    0.3988682163359711    0.41613186665787977    0.3915324300896192    
  0.39018390380799023    0.36509358863098146    0.30227695355732365    0.2355635068478549    0.19646087090496536    
  0.19051470720942057    0.21281484104215279    0.2532908109167508    0.2932321835498169    0.31004630197623406    
  0.2932322948332743    0.2532906744223416    0.21281499367731832    0.1905144895521119    0.1964611298863613    
  0.23556328548359481    0.30227712369768034    0.3650933921115881    0.39018402820693876    0.3915324300896192    
  0.37240959424742687    0.3788018428961946    0.3687223175937518    0.31377944940181324    0.24742337237440676    
  0.20737881914415696    0.20141492651904025    0.2249707800643039    0.267761895345622    0.3100464186981507    
  0.3278575712314797    0.3100463400964007    0.2677620715294559    0.22497059065999953    0.2014151421622708    
  0.20737862471418214    0.24742360914291422    0.31377920571977497    0.3687224577690802    0.3788017690837192    
  0.37240959424742687    0.3915325618207035    0.3901837543363856    0.36509377206177535    0.30227679130154167    
  0.2355636123596275    0.19646076439997173    0.19051482908684197    0.21281467790712086    0.2532909786782357    
  0.29323204034714906    0.310046441212197    0.29323210949623435    0.25329082206974385    0.21281488770162268    
  0.19051463570530433    0.19646096613519765    0.23556341623520252    0.3022769963410743    0.36509355679927685    
  0.3901838331688516    0.3915325618207035    0.416131482660984    0.3988686507482165    0.3456904888147805    
  0.27102284867621745    0.20662730757506798    0.1709889795872657    0.16517622891391265    0.1841643516768603    
  0.21893504895408106    0.25329101614864014    0.26776182790160713    0.25329096178147487    0.21893526005589758    
  0.18416412986307884    0.16517646134865097    0.17098875752576598    0.20662753460204258    0.27102264292947587    
  0.3456906554808358    0.3988685703806155    0.416131482660984    0.4063757773602382    0.3795922736106596    
  0.31197766979771524    0.2349803946595809    0.1763050353759408    0.14510698645304662    0.13959356018464944    
  0.15521843501600044    0.18416436735286215    0.21281462731070042    0.22497090971445197    0.21281471092844484    
  0.18416427163613505    0.1552185836717886    0.13959340488219185    0.1451071848130323    0.17630479541043903    
  0.23498061355076452    0.3119775091296048    0.37959236755117476    0.4063757773602382    0.3851145099409318    
  0.35662303711187054    0.28796394736867786    0.21390015712912527    0.1594233618835961    0.130826399931263    
  0.12566415893188698    0.13959358643755732    0.16517614502442732    0.19051494372012395    0.20141474420316396    
  0.19051487107419948    0.16517628266932108    0.13959342217947687    0.12566434967339932    0.1308262008012829    
  0.1594235586106625    0.21389994474732976    0.2879640912663641    0.3566229787816375    0.3851145099409318    
  0.3953666257843364    0.36596967781523115    0.29579949860128407    0.2203504848094436    0.16473497906434492    
  0.13577800522993017    0.13082646909630435    0.14510694863306747    0.17098906821954438    0.19646058627254467    
  0.20737907256762084    0.19646072888870994    0.17098892800528892    0.1451071140266154    0.13082627192755056    
  0.1357782149251147    0.16473477581145804    0.22035066410260917    0.29579928952192397    0.36596976852616986    
  0.3953666257843364    0.4409153278487138    0.412909844413806    0.3423768201577103    0.26086312992791627    
  0.19782287567569468    0.16473498466483827    0.15942332277767968    0.1763050683223444    0.20662716874125395    
  0.23556381068366206    0.24742313725802717    0.2355637444263133    0.20662728514648207    0.176304868072972    
  0.15942352087448106    0.16473474885927766    0.1978231219615927    0.2608629009932261    0.3423770002569999    
  0.41290976844408045    0.4409153278487138    0.4330362055021977    0.42916913877146823    0.39839994872042217    
  0.33062977019709244    0.2608631546597228    0.22035041930005428    0.2139002106908535    0.23498030640790607    
  0.271023039434164    0.30227655946692095    0.3137796852122297    0.3022766296672624    0.27102290806347606    
  0.23498047884566803    0.21389999801464255    0.22035067952863926    0.26086285724358677    0.3306300472673883    
  0.3983997790843925    0.4291692730869095    0.4330362055021977    0.26479673467878784    0.3083375184263197    
  0.38830417914015636    0.3983999229037583    0.3423768800503424    0.295799514497639    0.28796386145103864    
  0.3119778211799293    0.3456903310807389    0.36509399560746264    0.36872203042924306    0.3650938686434737    
  0.34569053016400786    0.31197751834654813    0.2879641862919868    0.29579921172624984    0.3423770917803284    
  0.3983996816327995    0.38830434014453025    0.30833746151049163    0.26479673467878784    0.09731674775392556    
  0.15066671709967694    0.3083375080064645    0.4291691744684355    0.41290986475810104    0.36596967473486297    
  0.35662313693876085    0.3795921374241628    0.3988687448882299    0.3901835338121335    0.37880214906520193    
  0.3901836476010377    0.3988685854611009    0.37959236336754104    0.3566228574238589    0.36597001152400876    
  0.4129095257480158    0.42916943029585997    0.30833732412282394    0.15066678970314384    0.09731674775392556    
  0.05189408499593995    0.09731671946717758    0.26479682394843906    0.4330362056984175    0.44091531559068814    
  0.3953665468017127    0.38511458950634336    0.40637588578301664    0.41613138147204287    0.3915327617745643    
  0.37240936947214326    0.3915327345091239    0.41613157526699796    0.4063756258028797    0.38511485631451337    
  0.39536621330582816    0.440915661326826    0.4330359129000467    0.26479693443752556    0.09731667032951054    
  0.05189408499593995    0.0880564636770987    0.138751288781482    0.2904082822965184    0.4042310604285917    
  0.38055148710682185    0.3254331271271982    0.3065231784974891    0.32533950694235597    0.36119695956010267    
  0.3892132051288612    0.39815739205103406    0.38921337766519293    0.3611968354796815    0.32533971511283494    
  0.30652285403379376    0.325433429894668    0.38055120143328963    0.40423130556963616    0.29040811341087963    
  0.13875136590338266    0.0880564636770987    0.14201754849185247    0.19537123010378152    0.3282253928592191    
  0.4001420174083926    0.35881144307588775    0.3034437522305024    0.2853845413741252    0.30321198716197556    
  0.3386478895275573    0.3685540314860188    0.37900676401890115    0.36855390326067955    0.33864805783028806    
  0.3032117766578495    0.2853848226266114    0.3034434570640691    0.3588117681360018    0.4001417814811895    
  0.32822545085470445    0.19537118977139703    0.14201754849185247    0.3117135424853054    0.34507102900607867    
  0.3938304207919134    0.37301256110226716    0.30364424705353255    0.2507619515157961    0.2347616712631194    
  0.24989117044121065    0.2827052161904534    0.31372518947834416    0.325817353996429    0.3137253163727656    
  0.28270509200180444    0.2498913297520082    0.2347614825670581    0.25076219701614505    0.30364396874505234    
  0.3730128246322349    0.3938302016492202    0.34507117868733833    0.3117135424853054    0.4612316266032016    
  0.4486795209366193    0.39949709136211403    0.31723520847653064    0.2399788543300778    0.19400595272172905    
  0.18057291898210476    0.19259220504338875    0.22006401407223436    0.24728637509352797    0.2583730170552806    
  0.24728632613543589    0.22006421061736553    0.1925919790824286    0.18057316774392962    0.19400571542327616    
  0.23997907207878674    0.31723500500101837    0.399497290805067    0.4486794389771088    0.4612316266032016    
  0.46956243638788686    0.43649766036594434    0.3549352592630465    0.2629897303564147    0.1923629608609786    
  0.15328880183066582    0.14194391292877861    0.15166868835702266    0.17393537532660594    0.19624100420552518    
  0.20556465656691852    0.19624106110162684    0.17393525721634662    0.15166885058574311    0.14194373365101406    
  0.1532890288528167    0.192362750368722    0.2629899188271229    0.3549350588479444    0.43649780702243623    
  0.46956243638788686    0.44136307512768586    0.4067482803576643    0.324718430105319    0.23689696166524224    
  0.1715960442928192    0.13567965909013657    0.12513103753626115    0.1338040014640625    0.15365398175255326    
  0.17372898332211706    0.18232089457365805    0.1737289723963678    0.15365408222091784    0.13380382628475762    
  0.12513120271090342    0.1356794666619757    0.17159625942097093    0.2368967376651788    0.32471860703835004    
  0.4067481678082982    0.44136307512768586    0.4491407092252264    0.41559232454804246    0.3341953815237309    
  0.2450253096863792    0.17800524628167544    0.14092422732316384    0.12990182242150278    0.13884775135800986    
  0.15965234842209255    0.18079590232137627    0.1898227692049966    0.18079594507596528    0.15965219635200656    
  0.138847940706139    0.1299016469787457    0.14092442802044447    0.17800502659992784    0.2450255498183525    
  0.3341951716825511    0.41559246922605936    0.4491407092252264    0.46050740895486414    0.4368545493713118    
  0.3693059373504836    0.28141894025829156    0.20842035571232193    0.16652584160565548    0.15410917888613615    
  0.1647035297074073    0.18950409320479206    0.21484442194538741    0.22555165209268468    0.21484436911062138    
  0.1895042370467738    0.16470332908768007    0.15410942134508696    0.16652563628164774    0.20842056322748378    
  0.2814187634748708    0.36930610992395396    0.4368544421139185    0.46050740895486414    0.39359552066691667    
  0.40045743140495754    0.3887452746600459    0.32781910099462863    0.2533711032428576    0.20517283065696254    
  0.190984052478722    0.20457370290068738    0.23536992557868458    0.266809677294145    0.2800543798589322    
  0.2668097287170908    0.2353697886881799    0.20457384671544038    0.19098385365533305    0.2051730334352364    
  0.25337080356652736    0.3278193626213618    0.3887450715584205    0.400457496626428    0.39359552066691667    
  0.27343907138201584    0.30999804907876477    0.36948342752721075    0.3591595115934635    0.29382450496616486    
  0.24172402527275277    0.2261454363317077    0.2427792322763792    0.2790890927136557    0.31562141962576123    
  0.33087804314056873    0.3156213639564672    0.27908927722190435    0.24277901484415504    0.22614566642089876    
  0.24172377422456956    0.29382479421066876    0.35915923370806413    0.3694835687510741    0.30999797694844566    
  0.27343907138201584    0.21968002604865342    0.2645380092161756    0.35193588802047604    0.3680972928007377    
  0.3100080307191102    0.2571619146977283    0.2410716201655183    0.2588949834730492    0.2973796635302459    
  0.3358004702983883    0.3517478565139467    0.33580061548799073    0.29737949863354995    0.2588952010691865    
  0.24107138032920664    0.25716219485720804    0.3100077627031272    0.36809755024631474    0.351935705674624    
  0.26453813501187706    0.21968002604865342    0.273438894776798    0.30999822840652697    0.36948326929285    
  0.3591596720597836    0.29382429577652996    0.24172416191672538    0.22614530037583686    0.24277936964169228    
  0.2790889818446001    0.31562159474923934    0.33087784168410567    0.31562151396346044    0.27908911717760737    
  0.24277915772853634    0.226145524427923    0.24172391049899103    0.2938246269753603    0.35915940419083914    
  0.3694834229547136    0.3099981592600695    0.273438894776798    0.39359579935043504    0.4004570793260115    
  0.3887455909346343    0.3278188025537971    0.25337137703718    0.20517256948591442    0.19098427118997963    
  0.20457343699610675    0.23537018075424682    0.2668093845384461    0.2800546724508853    0.26680947440168673    
  0.23537005567849723    0.20457360026225666    0.19098409241517603    0.20517281774875704    0.2533711041541953    
  0.32781901815637576    0.38874544375655884    0.4004571755210012    0.39359579935043504    0.46050691543738176    
  0.4368550184205605    0.3693055021997381    0.2814193382139037    0.208419984810767    0.1665261603802871    
  0.1541088615737815    0.1647038629881922    0.1895037310942049    0.21484479875115606    0.22555127954067306    
  0.21484471354780327    0.1895039078067122    0.16470366974732642    0.15410911045705478    0.16652595814965365    
  0.2084202249346473    0.2814191382807688    0.3693056912548733    0.4368549472357546    0.46050691543738176    
  0.449141326984458    0.41559173219911955    0.33419594320674617    0.24502488676644615    0.1780056619578705    
  0.14092385889134246    0.12990216380143074    0.13884740453847996    0.15965270856138614    0.1807954892646097    
  0.18982318086487254    0.18079554144347879    0.1596525911841069    0.1388475673772297    0.12990200660237178    
  0.14092405770507035    0.17800543865617371    0.2450250767923623    0.3341957343364659    0.41559187703427125    
  0.449141326984458    0.4413624825964787    0.4067488567525045    0.324717889467262    0.2368974142878819    
  0.171595641336661    0.13568003368011078    0.12513066762261368    0.1338043750595811    0.1536535857618864    
  0.1737293916890401    0.18232048030078615    0.17372938809213878    0.153653690582289    0.1338041950567026    
  0.125130851353868    0.13567983498682962    0.17159583930821912    0.23689721875099384    0.32471803356448015    
  0.40674876356129597    0.4413624825964787    0.4695630528633674    0.436497130985118    0.354935754657994    
  0.2629892642139166    0.19236337508295323    0.1532884152762502    0.1419442609629745    0.15166832020143334    
  0.17393576660257154    0.19624055695883863    0.20556506021382123    0.1962406392421375    0.17393565557664173    
  0.1516684801871436    0.1419440750970112    0.15328864084604402    0.19236315962171438    0.2629894745591746    
  0.35493557465158954    0.43649726288375157    0.4695630528633674    0.46123113992872145    0.4486800234973897    
  0.3994966542177772    0.31723562504663816    0.2399784983497603    0.19400627533391646    0.1805725785608037    
  0.19259254398042755    0.22006367560441192    0.2472867433299662    0.25837262760541746    0.24728669263079578    
  0.22006385243080637    0.19259231766699902    0.18057283866043425    0.19400604882002195    0.23997870627409493    
  0.31723539599142814    0.3994968239381343    0.44867994910600995    0.46123113992872145    0.3117138104265612    
  0.34507071843234904    0.3938307486001644    0.37301224135610456    0.3036446119062224    0.25076164338358625    
  0.23476196539810035    0.24989089810964177    0.2827055259717912    0.31372493394598305    0.32581766392633976    
  0.31372500740726333    0.28270539934929756    0.24989106903045225    0.23476177142571159    0.2507619151408489    
  0.30364427040632685    0.3730125319299296    0.39383053529492973    0.34507080513581484    0.3117138104265612    
  0.1420174369271811    0.1953713492559742    0.3282252082075785    0.4001421868588005    0.3588112891430024    
  0.30344389076281253    0.28538437543663553    0.30321215216294095    0.3386476697245153    0.3685541911710049    
  0.37900657588722486    0.3685540986553148    0.3386478461741285    0.3032119120290893    0.28538464124080865    
  0.30344364286058867    0.3588115719439969    0.40014192709963803    0.3282253453555104    0.1953713205833133    
  0.1420174369271811    0.0880564636770987    0.138751288781482    0.2904082822965184    0.4042310604285917    
  0.38055148710682185    0.3254331271271982    0.3065231784974891    0.32533950694235597    0.36119695956010267    
  0.3892132051288612    0.39815739205103406    0.38921337766519293    0.3611968354796815    0.32533971511283494    
  0.30652285403379376    0.325433429894668    0.38055120143328963    0.40423130556963616    0.29040811341087963    
  0.13875136590338266    0.0880564636770987    0.21968080297986609    0.2645372970963405    0.3519366047675138    
  0.3680966679620839    0.31000852482356134    0.2571614632212385    0.24107208233084892    0.2588945287420116    
  0.2973802158374995    0.33579979921159236    0.3517486169419002    0.3357997621879163    0.2973803986625066    
  0.25889430962030296    0.2410722773217357    0.2571612032703486    0.3100088263186541    0.36809639277180295    
  0.35193675314787637    0.2645372158990925    0.21968080297986609    0.2734380574315802    0.3099989978244117    
  0.36948255121039936    0.35916029884893885    0.2938238199097449    0.24172464081728098    0.22614485679107324    
  0.24277981660990547    0.2790884418539023    0.3156222447024744    0.33087711344453985    0.3156223012507894    
  0.279088281425611    0.2427800413686705    0.2261446281967144    0.24172486680659142    0.2938236107347675    
  0.35916053263872255    0.36948230239806285    0.30999911824743615    0.2734380574315802    0.393596755509519    
  0.40045617619842183    0.3887464035917015    0.32781815242906154    0.25337186206089757    0.2051721651172502    
  0.19098467108412753    0.20457301194401384    0.23537069213593748    0.26680877310673795    0.2800553351692457    
  0.2668086984164586    0.23537086861187206    0.20457276453726977    0.19098493314137044    0.20517194988800874    
  0.25337210350469824    0.32781794324967645    0.3887465407028625    0.40045617311765536    0.393596755509519    
  0.4605058736265274    0.43685589482771137    0.3693047146819012    0.281419947865946    0.20841953428676804    
  0.16652656661528145    0.15410849475806024    0.16470426338269112    0.1895032681723114    0.2148453418033211    
  0.22555066414178523    0.21484539699527544    0.18950319273785599    0.16470440106215048    0.1541083345239007    
  0.16652678301074644    0.20841928272976773    0.2814201868341336    0.3693045744347238    0.43685601815551317    
  0.4605058736265274    0.44914234011450815    0.4155908471489482    0.3341966568851148    0.24502432340928693    
  0.17800608973016593    0.14092349585530262    0.1299024999100961    0.13884704558201724    0.159653137108119    
  0.18079498094284563    0.18982377812737652    0.18079491266651568    0.1596532620261897    0.1388468902100965    
  0.1299027032111081    0.14092330631596098    0.17800627423006327    0.24502411666149038    0.33419680005404506    
  0.4155908240522242    0.44914234011450815    0.44136145072178157    0.4067497353486576    0.3247171661851264    
  0.23689795158294594    0.17159522288627713    0.13568037192378107    0.12513032626029233    0.13380473803779447    
  0.15365316009628655    0.17372989554900745    0.18231991420363605    0.17373000375023914    0.15365302858651653    
  0.13380487069513344    0.12513014333831066    0.13568059091197482    0.17159500478460007    0.23689817919748304    
  0.3247169988121639    0.4067498292039287    0.44136145072178157    0.46956402194339497    0.4364962391271738    
  0.35493648313576476    0.2629886873699221    0.19236381095417363    0.15328807625283175    0.141944632210624    
  0.15166792865815729    0.17393621197402065    0.19624009167050666    0.20556565611684766    0.19623999352725838    
  0.17393630884069783    0.15166777555351307    0.14194484226376988    0.15328784076499088    0.1923640140824209    
  0.2629884972871905    0.3549366120652547    0.4364961686505517    0.46956402194339497    0.4612301350126264    
  0.4486809452268774    0.39949586490085404    0.3172362336367586    0.23997800281613027    0.19400668161811818    
  0.18057220092124582    0.1925929539868585    0.22006319085316722    0.24728731393509076    0.25837195152821046    
  0.2472874002185605    0.2200630704243838    0.19259311402800242    0.1805720208643222    0.1940069212031946    
  0.23997773126056338    0.31723649519890273    0.39949570235358767    0.4486810340397958    0.4612301350126264    
  0.31171473620294016    0.34506993671420266    0.3938314724188724    0.3730115910364599    0.3036451103526011    
  0.25076117982989254    0.23476242259646227    0.24989043153777057    0.28270607206109066    0.3137242891463771    
  0.32581843390899035    0.31372417444279427    0.28270623972619324    0.24989017174332256    0.2347627105464108    
  0.25076088118361656    0.3036453261573746    0.3730113776232112    0.39383159970503145    0.34506982595560104    
  0.31171473620294016    0.14201679899857064    0.19537202046111934    0.32822450010395254    0.400142906131268    
  0.3588106961615083    0.30344440949601975    0.28538387869027165    0.3032126887687708    0.3386470658892874    
  0.36855487209249277    0.37900582475743255    0.36855499978692957    0.3386469374773464    0.3032128799341742    
  0.28538360968690935    0.3034447014243747    0.35881040320419094    0.40014309321506036    0.32822428400315934    
  0.19537210492840779    0.14201679899857064    0.08805698328295297    0.1387507117764044    0.29040895723421917    
  0.40423037693011143    0.3805520970894964    0.32543259972702127    0.30652365123619213    0.3253389247272144    
  0.361197602095535    0.38921249327767227    0.39815817817620364    0.38921244903924684    0.3611977590759072    
  0.3253387205886284    0.3065239185761258    0.3254323316722998    0.38055237511728474    0.40423013547200604    
  0.29040911534419966    0.13875068118992287    0.08805698328295297    0.14201692039793032    0.1953719036388469    
  0.3282246717914427    0.40014271548977076    0.35881080060328435    0.30344425212283677    0.2853840737795553    
  0.30321251314694625    0.3386472798790303    0.3685546956721455    0.3790059442164596    0.36855478009698023    
  0.33864710531085296    0.3032127453934346    0.2853838044031911    0.3034445268811488    0.3588106036906957    
  0.40014291794031476    0.3282244365463726    0.19537194800534485    0.14201692039793032    0.3117144033043624    
  0.34507021242531016    0.3938311346219503    0.37301192644244385    0.3036447755016929    0.2507614716762579    
  0.23476214396714362    0.24989068890912222    0.2827057471995628    0.3137245932644586    0.3258181043528799    
  0.3137245072935686    0.28270594287139467    0.2498904628871954    0.23476240630403783    0.2507611989470142    
  0.303645056820485    0.37301168093209397    0.39383130163678903    0.3450701785003856    0.3117144033043624    
  0.46123062915244867    0.4486804317480146    0.39949639228264944    0.3172358070844925    0.2399783921234105    
  0.19400632984801436    0.1805725333903324    0.1925926244884356    0.2200635258533271    0.2472869544546503    
  0.2583723620620481    0.24728703006533997    0.2200634248398092    0.19259276922907287    0.18057236847767913    
  0.19400657021744752    0.2399781315759354    0.31723605655081205    0.3994961920114731    0.4486805815234179    
  0.46123062915244867    0.4695634799512676    0.43649674989681236    0.3549359837920103    0.2629891610517456    
  0.19236341526499393    0.15328842262440848    0.14194426623571157    0.1516683055722301    0.17393582270038188    
  0.1962404706822723    0.20556525533375627    0.1962404130471184    0.1739359368879077    0.15166810602864486    
  0.1419444838191378    0.15328820888486588    0.1923636301760813    0.2629889418702272    0.35493615352957447    
  0.4364967342385282    0.4695634799512676    0.4413620832170915    0.40674914091964975    0.32471770560141866    
  0.23689746417260216    0.1715956547426536    0.13567999961776017    0.12513069101123622    0.1338043571566697    
  0.15365356350047293    0.1737294947860028    0.1823203328245968    0.1737295985271444    0.15365341600892804    
  0.13380450971278968    0.12513050701849954    0.13568021384174464    0.1715954150975824    0.23689769480737521    
  0.32471754331907865    0.406749239842764    0.4413620832170915    0.44914180812757254    0.4155914907574016    
  0.33419607500449977    0.24502479689863443    0.17800566614240843    0.14092386093485204    0.1299021645416245    
  0.13884740134435267    0.15965278016755247    0.18079535128948018    0.18982334546284185    0.18079528963734087    
  0.15965290342515576    0.13884724741108892    0.1299023447717849    0.1409236450520191    0.1780059116339624    
  0.24502457426792693    0.33419623765182865    0.4155913927649224    0.44914180812757254    0.4605063999242927    
  0.43685543220338974    0.36930518226536996    0.28141950416231276    0.20841989046912426    0.16652622003324807    
  0.15410881907987642    0.1647039383551084    0.18950364674991985    0.21484496588481986    0.2255510208255    
  0.21484505940288193    0.1895035343918232    0.16470408486808316    0.15410865699898882    0.16652644946608328    
  0.20841962763814198    0.2814197320551144    0.3693050193240874    0.4368555414552015    0.4605063999242927    
  0.3935964099138374    0.40045653052362673    0.38874603808378605    0.32781847338505665    0.2533716019543399    