#     DFTpy    
  CRYSTAL 
    
  PRIMVEC    
  6.63448275862069    0.0    0.0    
  0.0    6.63448275862069    0.0    
  0.0    0.0    3.6551724137931036    
  PRIMCOORD    
  4    1    
  Si    0.0    0.0    0.0    
  Si    3.317241379310345    3.317241379310345    1.8275862068965518    
  Si    0.0    3.317241379310345    0.9137931034482759    
  Si    3.317241379310345    0.0    2.7413793103448274    
  BEGIN_BLOCK_DATAGRID_3D    
  3d_datagrid_density    
  BEGIN_DATAGRID_3D#0    
  29    29    17    
  0.0    0.0    0.0    
  6.63448275862069    0.0    0.0    
  0.0    6.63448275862069    0.0    
  0.0    0.0    3.6551724137931036    
  0.06054341814727274    0.10798184571216209    0.2629880454813378    0.3646186622448424    0.28608185072489306    
  0.17465714556226877    0.10766903807779106    0.07894394514828804    0.07532451101528652    0.09177859552274524    
  0.12836243438509162    0.18334465278308687    0.24383124161250772    0.28839442635379003    0.303925238891472    
  0.28839444545007475    0.24383125607737854    0.1833446773260215    0.12836244165567307    0.09177858367606706    
  0.07532450615334613    0.07894393042010446    0.10766902365545901    0.17465713332699298    0.2860818799370987    
  0.3646186503380307    0.26298801223183366    0.10798185820948987    0.06054341814727274    0.10798187108355498    
  0.16162682746880197    0.3023211178379483    0.3613212203577913    0.2703210981291734    0.16457305777981476    
  0.10234561608694616    0.0756298122996768    0.07226655510594808    0.08760411837338722    0.12156328721580821    
  0.17262487807228447    0.2294459529563267    0.2723402380261011    0.28766412382122813    0.27234023133972574    
  0.22944590718120775    0.17262488767241438    0.12156326979797878    0.08760411937239035    0.07226654551743812    
  0.07562980316002178    0.10234560082995038    0.1645730348511282    0.27032109602839505    0.3613212363799162    
  0.30232115346826005    0.16162681299212212    0.10798187108355498    0.2629880717581276    0.3023211622725836    
  0.36112730518783925    0.32857265577614647    0.2262076581016427    0.13852664938768355    0.08861230096478888    
  0.06695756358706251    0.0642116471162659    0.07669411919044809    0.10409969952812394    0.14511048894113113    
  0.1914643211587326    0.2280136912575273    0.24166992786116107    0.2280136582748798    0.19146429212829036    
  0.14511047617706863    0.1040997138033676    0.07669413458246187    0.06421164375171522    0.06695756580824928    
  0.08861230851280645    0.13852663791244654    0.22620768933957844    0.32857268346298185    0.36112732634519285    
  0.30232111040739457    0.2629880717581276    0.36461868730533725    0.3613212486874417    0.3285726466325354    
  0.25244229192500045    0.1678803305040327    0.1062779531580928    0.07136627671114246    0.055904643059970255    
  0.05394929592769692    0.06295358282998055    0.08244439565782945    0.11108796312921945    0.14336905999821287    
  0.16940138824359285    0.17939416462713767    0.16940140469029694    0.14336904959743427    0.11108795780247108    
  0.08244440017492898    0.06295358005463018    0.05394930042857736    0.05590464019522359    0.07136627083548337    
  0.10627795125710429    0.16788033244856684    0.25244229387642747    0.32857259886306567    0.36132122307337816    
  0.36461868730533725    0.28608188668910056    0.27032109648247826    0.2262076011375406    0.1678803132759895    
  0.11473414979645374    0.07718133650419662    0.05532649955015947    0.045418178008690344    0.044201285992319705    
  0.050077980718901446    0.06251537653718502    0.08026128009121358    0.09987931647928225    0.11560614523638542    
  0.12162296151160057    0.11560616067141324    0.09987931026168292    0.08026127739491079    0.06251535640825776    
  0.050077992670034446    0.044201284845852326    0.04541818213075398    0.05532649181932158    0.07718133150815397    
  0.11473413758900775    0.16788031580829554    0.22620761775048026    0.2703210461261776    0.28608188668910056    
  0.17465718236468605    0.1645730363468183    0.13852663725609957    0.10627795257619246    0.07718134358031316    
  0.05603037612155546    0.04321044438046321    0.03721086952174895    0.036458609590614935    0.04003836782408822    
  0.04742444690469502    0.05759974856318718    0.06854771941895298    0.07713543398106686    0.08036264136897261    
  0.07713544401428167    0.06854772068867315    0.0575997418392081    0.047424440489405265    0.04003837062362535    
  0.036458609190855654    0.03721086671194439    0.043210436526212266    0.05603037445718886    0.0771813561945779    
  0.10627796467578948    0.138526646405169    0.16457303323826838    0.17465718236468605    0.10766905921324037    
  0.10234560388933465    0.08861230575054083    0.07136628256117494    0.055326503496639416    0.04321043892213026    
  0.03553717946842685    0.03177063660745384    0.03122806283481713    0.03336391972518997    0.03766433552550804    
  0.043381915708322075    0.04933393248006896    0.05389250866421727    0.05559504331597003    0.053892510194836846    
  0.04933393095027384    0.04338190286693641    0.03766432243019573    0.03336393154104611    0.0312280579201226    
  0.03177064114066224    0.035537191591558576    0.04321044279638628    0.05532651047135764    0.07136627469646345    
  0.08861229244709856    0.1023456193457326    0.10766905921324037    0.07894392311492923    0.07562977697337646    
  0.06695755494711687    0.055904637104893296    0.045418173021482794    0.037210851674601565    0.03177062861595575    
  0.028950244862182697    0.028405026951749374    0.029701982431429585    0.032362856198337966    0.03584019543677433    
  0.039339661967773026    0.04196825139480246    0.04296235672894348    0.041968246632079965    0.039339662940601205    
  0.03584021018154612    0.03236284847168806    0.029701989219604135    0.02840503131726743    0.028950236200674075    
  0.03177062602316164    0.03721085902658642    0.04541817396106144    0.05590463915073411    0.0669575497660081    
  0.07562978180038726    0.07894392311492923    0.07532452210753421    0.07226655864853093    0.06421164562378964    
  0.05394930155966693    0.04420128251007765    0.03645860868913477    0.031228066267487455    0.028405043939801575    
  0.027620617287995492    0.028442617650587025    0.03041623520918703    0.03304463059266347    0.03566614013711878    
  0.037620138922221255    0.038363046375996745    0.03762012862097774    0.03566613752787502    0.03304463330732304    
  0.03041622110516076    0.02844263015571587    0.02762060856424141    0.02840504496897481    0.0312280536110802    
  0.03645860288717151    0.04420129488762342    0.05394930374400249    0.06421164712896746    0.07226655732611251    
  0.07532452210753421    0.09177860154490937    0.08760412684098186    0.0766941270663795    0.06295357843886866    
  0.05007799397516325    0.0400383707497008    0.03336392915341667    0.029701994901279286    0.028442629002885637    
  0.02904728567913377    0.030971954206716435    0.03362305841830285    0.03632472163682422    0.038348441449486674    
  0.039099911008556934    0.038348430480710745    0.03632471651432743    0.033623058115189404    0.030971946258682714    
  0.029047296939582967    0.028442626380107663    0.02970198697926499    0.03336393283538077    0.04003836348607909    
  0.050078002944774345    0.06295359248587082    0.07669412605981529    0.08760410566499784    0.09177860154490937    
  0.12836243186609586    0.12156328089656551    0.10409969669506518    0.08244439003289013    0.06251535750809283    
  0.04742443861347296    0.037664327251175966    0.03236284701318481    0.030416220715368533    0.030971942469906335    
  0.033309065200519496    0.036641139543243814    0.040100262845541794    0.04270728979990365    0.043662353954351085    
  0.042707293410641875    0.04010024282638318    0.036641140365330095    0.03330906154250219    0.030971944592417706    
  0.03041622158897377    0.03236285929490898    0.03766432108368923    0.047424440035977185    0.06251537548556649    
  0.08244439206967312    0.10409969440038978    0.1215632627423699    0.12836243186609586    0.18334467869814652    
  0.17262486189393508    0.14511044355309388    0.11108796950011432    0.0802612776231836    0.05759973977567999    
  0.043381907473230265    0.03584020748717593    0.033044629652817466    0.033623048740834535    0.0366411498767346    
  0.04110057596560742    0.04579578367364111    0.049374902793962054    0.05069942963167944    0.04937491088074199    
  0.04579577977236734    0.0411005832831466    0.03664113636143282    0.03362305477060207    0.033044634359896616    
  0.03584020634232559    0.04338189933258254    0.05759974134079316    0.0802612722965839    0.11108797154294967    
  0.14511046837376637    0.17262484472628448    0.18334467869814652    0.2438312749677392    0.22944592053973614    
  0.19146430343030602    0.14336909516540838    0.09987930796802572    0.0685477314201281    0.0493339352174957    
  0.039339674920486865    0.03566615206675517    0.036324719166254064    0.04010026840824557    0.04579580275764045    
  0.05189260301501592    0.05661405322352738    0.05838461099545391    0.05661404828859995    0.05189262218436382    
  0.045795798331830596    0.04010025104297487    0.03632472990334985    0.03566614646098007    0.03933966625704728    
  0.04933393292498723    0.06854772045487975    0.09987934257010372    0.14336907798088497    0.19146430026472763    
  0.22944589583773692    0.2438312749677392    0.28839447568845594    0.27234023012196484    0.22801366670951154    
  0.1694013765730204    0.11560615117976435    0.07713543676355733    0.05389251050968157    0.04196824890036977    
  0.03762013705278033    0.03834843255685093    0.04270730287675301    0.04937493208116428    0.056614040785692786    
  0.06227192026812139    0.06440419089875485    0.06227191958338699    0.056614040583889226    0.049374897078836195    
  0.04270730312930895    0.03834843865152325    0.03762013972728062    0.04196824500688308    0.05389251450844053    
  0.07713544629473501    0.1156061703011824    0.1694013961288331    0.22801368990100798    0.2723402502047208    
  0.28839447568845594    0.30392525117824193    0.28766410613372667    0.2416698878225464    0.17939417843118002    
  0.1216229482776609    0.08036260919821518    0.0555950267823512    0.04296236158907935    0.03836303537771443    
  0.03909990313555199    0.043662339854019516    0.05069941992796197    0.05838459799668853    0.06440419287189802    
  0.06666862931609828    0.06440417294235713    0.05838460734349443    0.05069943429267637    0.04366233933411759    
  0.03909990745535711    0.038363032553931614    0.042962359220873415    0.05559502828690452    0.08036260683881517    
  0.12162293331923747    0.17939416914407508    0.24166988616185578    0.2876640923658361    0.30392525117824193    
  0.2883944609630567    0.27234021009902915    0.22801370139948135    0.16940136289738994    0.11560616817103557    
  0.07713544072429014    0.053892518942273294    0.04196826768525946    0.03762013573429558    0.038348427826172475    
  0.04270730675292395    0.049374910973424085    0.05661404653947055    0.06227192079564949    0.0644041895461759    
  0.06227191330726713    0.05661403523781714    0.049374914357538595    0.042707299343306186    0.03834843689728094    
  0.03762013051817971    0.04196824707075127    0.05389250951815134    0.07713544406438547    0.11560617314463152    
  0.16940140131705173    0.2280136746939529    0.27234023559368453    0.2883944609630567    0.2438312558557304    
  0.22944591389225805    0.19146431784463835    0.14336908546504473    0.09987932504719185    0.06854771431999765    
  0.04933393430750843    0.039339677283763114    0.03566614524934681    0.03632471909476868    0.040100252548736705    
  0.04579581042017279    0.05189262248348965    0.056614053539122515    0.05838461908705716    0.05661403922942665    
  0.051892594483533123    0.0457957933093431    0.04010026456447811    0.036324732824715975    0.03566613948869967    
  0.03933967638385386    0.04933393510419206    0.06854773032487513    0.09987933005719662    0.14336911205247224    
  0.19146433067138247    0.2294459058735972    0.2438312558557304    0.18334472552457398    0.17262486375239947    
  0.14511046941169864    0.11108797914545715    0.08026127314541087    0.05759973745800694    0.04338190907359268    
  0.035840205694343395    0.03304463351105034    0.033623054175361274    0.036641142453374714    0.04110057678705462    
  0.045795804129477424    0.049374910865820416    0.050699412757386285    0.049374922688933655    0.04579578769663652    
  0.04110058342694335    0.036641146612797146    0.03362305081630753    0.033044636856275574    0.03584020794912453    
  0.04338189646880939    0.05759974293030056    0.08026128092141142    0.11108794577465037    0.14511045095717176    
  0.17262485247021955    0.18334472552457398    0.12836241161688858    0.12156327442660889    0.10409968233358498    
  0.08244438676740494    0.06251536741902051    0.04742444243086899    0.03766432491968619    0.03236284678483655    
  0.030416221321690144    0.030971940077818044    0.03330906455975658    0.0366411421452404    0.0401002650799025    
  0.04270728750911412    0.04366233245066379    0.04270729740617009    0.04010025875703298    0.036641139822931774    
  0.03330906027121363    0.030971936222116428    0.030416228615539238    0.03236285487519715    0.03766431597153404    
  0.04742443836392286    0.06251536509784297    0.08244437865061123    0.10409969688217148    0.12156326188203848    
  0.12836241161688858    0.09177860193722799    0.08760411243823185    0.07669412285560676    0.06295358129535372    
  0.05007799613906286    0.040038374053248185    0.033363926320246505    0.029701990015394725    0.028442634863138944    
  0.029047293224017518    0.030971953411731833    0.0336230653081447    0.03632472256577954    0.03834843710381786    
  0.03909991849684523    0.03834843128845212    0.036324725152201115    0.03362305872819578    0.030971944268661757    
  0.029047296823150093    0.0284426361587238    0.029701990327104532    0.03336392899211538    0.040038366104015434    
  0.05007800758588591    0.06295359762654457    0.0766941298644203    0.08760410853748316    0.09177860193722799    
  0.07532453108984287    0.07226655160857365    0.06421164538356723    0.053949303453347516    0.044201288361810136    
  0.03645860846955911    0.031228060470946506    0.028405045466576455    0.027620614327215125    0.028442618716527254    
  0.030416223835955474    0.03304463379211778    0.03566614203955727    0.03762012350815832    0.03836304445099815    
  0.03762013177427349    0.03566613412163225    0.03304463606851269    0.03041621674816312    0.02844262713506363    
  0.027620609767673214    0.028405040715047205    0.0312280652337558    0.0364586033347464    0.04420129269536598    
  0.05394930541679332    0.06421163740410796    0.07226655612266558    0.07532453108984287    0.07894393121022061    
  0.0756297725466059    0.06695755347695943    0.05590462894538076    0.045418168434899125    0.037210852441813894    
  0.031770631532711584    0.02895024296031768    0.02840503058757503    0.029701983491450503    0.03236285667825655    
  0.03584019796708906    0.0393396518909814    0.04196825292997093    0.04296235428315619    0.041968250675563985    
  0.03933966481328607    0.035840207013640865    0.03236284738786762    0.029701989434193738    0.028405031300928252    
  0.028950231619798976    0.031770628888792486    0.03721086239869993    0.04541817521328416    0.05590463933846451    
  0.06695754144041244    0.0756297876524987    0.07894393121022061    0.10766904193758879    0.102345610300242    
  0.08861231463921511    0.07136627385181962    0.05532649425909317    0.043210448319086006    0.0355371868462825    
  0.031770634451959275    0.03122806559743376    0.03336392426607352    0.03766433591223034    0.043381906958353714    
  0.04933393143452439    0.05389251355660396    0.055595046684961354    0.05389251197746307    0.04933393461196607    
  0.04338191667058554    0.037664323862851436    0.033363933998704076    0.031228060763622976    0.03177063472332947    
  0.03553717992715815    0.043210447498158784    0.05532650451289092    0.0713662717342614    0.08861231053221474    
  0.10234561829866136    0.10766904193758879    0.1746571681911993    0.1645730530225369    0.13852663905368745    
  0.10627794405933265    0.07718133717355696    0.05603038314193284    0.043210444322184405    0.03721087165339455    
  0.03645861371808515    0.04003836212932168    0.047424450605348195    0.057599747646845015    0.06854772096978846    
  0.07713545628844652    0.08036261993954703    0.07713542431447318    0.0685477242206096    0.057599747682220495    
  0.04742443085603262    0.04003837656426368    0.036458608803490444    0.03721086935176557    0.04321044872208156    
  0.05603037494621501    0.07718134388957126    0.10627796628931874    0.13852663908346674    0.16457303220018385    
  0.1746571681911993    0.2860819063186192    0.27032108829362483    0.22620761733691633    0.16788031517108112    
  0.1147341321236221    0.0771813347336136    0.055326498480081567    0.04541817545919318    0.044201280467679974    
  0.05007799889182248    0.06251535937403405    0.08026127519200388    0.0998793314298362    0.11560615010405735    
  0.1216229485083732    0.11560614537854597    0.09987929900486402    0.08026126410644734    0.06251535638684798    
  0.05007799564307941    0.04420128625503038    0.04541818436275983    0.05532648487916384    0.07718133383074245    
  0.11473414803926334    0.1678803160288829    0.22620763257157217    0.2703210486685619    0.2860819063186192    
  0.3646186258490449    0.36132123943882266    0.3285726017639894    0.25244227998340174    0.16788031824050148    
  0.10627794850770657    0.07136628797551492    0.05590463351267281    0.053949301949916255    0.06295358041792067    
  0.08244439231469142    0.11108796528099726    0.14336908413419172    0.1694013872427334    0.17939418394291537    
  0.1694013898679281    0.14336905294662636    0.11108797588217448    0.08244438252965677    0.06295358451719117    
  0.05394931026103902    0.0559046375790169    0.07136626614761653    0.10627794398414554    0.16788033987700735    
  0.2524423050950885    0.32857262244652324    0.3613212316454108    0.3646186258490449    0.26298809527324174    
  0.3023211064228225    0.36112729689276074    0.3285726704339393    0.22620765779826005    0.1385266480720417    
  0.08861231253382636    0.06695756569493305    0.06421164918008833    0.0766941374263826    0.10409971577714888    
  0.14511048033239105    0.1914642893460332    0.22801367423054736    0.2416699408523717    0.22801370689270448    
  0.19146433397174745    0.1451104962898373    0.10409968894468376    0.07669413580469674    0.06421165450523103    
  0.06695755468678065    0.08861230588761015    0.13852665941562464    0.22620769540857374    0.3285726680594911    
  0.36112728404392547    0.3023211525516619    0.26298809527324174    0.1079818619928739    0.16162685320788325    
  0.302321129069324    0.3613212478880588    0.27032108393258897    0.16457305146682227    0.10234559975610005    
  0.07562979530977045    0.07226655490507343    0.0876041103898006    0.1215632959720866    0.1726248709980464    
  0.22944589796348638    0.27234019376629887    0.28766413847042754    0.27234021685135124    0.22944592280551357    
  0.17262486911941358    0.12156327144082436    0.08760411400884696    0.07226656296196184    0.07562979686785376    
  0.10234560134823065    0.1645730549083296    0.27032108234104996    0.3613212641965189    0.302321127718178    
  0.16162683210193118    0.1079818619928739    0.06054341814727274    0.10798184571216209    0.2629880454813378    
  0.3646186622448424    0.28608185072489306    0.17465714556226877    0.10766903807779106    0.07894394514828804    
  0.07532451101528652    0.09177859552274524    0.12836243438509162    0.18334465278308687    0.24383124161250772    
  0.28839442635379003    0.303925238891472    0.28839444545007475    0.24383125607737854    0.1833446773260215    
  0.12836244165567307    0.09177858367606706    0.07532450615334613    0.07894393042010446    0.10766902365545901    
  0.17465713332699298    0.2860818799370987    0.3646186503380307    0.26298801223183366    0.10798185820948987    
  0.06054341814727274    0.1044466322348931    0.15785254132396545    0.2995487902072823    0.3605443202873178    
  0.2696725327758846    0.1627125371814187    0.09883223413548745    0.06966065809242063    0.06181202127263063    
  0.06870713729245469    0.0880094328985249    0.11775614277162494    0.15185030877347214    0.1794734904630487    
  0.19008552230096493    0.17947352779160752    0.15185032590797323    0.11775617657580585    0.0880094462672834    
  0.06870713791897223    0.061812020886714815    0.06966063759836683    0.09883222487173614    0.16271255186940467    
  0.26967253114866613    0.3605443287162788    0.2995487454613075    0.15785251533862363    0.1044466322348931    
  0.15798714392284027    0.2115709374394412    0.32968837917670973    0.3531416093065337    0.2545971655531254    
  0.15360394014392548    0.0941890767584171    0.06697222551469875    0.059632546191444716    0.06610065896917845    
  0.08413640186271432    0.11181953372038005    0.14348001470686222    0.16914978966040614    0.17903144355623407    
  0.16914977851440927    0.14347997435272772    0.11181954538535906    0.08413640825300442    0.06610065616912832    
  0.05963254108047884    0.06697221741066502    0.09418906367197442    0.15360390700715987    0.2545972069538961    
  0.35314164638162504    0.32968838840036835    0.21157095159885533    0.15798714392284027    0.3005928595979101    
  0.3305253652778506    0.3640923546342163    0.31445508129505506    0.21291778573475567    0.1298888288132212    
  0.08210938800087059    0.059941699354120255    0.05391517093246061    0.05925095737381106    0.07405363041687199    
  0.0965145762122634    0.12195082149306072    0.1425160516724057    0.1504417240707961    0.14251604563232395    
  0.121950780448191    0.09651456848810425    0.07405362129790223    0.05925097688928685    0.053915172612192565    
  0.05994170516434107    0.0821093981301641    0.1298888221306391    0.21291786355786332    0.31445507666979866    
  0.36409233181592426    0.330525324529219    0.3005928595979101    0.3633017998833541    0.35544701804590956    
  0.31573981025077535    0.23917714795465198    0.15865385129694579    0.10044383519042346    0.06685296861554929    
  0.050911930848574274    0.046546521819647156    0.05047372422531819    0.06127161910859004    0.07735132268815838    
  0.09522848039937898    0.10953298844363736    0.11501232635675554    0.10953301964834081    0.09522845151782293    
  0.07735133634591645    0.06127162603621952    0.05047372457406014    0.0465465253669056    0.05091192576553387    
  0.06685295722161257    0.10044383277578527    0.15865383350124693    0.2391771583986139    0.31573980301191423    
  0.35544700745182267    0.3633017998833541    0.2741218690107381    0.25843230394733563    0.21558083110429146    
  0.15998744696079106    0.10962996802693971    0.07388110934228638    0.05261926800726886    0.0422351622079741    
  0.039385498667743254    0.042051445101021774    0.04920045352134991    0.059554675988102344    0.07083017178450231    
  0.07971066337573966    0.08306162741513425    0.0797106814413461    0.07083016222586429    0.05955468023659681    
  0.04920044002419898    0.04205145081176062    0.03938550469339749    0.04223517332144694    0.05261925867236577    
  0.07388109754156089    0.10962997035139418    0.15998745090165384    0.21558083563743233    0.2584322983891367    
  0.2741218690107381    0.16930997867720624    0.15951251478413722    0.13436039368015806    0.10328230224315124    
  0.07517008655798511    0.054601570995047706    0.04186057019482814    0.035414655583297455    0.03361937610108665    
  0.03534530122318809    0.0398186623079536    0.0460698218500504    0.05270972061292659    0.05785077624435041    
  0.05976850459704577    0.05785078343717773    0.05270973276879498    0.046069820021205105    0.03981864329348998    
  0.03534530746423526    0.03361936385134178    0.03541465482091845    0.041860570582872764    0.05460156989414508    
  0.07517010700549394    0.10328231241605385    0.1343603813880896    0.15951249929673675    0.16930997867720624    
  0.10866043256152037    0.10322589354104159    0.0892649511054087    0.07179390198140384    0.05552913318070357    
  0.04316462817113017    0.03518791651975199    0.030986456912967444    0.029772004837607034    0.030875173582068916    
  0.03368021156761052    0.03748286207289743    0.04139101908990237    0.04436633347465102    0.04548626148984151    
  0.044366337668147224    0.04139102129441553    0.03748286495479887    0.03368019492068281    0.030875188821498523    
  0.029771994777421294    0.030986444819551113    0.035187926600229624    0.04316463055995813    0.05552913965029083    
  0.07179389150102776    0.08926493461469083    0.10322591875321754    0.10866043256152037    0.08549144195410142    
  0.081696524202299    0.07183126007579725    0.059366935363779856    0.04761485930032063    0.03843319119658567    
  0.03230322856396361    0.028959220740279863    0.027910601671792976    0.028620245818435464    0.03055805428187413    
  0.033187462336427505    0.035822958333993946    0.037795724840281986    0.03854916966324301    0.03779571612445971    
  0.035822963585410754    0.03318748014544599    0.03055804114444139    0.02862025192860061    0.027910596137276512    
  0.028959210196906705    0.0323032274084946    0.038433191341193    0.047614864023752666    0.05936693338958684    
  0.07183124728526613    0.08169652094113716    0.08549144195410142    0.08964061598642313    0.08558904336220495    
  0.07499363466934247    0.06162364144979261    0.0490913746379759    0.03931637902921579    0.0327849217411696    
  0.029166416945499277    0.02787783193666931    0.028344835015268913    0.030019890340921344    0.03236086067986596    
  0.034726417027986956    0.036489683566152814    0.03715285173546292    0.036489680915473145    0.03472641286215627    
  0.032360865323647556    0.030019873340173094    0.028344850331644755    0.027877821325680136    0.029166415687961654    
  0.03278491822936429    0.039316374897038396    0.049091383322284236    0.06162364628253774    0.07499362227233225    
  0.08558905689547006    0.08964061598642313    0.12020815129819114    0.11399730121191926    0.09789846689222928    
  0.07785341543261182    0.05942561028497758    0.0454469991642256    0.036353891624514106    0.03135292259208224    
  0.029426909907934982    0.029757084549880325    0.031639499525197255    0.03437169906735449    0.03722233113567132    
  0.039365383695916266    0.04014668829803573    0.039365362343576446    0.03722233583289838    0.03437170287734441    
  0.03163950019456024    0.029757090608388017    0.029426907474663325    0.031352926920054966    0.0363538963962351    
  0.04544699832289816    0.05942562432814442    0.07785344049738786    0.09789845465580159    0.11399726811918032    
  0.12020815129819114    0.18129685756887784    0.17067406338305277    0.14331458012087148    0.10956169076028799    
  0.07912083659079905    0.0567627375445742    0.042694933537351015    0.035157138627567405    0.03221840596511767    
  0.03247329385195458    0.0349466872097158    0.03870040175134539    0.04270668433104467    0.04575555667813109    
  0.04686722264296725    0.045755569960502646    0.04270666843816197    0.0387004030215202    0.03494668032294306    
  0.03247329795122366    0.032218411107811755    0.03515714233048948    0.04269492744852985    0.05676273401070619    
  0.07912086169910718    0.10956168984755908    0.14331457187601485    0.17067404574628423    0.18129685756887784    
  0.2668737661711205    0.2513547683687692    0.2095881064551313    0.15589899634107754    0.10720554348564403    
  0.07229020721285188    0.051051206936059    0.040014078737652066    0.03575358341784127    0.0359628539021903    
  0.03929738128799142    0.04454822857662876    0.05023615154504708    0.05463022158617216    0.05626263786171053    
  0.054630254021563275    0.050236158144598475    0.044548238214887806    0.03929737639215278    0.03596285543540846    
  0.035753597034767014    0.040014075790734585    0.051051181563497264    0.07229020113503457    0.10720554095250266    
  0.15589901843032913    0.20958809591533317    0.2513547405740492    0.2668737661711205    0.34041106486958006    
  0.3259424883821292    0.2787985014938044    0.2074909376723266    0.13859429019826905    0.08921101728021329    
  0.05986011691429339    0.0449508258972939    0.03925916787236084    0.03946265736959075    0.04374549099852206    
  0.05062728668966593    0.05820019245631879    0.06413843401946277    0.06638002424210247    0.06413843793708994    
  0.058200217457450104    0.050627274359851475    0.0437454873878835    0.03946266842524372    0.03925917091731665    
  0.04495082341701674    0.05986010568900827    0.08921101640928307    0.13859433117164252    0.20749096497475775    
  0.2787984463182049    0.3259424809924612    0.34041106486958006    0.3658613947446355    0.36024290454271585    
  0.3241014045303641    0.24739095160998048    0.16387837920064668    0.10266009352023454    0.06670171016825009    
  0.048716841567677555    0.04190196083117785    0.042095822340617324    0.04710780762634758    0.05527312372925697    
  0.06437218659674833    0.07156749303671868    0.07429727299310039    0.07156748863012508    0.06437218297520192    
  0.05527312763065214    0.04710779817426467    0.04209583289992511    0.041901963683668456    0.04871683042597963    