#     DFTpy    
  CRYSTAL 
    
  PRIMVEC    
  5.639310344827585    0.0    0.0    
  0.0    5.639310344827585    0.0    
  0.0    0.0    3.1068965517241374    
  PRIMCOORD    
  4    1    
  Si    0.0    0.0    0.0    
  Si    2.8196551724137926    2.8196551724137926    1.5534482758620687    
  Si    0.0    2.8196551724137926    0.7767241379310343    
  Si    2.8196551724137926    0.0    2.330172413793103    
  BEGIN_BLOCK_DATAGRID_3D    
  3d_datagrid_density    
  BEGIN_DATAGRID_3D#0    
  25    25    15    
  0.0    0.0    0.0    
  5.639310344827585    0.0    0.0    
  0.0    5.639310344827585    0.0    
  0.0    0.0    3.1068965517241374    
  0.06068024960441258    0.10764898117904256    0.26418226694333047    0.38088450458999445    0.32216871213514486    
  0.22498792219678887    0.17286373119978382    0.16661693063010896    0.19841426910002344    0.25937401288217304    
  0.32443422690387697    0.3627938899121029    0.37221749338034005    0.3627939322622914    0.3244342429487877    
  0.25937404011412346    0.198414271076026    0.16661690150397004    0.17286369599501683    0.22498797295557194    
  0.3221687102602067    0.38088452220375546    0.264182252640405    0.10764900827596648    0.06068024960441258    
  0.10764899087612309    0.16096719881059712    0.3045387534450176    0.37832739207834143    0.30495310138848214    
  0.2122799403895131    0.16397475070421866    0.1582708804197886    0.18795398491735624    0.2451763389198317    
  0.30850062979270615    0.34994293850758373    0.3620188185112925    0.3499429674202855    0.3085006013412104    
  0.2451763338388484    0.1879539833848722    0.15827087401177706    0.16397476053747975    0.21227993993271216    
  0.3049531078755545    0.378327375644531    0.3045387275329297    0.16096724045519592    0.10764899087612309    
  0.2641822834478172    0.30453873195424486    0.36919273306172246    0.3486534471838489    0.2580171754288993    
  0.17987446115953296    0.14108095227746537    0.13657848412275722    0.16069817270093356    0.2076884882841949    
  0.26317975393564386    0.305709483941383    0.3207741843331061    0.305709492038447    0.26317978666478686    
  0.20768846270098587    0.16069817533576705    0.13657850255803178    0.1410809541449754    0.17987444204745534    
  0.2580171859367636    0.34865345411405957    0.36919275631707543    0.30453874351972643    0.2641822834478172    
  0.3808844736298155    0.37832733364018145    0.3486534516334298    0.27733987622172956    0.19730573204383722    
  0.1405840597179902    0.11302127797224557    0.10977566779960518    0.1269456121306691    0.16033245562211562    
  0.2012662960429272    0.2351927388457771    0.24814633728925878    0.23519274442596175    0.20126628971939514    
  0.16033245071091573    0.126945614180857    0.10977565209738059    0.11302127341721405    0.14058404673847844    
  0.19730572873110835    0.2773398929747489    0.3486534613003143    0.37832734829374154    0.3808844736298155    
  0.3221687145993429    0.3049530943198992    0.2580171725334461    0.19730573216570785    0.1429468083949969    
  0.10628018241667359    0.08818646867681654    0.08590057778452109    0.09684026440737943    0.11787541320823157    
  0.14372158263154533    0.16550297211976908    0.17395574880108616    0.1655029521805083    0.14372159913039287    
  0.11787541952188142    0.09684026620666514    0.08590058727008523    0.08818648222528568    0.10628017154460508    
  0.14294680485201114    0.19730573553647207    0.2580171785433779    0.3049531089849014    0.3221687145993429    
  0.2249879558455194    0.21227991705685142    0.17987447294577236    0.14058406188930211    0.10628016888774065    
  0.08281516522272857    0.0708294499245371    0.06894791254889937    0.07548681247195627    0.08826386822507801    
  0.10374095971723185    0.11664409207775682    0.12168661722705323    0.11664409592399384    0.10374094973115493    
  0.08826386958515793    0.0754868075873066    0.06894792084612142    0.07082944593252116    0.08281517656812538    
  0.10628017538248033    0.14058408168084016    0.17987443118455235    0.21227995841674172    0.2249879558455194    
  0.17286373128084032    0.16397475047080162    0.1410809553474127    0.11302127509192027    0.08818647598335641    
  0.07082943876909426    0.06164299894778259    0.05968086565419022    0.06366699401907103    0.07203391021651112    
  0.08208214406216671    0.09035220574770558    0.09362069260984095    0.09035220745307442    0.08208214585618838    
  0.07203391027812056    0.06366699944115796    0.05968086047396107    0.061643001418781075    0.07082943319400714    
  0.08818647809608667    0.11302127359345338    0.1410809371735805    0.16397476071196077    0.17286373128084032    
  0.16661693986909493    0.15827087297517103    0.1365784930245286    0.1097756916904128    0.08590058360796787    
  0.06894792151389242    0.059680867574737964    0.05719344023686231    0.0600666961382574    0.0667832156633824    
  0.0749782679023705    0.08177216949509825    0.08447090340395962    0.08177216307877853    0.07497828010135696    
  0.06678320280993694    0.060066698036908325    0.05719344323513187    0.05968087584937212    0.06894791374107656    
  0.08590058055712742    0.10977567923923352    0.1365784855909344    0.15827088324342894    0.16661693986909493    
  0.19841425772412216    0.1879539642525597    0.16069817753171375    0.12694561638109564    0.09684026198071946    
  0.07548681185091564    0.06366699936285952    0.06006670055632501    0.06279314793947835    0.06994153910675381    
  0.07899195731881795    0.08656160392884757    0.0895257480026865    0.08656164596320642    0.07899194699187816    
  0.06994152943372366    0.0627931514642688    0.06006670414793385    0.063667002379435    0.07548681262602258    
  0.0968402727016206    0.1269456197626156    0.16069817224668098    0.18795398910783268    0.19841425772412216    
  0.2593740016120211    0.24517630376876573    0.20768846064558738    0.16033246401744894    0.11787543357870459    
  0.0882638578426464    0.07203390735390759    0.0667832002019992    0.06994153445139205    0.07899339413429422    
  0.09078547475512226    0.10084742801514673    0.1047818804767301    0.10084740877366659    0.09078546090161013    
  0.07899339976616541    0.06994152472610052    0.06678320030682806    0.07203389738747416    0.08826384458650269    
  0.11787542075935752    0.16033244603083657    0.20768844466614472    0.24517634021651086    0.2593740016120211    
  0.32443425508628976    0.3085006363774158    0.26317978815095555    0.20126628554680098    0.1437216043917815    
  0.10374096080938429    0.08208214881793734    0.07497828003417258    0.07899194412138394    0.09078548033232171    
  0.10631841831827664    0.11984376587081837    0.12522797094584764    0.11984378416870216    0.1063184383666924    
  0.09078546212212286    0.07899194484049918    0.07497829002251923    0.0820821548078806    0.1037409606061204    
  0.14372159002057414    0.20126633251234508    0.2631797777977168    0.30850061274552854    0.32443425508628976    
  0.36279395269629305    0.3499429398015414    0.30570946826041695    0.23519275351096328    0.16550297021618024    
  0.11664409779661457    0.09035220250774846    0.08177215996960854    0.08656161262109444    0.10084740805947345    
  0.11984379713657534    0.13649553479999982    0.1431370017890698    0.13649554756903393    0.11984377151735362    
  0.10084743327047932    0.08656161313457779    0.0817721690047866    0.09035220004963267    0.11664409502726905    
  0.16550295989995464    0.2351927629791398    0.3057094210956435    0.3499429932171804    0.36279395269629305    
  0.37221750399142245    0.3620187856540504    0.32077415082922756    0.2481463507746132    0.17395577636939433    
  0.1216865733436235    0.09362068641890481    0.0844709024202927    0.08952575492752675    0.10478189155309332    
  0.12522794833110065    0.14313699477730346    0.15025230672968495    0.1431370244599414    0.12522793268524757    
  0.10478189118610227    0.08952572860816466    0.08447091925316672    0.09362068410825816    0.12168659192773428    
  0.1739557425628786    0.24814637035915166    0.32077412425022855    0.36201881210992287    0.37221750399142245    
  0.3627939170182815    0.34994295801647296    0.3057094824289058    0.23519279616499178    0.16550293880111527    
  0.11664408853685973    0.09035220290915798    0.08177216586435711    0.08656161036703876    0.10084740674791669    
  0.1198437820494462    0.13649553799873979    0.14313697275984819    0.13649551862437992    0.119843760089907    
  0.10084741088568355    0.08656159907341136    0.08177217027655201    0.09035222127711848    0.11664409876709685    
  0.1655029379417438    0.23519275380312918    0.3057094793299854    0.3499429656448091    0.3627939170182815    
  0.32443423203177185    0.3085006579584793    0.2631797922112913    0.2012663152798008    0.14372160175781046    
  0.10374094713833515    0.08208215069017383    0.07497827614275317    0.0789919392596047    0.09078547432576202    
  0.10631841315671335    0.11984378712529918    0.12522795134144382    0.11984379979843357    0.10631845486177206    
  0.09078548111759266    0.07899194656477046    0.07497827896438077    0.08208215294432791    0.10374096054992409    
  0.14372160378500162    0.20126630624513744    0.26317974403738154    0.30850061787342126    0.32443423203177185    
  0.2593740028401636    0.24517632962816158    0.20768843869631107    0.16033247039065568    0.11787542836429755    
  0.08826385936774767    0.07203390286726408    0.06678320024377915    0.06994153196671542    0.07899339170609129    
  0.0907854768120233    0.10084743407120009    0.10478187640049486    0.1008474062892171    0.09078548322005267    
  0.07899339486551982    0.0699415222466005    0.06678320031246135    0.07203390592360302    0.08826385977057244    
  0.11787542883991252    0.16033246287007746    0.20768843518657384    0.24517635431136528    0.2593740028401636    
  0.1984142652006647    0.18795395877664442    0.16069818497930272    0.12694560618837641    0.09684025988521336    
  0.07548682334047742    0.06366700051187346    0.060066707515712484    0.06279314977172207    0.06994152665580697    
  0.07899192416699723    0.08656162328812929    0.08952576056663308    0.0865615941544152    0.07899193974953003    
  0.06994151306339945    0.0627931587060455    0.06006671578143683    0.0636670045695527    0.07548681139909763    
  0.09684026258890763    0.12694561328664855    0.1606981863351948    0.18795398631702753    0.1984142652006647    
  0.16661693487249013    0.15827086676681132    0.13657851526013115    0.10977568649946558    0.08590058198311948    
  0.06894791252717071    0.05968086791826397    0.05719343919314885    0.06006670952701103    0.0667832037736143    
  0.07497830642944302    0.08177219663439035    0.0844709149481723    0.08177217368956487    0.07497828837656459    
  0.06678320355511858    0.060066701440655235    0.057193445587737306    0.059680873003583434    0.06894791454004072    
  0.08590057984418938    0.10977569175827877    0.13657848769028944    0.1582708785990899    0.16661693487249013    
  0.17286371755736568    0.16397471994306043    0.14108094217535846    0.11302128164257792    0.08818647495083619    
  0.07082944020459127    0.06164299592974501    0.059680863734668556    0.06366699708208726    0.07203389602607864    
  0.08208213500005435    0.09035220231877855    0.09362068143459963    0.09035220043251892    0.082082144296794    
  0.07203391032533554    0.06366699598790451    0.05968086960459523    0.06164300570186239    0.0708294384296497    
  0.08818647090442755    0.11302127781279014    0.14108093298685875    0.1639747565012183    0.17286371755736568    
  0.22498798014568908    0.2122799225888852    0.1798744476431168    0.1405840711208871    0.10628017231077014    
  0.08281517671188045    0.07082944023021737    0.06894791098882856    0.07548680920562684    0.08826386788079456    
  0.10374094771675993    0.11664408229160553    0.12168656661040513    0.11664406453493945    0.1037409660832751    
  0.08826384499294426    0.07548680857965225    0.06894791500829646    0.07082943993534427    0.08281516519385215    
  0.10628017668327874    0.14058405385351458    0.17987443449621537    0.2122799518076445    0.22498798014568908    
  0.32216872086513376    0.3049531120621234    0.25801718928233935    0.19730572134048063    0.14294681615411306    
  0.1062801719348312    0.08818647664586052    0.08590057984245629    0.09684025187300695    0.11787545081134258    
  0.1437216039774485    0.16550297731063388    0.17395574591336102    0.16550301043820922    0.1437216267031152    
  0.11787543283827215    0.09684027083252254    0.08590058722210808    0.08818648202854049    0.1062801615684074    
  0.1429468198531227    0.1973057082318012    0.2580171852342997    0.30495311178634166    0.32216872086513376    
  0.3808844780163536    0.3783273370916159    0.3486534983290038    0.2773398740077325    0.19730573745256416    
  0.14058405493730536    0.11302127427743748    0.10977567030003821    0.12694560786985537    0.16033246792532047    
  0.20126629147633793    0.23519278059461685    0.24814633205713812    0.23519273547188144    0.20126630773830534    
  0.16033244512160308    0.12694559498626426    0.10977567455030306    0.11302127718929528    0.14058404853322112    
  0.1973057384927375    0.2773398819040927    0.3486534492077953    0.37832735960468633    0.3808844780163536    
  0.2641822655500494    0.3045387276978522    0.3691927575271517    0.34865348921122236    0.25801715301886113    
  0.17987445851241107    0.1410809460743548    0.13657847738930304    0.16069818592344    0.2076884534564978    
  0.26317975957119777    0.30570947117713976    0.3207741535472927    0.3057095104124576    0.26317975340144706    
  0.20768848036459223    0.1606982005608459    0.13657848001933875    0.14108094704033164    0.17987445889982462    
  0.25801715660061836    0.3486534663881398    0.369192754887346    0.30453873236466816    0.2641822655500494    
  0.10764898520769182    0.16096722228703528    0.3045387768620676    0.3783273630721944    0.3049531126346132    
  0.21227993220955585    0.16397475560324576    0.15827085677611716    0.1879539626472712    0.24517635290095388    
  0.30850066535275855    0.3499429655186376    0.36201881746769526    0.34994299643495824    0.30850061064726525    
  0.24517633395102256    0.18795397049851562    0.15827085182027056    0.1639747702909255    0.21227995408897057    
  0.30495308126621057    0.3783273919533132    0.3045387495071355    0.1609672311543279    0.10764898520769182    
  0.06068024960441258    0.10764898117904256    0.26418226694333047    0.38088450458999445    0.32216871213514486    
  0.22498792219678887    0.17286373119978382    0.16661693063010896    0.19841426910002344    0.25937401288217304    
  0.32443422690387697    0.3627938899121029    0.37221749338034005    0.3627939322622914    0.3244342429487877    
  0.25937404011412346    0.198414271076026    0.16661690150397004    0.17286369599501683    0.22498797295557194    
  0.3221687102602067    0.38088452220375546    0.264182252640405    0.10764900827596648    0.06068024960441258    
  0.10211389685057276    0.1550300793668374    0.30011280920655914    0.3762613858083934    0.30079110875637605    
  0.20321935616923834    0.14858991568912805    0.13340742847337791    0.14756997541636158    0.18416563521883794    
  0.23164369476151642    0.2713069249564428    0.2863844975679735    0.27130697170003654    0.23164368655654538    
  0.18416563717930642    0.14757000467038814    0.133407400599798    0.14858991029508073    0.2032193827563001    
  0.3007910987827519    0.37626139564046157    0.3001127812916203    0.15503009489209268    0.10211389685057276    
  0.15511385169724612    0.20883341638120684    0.3319860933723136    0.3698706985499826    0.28476896410479097    
  0.19230152619535706    0.14152147869183615    0.1274245797732188    0.14068186091529242    0.17475228158020167    
  0.21898212004911607    0.2564037517876806    0.27084946579289687    0.2564037750937287    0.21898212303611583    
  0.17475227453733644    0.14068187224695966    0.12742458685403854    0.14152147158559966    0.19230152622373933    
  0.28476896862736306    0.36987064537191083    0.33198606381113516    0.20883342885882197    0.15511385169724612    
  0.3015863782598198    0.3333464314118682    0.37389485623630936    0.3346575786343749    0.241366043214866    
  0.164279633559234    0.12333841084905231    0.1119316042515886    0.12280382704268297    0.15038498503230902    
  0.18621633849429114    0.21704558564505858    0.22916105250192764    0.21704560665887762    0.18621635969811937    
  0.15038496574764623    0.12280382998207062    0.1119316101373291    0.12333840642379003    0.16427961541739722    
  0.2413660258437724    0.3346575959853228    0.37389482613100555    0.3333464188894919    0.3015863782598198    
  0.38298680898473425    0.37602256241063714    0.33876674826183456    0.2647903795607901    0.1861788237506806    
  0.1303220211993839    0.10097179944735908    0.09269594380139473    0.1005754363669062    0.12025942227393525    
  0.14571040793706103    0.1675964683242325    0.17616567985873194    0.1675964675765298    0.1457104053022373    
  0.12025942559399931    0.10057542580297667    0.09269593253490273    0.10097180546593204    0.1303219907029096    
  0.18617883629440543    0.2647904287166195    0.33876676144248963    0.37602260455194886    0.38298680898473425    
  0.3157724168814261    0.2983833138176542    0.2515115688779156    0.19145825456559992    0.13778085991755618    
  0.10091175069722173    0.0811970939665414    0.07547638191334284    0.08064555565049598    0.09351120609382599    
  0.10995234665633713    0.12394485948026217    0.12939566321130694    0.12394486901128227    0.10995234484093334    
  0.09351120690908522    0.08064556017168943    0.07547639231207094    0.08119709555535616    0.10091174250215787    
  0.137780861016905    0.1914582757171931    0.2515115386748016    0.2983833189154228    0.3157724168814261    
  0.22893137271028308    0.21581589692145262    0.18240220814940775    0.1418569225887477    0.10621046440335186    
  0.08137683951363199    0.06775409147591337    0.06356954096484066    0.0667733584963764    0.07515993776109493    
  0.08574706274571899    0.09462546496290096    0.09810393787697214    0.09462546845049338    0.08574706366437922    
  0.07515994534407003    0.06677335459940645    0.06356955008565711    0.06775408906131222    0.08137684021158124    
  0.10621045945238945    0.14185693067824645    0.18240216152004407    0.21581593920878728    0.22893137271028308    
  0.18955062874007486    0.17931906255401753    0.15315974871484175    0.12122497602641152    0.09288127037293062    
  0.07281223534027027    0.06162737067225541    0.05792241622319359    0.059997443817727314    0.06617528649341402    
  0.07398125425997155    0.08047396829263102    0.08304343681356742    0.08047396849046493    0.07398125818550938    
  0.06617529325009364    0.059997451493157106    0.0579224152400839    0.061627371939299694    0.0728122362694802    
  0.09288127110854895    0.12122497712124085    0.15315973228281257    0.1793190653420026    0.18955062874007486    
  0.1998816282303772    0.18899025073433662    0.16094912981521262    0.12665900900002747    0.09629230971891296    
  0.07472394000984606    0.0625312380096788    0.05823794711166111    0.05994041644500366    0.06578341541973647    
  0.07335137625175654    0.07971013675210564    0.08222896113602042    0.07971014229203535    0.07335139162810514    
  0.06578339733631045    0.059940423975129234    0.05823794392406653    0.06253124548533051    0.07472393618167102    
  0.09629231437001624    0.1266590063410301    0.16094911151888153    0.18899027132108703    0.1998816282303772    
  0.25561485992991795    0.24124816015571737    0.20357184191769492    0.15674567593240457    0.115263794609952    
  0.08614742158747964    0.06975161239614151    0.06380074666815576    0.06564136048796917    0.07276983387996472    
  0.08230436007531604    0.09043695660046029    0.0936081240888675    0.09043698946614608    0.08230436598095524    
  0.07276982429046909    0.06564135734782009    0.06380074738243455    0.06975160654571787    0.08614741847813163    
  0.11526380631256036    0.15674567373290424    0.2035718376776672    0.24124819024781366    0.25561485992991795    
  0.335766673864233    0.3196922257517926    0.2727363762738234    0.20773114811511978    0.1473479588814086    
  0.10518813955077749    0.08188828216117366    0.0733612714215988    0.07567876298752513    0.08538823599709616    
  0.09862833822054949    0.1101298994182375    0.11464376990113274    0.11012986845127543    0.0986283452322462    
  0.0853882360551054    0.0756787636246177    0.07336126907812457    0.08188828004825655    0.10518811823891283    
  0.14734798301708854    0.2077311319336723    0.2727363893525554    0.31969225718774597    0.335766673864233    
  0.3771670573626903    0.37211244197205734    0.33851138584093815    0.26575748585472736    0.1856510818164784    
  0.12762857675105527    0.09586900133459368    0.08434158543586072    0.087390541320428    0.1004197612822666    
  0.11834100864186944    0.13420021860069767    0.14055321015226055    0.13420022975070567    0.11834100726365772    
  0.10041977531534277    0.08739055049433558    0.08434158117777467    0.09586901143465461    0.1276285671697765    
  0.18565108912531442    0.26575752562030036    0.3385113323677548    0.372112433104818    0.3771670573626903    
  0.34957895690359286    0.36514750971978116    0.369239911934438    0.30883860805641294    0.21725236416594695    
  0.14621877898388294    0.10727307284114618    0.0932616741527216    0.09690884558782903    0.1127884437143569    
  0.13487564160213672    0.15459672078589426    0.1625479135467422    0.15459672444006603    0.13487562406967094    
  0.11278846741761235    0.09690883525554679    0.09326167753368113    0.10727306215809715    0.14621878299236937    
  0.21725235715357472    0.3088386485522547    0.36923983850065495    0.3651475330532883    0.34957895690359286    
  0.323922167281815    0.3489893303387323    0.3735438258825938    0.3235809918737498    0.2293075124922947    
  0.1534599751811786    0.1117546644859682    0.09678563178613897    0.10059644539327668    0.11756649979934443    
  0.14134658491250274    0.16260734777722124    0.17115416771629097    0.16260737764071606    0.14134659066466965    
  0.11756652098092658    0.10059644939462725    0.09678562667404816    0.11175466365500225    0.1534599603801063    
  0.22930753182115785    0.32358101927311017    0.37354382243047035    0.3489893570550971    0.323922167281815    
  0.3495789207697271    0.3651475114504188    0.3692399097809785    0.30883863593915983    0.2172523600885859    
  0.14621877088598875    0.1072730866869108    0.09326168006536852    0.09690884412551554    0.11278846776861992    
  0.13487561090192413    0.15459671824738663    0.16254789775429568    0.15459669870504336    0.1348756369336022    
  0.11278844942581927    0.09690883476122689    0.09326168489570415    0.10727308360437765    0.14621879533540938    
  0.2172523406090003    0.30883860507680805    0.36923986968432    0.3651475072607158    0.3495789207697271    
  0.3771670205043499    0.37211247460464714    0.3385113872865071    0.26575748529926985    0.18565108989804596    
  0.12762854781072663    0.09586901425027705    0.08434157392334111    0.08739054401219315    0.10041976388487653    
  0.11834100116687295    0.1342002405126833    0.14055319880033318    0.13420026295600807    0.11834102331765663    
  0.10041977089078652    0.0873905600933596    0.08434158286998304    0.09586901413849702    0.12762856041159543    
  0.1856511046047507    0.2657575019062943    0.33851134099448543    0.37211241996253885    0.3771670205043499    
  0.33576665556588403    0.31969225311670657    0.2727363586681781    0.2077311494755827    0.14734797447853745    
  0.10518813580989841    0.08188827290020476    0.07336127109669816    0.07567876656223722    0.08538823884031771    
  0.09862834061947894    0.11012989311605638    0.114643767105566    0.1101298698779722    0.09862836072941908    
  0.08538822688521105    0.07567876144986081    0.07336126112457995    0.08188827512345125    0.10518812597232105    
  0.1473479652335882    0.20773115887868418    0.27273638513992293    0.31969228995097654    0.33576665556588403    
  0.2556148570330713    0.2412481328837959    0.20357184279179547    0.15674566820423358    0.11526379930401759    
  0.0861474298363134    0.06975160418619653    0.06380074604218983    0.0656413569648209    0.07276981425671673    
  0.08230433614696601    0.0904369810745552    0.09360812912193023    0.09043696651621495    0.08230435809824534    
  0.07276981381447732    0.06564136383758963    0.06380075896487002    0.06975159890217515    0.0861474203089356    
  0.1152637939377653    0.15674568287932453    0.20357181969204266    0.24124819052456342    0.2556148570330713    
  0.19988162640051324    0.18899026701444674    0.16094915277525096    0.12665901357928402    0.09629230672258202    
  0.07472394027433107    0.06253123585297207    0.05823794436653473    0.05994043306930821    0.06578340115035776    
  0.07335139507505256    0.07971015697801591    0.08222899008480321    0.07971014824397432    0.07335140147138892    
  0.06578340707287858    0.059940422244582625    0.05823793843089875    0.06253124136961988    0.0747239432730591    
  0.09629231270316645    0.1266590202762462    0.16094910544468702    0.18899025913002634    0.19988162640051324    
  0.18955063428499802    0.17931904561888382    0.15315975091315776    0.12122499524086806    0.09288127428198485    
  0.07281223092597876    0.06162737012799354    0.05792242046903723    0.05999743861875187    0.06617528254577972    
  0.07398125990456181    0.08047397510962442    0.08304342049612388    0.080473966837183    0.07398126328197631    
  0.06617529378234258    0.059997445701364324    0.05792241950797842    0.061627374224987305    0.07281223162747308    
  0.09288126620735364    0.12122497902678517    0.15315974239451538    0.17931907192418317    0.18955063428499802    
  0.22893138765968907    0.21581592399328967    0.18240218175491468    0.141856923711339    0.10621046901677213    
  0.08137684745725407    0.06775409551661993    0.06356953574486597    0.06677336737680838    0.07515994369294135    
  0.08574704230399817    0.09462545561748635    0.09810391407061637    0.09462543477447546    0.08574705713146263    
  0.07515992319237294    0.06677335014846073    0.06356953915614287    0.06775409035309196    0.08137683413333156    
  0.10621047657787636    0.14185691802720626    0.18240217186534213    0.21581593007539934    0.22893138765968907    
  0.31577238494066756    0.2983833028234367    0.2515115824466478    0.19145826770301785    0.13778086532686434    
  0.10091174123390571    0.08119709612954532    0.07547638979083345    0.08064554592101245    0.09351122449799518    
  0.10995235487356429    0.1239448614838139    0.12939567442033073    0.12394488167476327    0.10995236794129111    
  0.09351122999931377    0.08064555643132507    0.07547638994479039    0.08119710117655692    0.10091173848683979    
  0.13778086904190026    0.19145824836783887    0.2515115833825083    0.29838331622056385    0.31577238494066756    
  0.3829868057250288    0.3760225910496912    0.3387667838671216    0.26479039571441965    0.18617882579036432    
  0.13032200582990677    0.10097181176372273    0.09269595327517537    0.10057542643127765    0.12025942323285793    
  0.14571041324138642    0.16759649512158345    0.1761656645011403    0.16759646804313527    0.14571042679836613    
  0.12025942281601332    0.10057541566415062    0.09269594979180992    0.10097180788379158    0.13032198925120825    
  0.18617884190065415    0.2647903840105215    0.33876673355981174    0.3760225806808139    0.3829868057250288    
  0.3015863580944473    0.3333464326005097    0.3738948495327866    0.3346575946706641    0.24136601501939892    
  0.16427962860101397    0.12333840711042314    0.11193161608780612    0.12280384565764528    0.1503849560359277    
  0.18621634077971705    0.2170455667777678    0.2291610341318591    0.21704558776022884    0.18621634617098895    
  0.15038496085093764    0.1228038542940711    0.1119316102922132    0.12333841426580645    0.16427964160729214    
  0.24136601618225778    0.33465759844103643    0.3738948657837978    0.33334645019992426    0.3015863580944473    
  0.15511386703248692    0.2088334045386815    0.33198611388232663    0.369870637047392    0.2847689833695867    
  0.19230151080860153    0.1415214646965431    0.12742457699811136    0.14068184341047155    0.1747522834841743    
  0.21898215819223163    0.25640379410997055    0.2708494705780185    0.25640378318358653    0.21898212771580203    
  0.174752276959155    0.14068187162327062    0.12742456243561523    0.14152147451583522    0.19230153213652768    
  0.2847689746208185    0.36987070038538833    0.33198606960890564    0.20883342340668104    0.15511386703248692    
  0.10211389685057276    0.1550300793668374    0.30011280920655914    0.3762613858083934    0.30079110875637605    
  0.20321935616923834    0.14858991568912805    0.13340742847337791    0.14756997541636158    0.18416563521883794    
  0.23164369476151642    0.2713069249564428    0.2863844975679735    0.27130697170003654    0.23164368655654538    
  0.18416563717930642    0.14757000467038814    0.133407400599798    0.14858991029508073    0.2032193827563001    
  0.3007910987827519    0.37626139564046157    0.3001127812916203    0.15503009489209268    0.10211389685057276    
  0.24319201870833768    0.28745520775998756    0.364093673253524    0.3511387954083451    0.25668242895311516    