#     DFTpy    
  CRYSTAL 
    
  PRIMVEC    
  4.644137931034483    0.0    0.0    
  0.0    4.644137931034483    0.0    
  0.0    0.0    2.558620689655172    
  PRIMCOORD    
  4    1    
  Si    0.0    0.0    0.0    
  Si    2.3220689655172415    2.3220689655172415    1.279310344827586    
  Si    0.0    2.3220689655172415    0.639655172413793    
  Si    2.3220689655172415    0.0    1.9189655172413789    
  BEGIN_BLOCK_DATAGRID_3D    
  3d_datagrid_density    
  BEGIN_DATAGRID_3D#0    
  21    21    11    
  0.0    0.0    0.0    
  4.644137931034483    0.0    0.0    
  0.0    4.644137931034483    0.0    
  0.0    0.0    2.558620689655172    
  0.050881285515064455    0.09420976303959706    0.2573165898708649    0.43818033769439574    0.46699318067172535    
  0.4295129636178048    0.4184682024009151    0.43224084830738785    0.42856866411096484    0.3928675245435088    
  0.37036592814844654    0.3928676232212399    0.42856887641064384    0.43224073892538395    0.4184682025713618    
  0.4295129932344148    0.4669931051126655    0.4381805166471983    0.25731655612860715    0.09420974063524369    
  0.050881285515064455    0.09420974718896984    0.14530022745709817    0.301340988447063    0.43726041334345034    
  0.4391454973832742    0.3981578292729966    0.3878701856971121    0.4047649148029001    0.412955749958161    
  0.3941492508498413    0.3792177268691512    0.39414927052067805    0.41295585412171554    0.40476487953457546    
  0.38787024518321445    0.39815774740433374    0.43914538529069075    0.43726048690042374    0.3013409837106722    
  0.1453002164825213    0.09420974718896984    0.25731658045665917    0.3013410633392087    0.38794375470247194    
  0.41298412647412874    0.36732850899238334    0.3231288759610801    0.31453800168045176    0.3354041385521678    
  0.36303653254385715    0.3758732779284963    0.3765931330855868    0.37587321079458813    0.36303658795893623    
  0.3354039648579893    0.31453809185440734    0.3231289463605213    0.36732841475266503    0.4129842627452832    
  0.38794351354942985    0.30134107838739005    0.25731658045665917    0.4381805000378897    0.4372604777784697    
  0.41298422383488026    0.3506777361492542    0.28283111629385616    0.24199909304256886    0.23510989914571856    
  0.2554953340852825    0.2900617057102058    0.31948818999888967    0.3300424892011987    0.31948818722213396    
  0.2900616738336126    0.2554952775982247    0.23510988433398075    0.24199914678442486    0.2828311167469431    
  0.35067768038943836    0.41298414820677964    0.43726057931787893    0.4381805000378897    0.46699312319768643    
  0.4391454854302065    0.3673284020608029    0.2828309919452593    0.21693559051381786    0.18196873064761623    
  0.17612458374950515    0.1936386941205065    0.22513901485203702    0.2551494015579436    0.2674299087914479    
  0.2551494187948594    0.2251391967644619    0.1936386603164227    0.17612460193018065    0.18196877150772223    
  0.2169356388097269    0.2828310573360382    0.367328283053862    0.4391455156142754    0.46699312319768643    
  0.4295130384638575    0.3981578305136624    0.3231289992354564    0.24199907185732988    0.1819687595724022    
  0.15059899429127627    0.1451833301621778    0.16074864039898457    0.1889166596176678    0.21650122169798525    
  0.2282840348861013    0.21650128662815316    0.18891673185263158    0.16074858284689314    0.14518330293946996    
  0.15059897406577574    0.18196876492954686    0.24199911032755836    0.32312884970433625    0.3981578090930316    
  0.4295130384638575    0.41846828076293896    0.38787027072506625    0.3145380187834338    0.23510982925666202    
  0.17612462398751985    0.14518333169567393    0.13982737228163433    0.1553307414893454    0.18357547293845786    
  0.21142480133858607    0.22339373904732462    0.2114247846572027    0.18357554994779576    0.15533071217592365    
  0.13982738606078976    0.14518334854872647    0.17612461011962618    0.2351098824764375    0.31453802341199516    
  0.38787027930019236    0.41846828076293896    0.4322408186131037    0.40476488851055265    0.3354041855699578    
  0.2554952647389654    0.19363882367793542    0.16074860345082784    0.1553307881386269    0.17253494692317917    
  0.20410267732319143    0.23535971355285448    0.24864838360033056    0.235359696077878    0.20410265289437754    
  0.17253485784082043    0.15533076689081476    0.16074864933079036    0.193638725718922    0.2554952928263115    
  0.33540398582122977    0.4047649427182991    0.4322408186131037    0.4285688870814656    0.4129558423874536    
  0.3630366908822141    0.290061711277991    0.2251391654975864    0.1889167008532363    0.18357559527618053    
  0.20410269505701462    0.24145725038196816    0.27826436051547787    0.2936989362732287    0.2782643501638957    
  0.24145730344831792    0.20410262285288847    0.18357559185404443    0.1889167458804662    0.22513918162432064    
  0.29006170889425825    0.36303650601427784    0.41295580781274077    0.4285688870814656    0.39286755656703287    
  0.3941492208525561    0.37587327299808665    0.31948804213871596    0.25514939177380236    0.21650129771611595    
  0.21142478004157061    0.23535964465750228    0.2782640980146598    0.32039996183230557    0.33797769186998633    
  0.32039991438321175    0.2782643331458945    0.23535956990169035    0.2114247386216638    0.21650124613117197    
  0.2551494584338849    0.3194881740274652    0.37587318351589    0.39414931450580104    0.39286755656703287    
  0.37036590115700146    0.3792176881496494    0.37659318280153325    0.3300423943702684    0.2674299314928564    
  0.22828402295857714    0.22339377128552196    0.24864838352430677    0.2936988715672619    0.33797763285363125    
  0.3564471981344302    0.3379776748281187    0.2936989202052708    0.24864839781242115    0.223393788245842    
  0.22828401344128524    0.26742987489579273    0.3300425778445827    0.37659303920967996    0.3792176937223966    
  0.37036590115700146    0.3928675472259383    0.3941492899901413    0.37587313199812333    0.3194880486226711    
  0.2551494459999746    0.2165013144479567    0.21142478351708305    0.23535964875416135    0.2782642504721847    
  0.320399929410264    0.3379776335105466    0.3203999364552608    0.27826430600637014    0.23535964486696084    
  0.2114247780478593    0.2165012070349895    0.2551493549485069    0.31948811333522065    0.37587310551032094    
  0.3941493193135907    0.3928675472259383    0.42856887053265397    0.41295575304518645    0.3630366489817435    
  0.29006167230600693    0.22513923954602988    0.18891670518783515    0.1835755728104682    0.20410266509952532    
  0.2414571806771598    0.27826437226949574    0.29369897710435827    0.27826431531489276    0.24145721262658515    
  0.2041026363949992    0.18357558725762088    0.1889167468555249    0.22513921940865836    0.29006172694552507    
  0.3630364814573809    0.4129558491235668    0.42856887053265397    0.432240866383179    0.4047649296153119    
  0.3354041362955334    0.2554953423619124    0.193638760574808    0.16074861224724674    0.1553307916526034    
  0.17253491508333443    0.20410266677816016    0.23535968234800347    0.2486484303628546    0.23535971978897244    
  0.2041026893015554    0.17253485293839502    0.1553307749187913    0.16074863417816274    0.1936387764048384    
  0.25549532842814415    0.3354039868739996    0.4047649101784296    0.432240866383179    0.41846829076409847    
  0.38787022919513364    0.3145380317164255    0.23510978747706898    0.17612461092525689    0.14518332894294944    
  0.13982734711279643    0.1553307274819698    0.18357551393277954    0.2114247679556924    0.2233937421871116    
  0.21142479601970313    0.1835756009797702    0.1553307295545485    0.13982736746394547    0.14518330972441265    
  0.17612465814857942    0.23510988131323285    0.3145380176060909    0.38787028223493497    0.41846829076409847    
  0.42951300601959264    0.39815781471538003    0.3231290019988028    0.24199909203956677    0.18196876076836946    
  0.15059899017333594    0.14518333859958116    0.1607486191138919    0.1889166781482133    0.2165012937126432    
  0.22828403678868175    0.21650130972960469    0.18891673885103386    0.16074857746239887    0.14518328666656066    
  0.15059898938239244    0.18196868770333396    0.24199914274027215    0.32312884989585194    0.39815785771653645    
  0.42951300601959264    0.46699320098721336    0.4391455098102177    0.36732837078730757    0.2828310391166578    
  0.216935670517791    0.18196873326954746    0.17612458448174895    0.19363870798131005    0.22513904378339125    
  0.2551494498076375    0.26742986613523295    0.25514945705110387    0.2251391227756909    0.1936386769289438    
  0.17612459830552823    0.18196875726715117    0.21693564816950522    0.2828310892920519    0.3673283081872177    
  0.4391455011602448    0.46699320098721336    0.438180397853774    0.4372604955067853    0.4129843681321276    
  0.35067760958695554    0.28283117856150536    0.24199909481709528    0.23510993090239    0.25549535372818966    
  0.2900617225425406    0.31948819131576706    0.3300424805789034    0.3194882362249739    0.29006170270789366    
  0.2554952756888767    0.23510991243933735    0.24199918676747678    0.2828310680860696    0.35067766696821673    
  0.41298418307492935    0.4372604990382898    0.438180397853774    0.2573166082499709    0.30134107563173385    
  0.3879436562889107    0.41298417903613077    0.3673283976097857    0.32312885883523207    0.3145380582633784    
  0.33540411549269383    0.36303655392324286    0.37587321402055246    0.37659324309508907    0.3758732580861082    
  0.36303666234356735    0.33540401388320995    0.31453801368733875    0.3231289117625001    0.36732841719757314    
  0.41298423940206835    0.38794360737020367    0.3013409742981564    0.2573166082499709    0.09420974071015631    
  0.1453001928129838    0.3013410970700406    0.43726040877506156    0.439145472628736    0.3981578172782828    
  0.3878702654397846    0.40476486676437423    0.41295562503406985    0.39414925452121935    0.37921763995261293    
  0.39414918476868027    0.4129559034893558    0.4047648498733868    0.38787025653776974    0.39815777764891125    
  0.43914549223952143    0.43726047503139975    0.30134096479534306    0.14530026931277065    0.09420974071015631    
  0.050881285515064455    0.09420976303959706    0.2573165898708649    0.43818033769439574    0.46699318067172535    
  0.4295129636178048    0.4184682024009151    0.43224084830738785    0.42856866411096484    0.3928675245435088    
  0.37036592814844654    0.3928676232212399    0.42856887641064384    0.43224073892538395    0.4184682025713618    
  0.4295129932344148    0.4669931051126655    0.4381805166471983    0.25731655612860715    0.09420974063524369    
  0.050881285515064455    0.10228166198368983    0.15194124973737036    0.29487551834715336    0.40491887025356077    
  0.38932632585883126    0.3392248454503219    0.32074189623477734    0.3375156947367221    0.37122959470917494    
  0.3994491860616745    0.4094027856840708    0.39944925345827    0.3712297324243735    0.33751560989403767    
  0.3207418702114829    0.3392249104276048    0.3893262311644985    0.4049190350337918    0.29487546833589684    
  0.15194123014953637    0.10228166198368983    0.15629285857175915    0.20709544035281696    0.3314174389991471    
  0.4025363058973267    0.3687126906441927    0.3171540129204641    0.2991644120690304    0.31520816182097483    
  0.34875993274390976    0.37836973177546357    0.3892579437431021    0.3783697411759994    0.3487600254372465    
  0.3152081160550704    0.2991644145286363    0.3171538968235929    0.3687126463423631    0.4025363762133919    
  0.33141744549354973    0.20709538788639675    0.15629285857175915    0.3219756278601474    0.35271681417135686    
  0.3981989874887942    0.38061791952376156    0.31582191675320903    0.26433765512187124    0.24790604601368302    
  0.2617790640569235    0.29322600368067414    0.3234599508934216    0.33535404594466117    0.3234599557389114    
  0.29322610688973744    0.26177889747091615    0.24790605105344007    0.2643376708735335    0.31582191272672516    
  0.380617992811098    0.3981988521619353    0.35271690719080573    0.3219756278601474    0.4762323554626048    
  0.4635371305096387    0.4142837197553096    0.33225473807626177    0.25452879374004495    0.20743039123026377    
  0.19305924245424766    0.20440705955292993    0.23142390963161877    0.2586033091548469    0.26979344234292624    
  0.2586033108318469    0.2314238876162389    0.2044070070427922    0.1930592115239305    0.2074303871833073    
  0.25452882479111744    0.3322547005841107    0.41428367083513806    0.4635371613653432    0.4762323554626048    
  0.501057986638779    0.46664845101093544    0.3809234470171662    0.2837628021676456    0.20888992441740808    
  0.16693066224226588    0.15422469615845374    0.16385673678815268    0.18671566207353194    0.20989260230419504    
  0.21971721808764097    0.20989264799954913    0.18671580668614268    0.16385672006106894    0.15422467785537    
  0.16693063665077712    0.2088899063143413    0.28376286176773147    0.38092332602977313    0.4666484726366099    
  0.501057986638779    0.4832522117205603    0.44581585010233643    0.35679736028881714    0.2612864290942318    
  0.19012044840751466    0.15062020618131952    0.13859589926843688    0.14758610072716385    0.16867034915232185    
  0.1900605906576201    0.19925722571524335    0.19006066304061858    0.16867044402202486    0.14758606523292064    
  0.1385958525458024    0.1506202030061962    0.19012046579859587    0.26128644234599335    0.35679716836526526    
  0.4458158753524339    0.4832522117205603    0.4907347532037206    0.45534794761964387    0.36879804427350865    
  0.272780537069144    0.19967977735559353    0.15881613283872073    0.1464096997821491    0.1557879692536431    
  0.17805292908173667    0.20080379692175443    0.21056467771172044    0.20080379004550875    0.1780529830049981    
  0.15578793095332932    0.14640971291987562    0.15881613213065837    0.19967973171767744    0.2727805797492669    
  0.3687981262958109    0.4553478579345281    0.4907347532037206    0.4816415645043503    0.46115334464277674    
  0.3984998051828008    0.3109151286677858    0.2344620534106194    0.18948399817640718    0.17589365598360548    
  0.18684038548570406    0.21295861605707447    0.23975752722825447    0.25108331287635316    0.23975749097228746    
  0.21295863101296114    0.18684029481602143    0.17589358729668292    0.18948406997461228    0.23446198562846046    
  0.31091519455820343    0.3984996554964343    0.46115344738020436    0.4816415645043503    0.3763413703319426    
  0.3916490337933727    0.40003358280117757    0.3548308547170472    0.2841398858357352    0.2347395606919501    
  0.21969187028832085    0.23346210858982702    0.26506494618976395    0.29704297117797773    0.3103177912359671    
  0.29704298485307007    0.2650649829409658    0.23346198312892702    0.21969187275018046    0.2347395679581877    
  0.2841399469693922    0.35483085166615086    0.4000333882605679    0.39164908084978944    0.3763413703319426    
  0.23470416447269227    0.27734988628425367    0.36092403122842603    0.38061806759446415    0.3282131437881516    
  0.2772467775978203    0.2610969308926473    0.2776849846027568    0.31388721235448336    0.34963742198253156    
  0.36429390755302316    0.349637350101301    0.3138874547107487    0.2776849799207144    0.2610969267634574    
  0.2772466876235407    0.3282132008960384    0.38061824318072285    0.36092389192235885    0.2773498635765379    
  0.23470416447269227    0.17871563671989327    0.22675234942735126    0.33570191419092316    0.3864606158029351    
  0.34564860018069526    0.2951187818229633    0.27862795684139324    0.2962970962249419    0.33410189735592255    
  0.370992087616829    0.38607521785505927    0.3709921249603725    0.33410195348647104    0.2962970244899164    
  0.27862795296015475    0.29511866474454534    0.34564855223535457    0.3864608533618321    0.33570181632281343    
  0.2267523618017053    0.17871563671989327    0.2347041384519343    0.2773498788892995    0.36092386253520464    
  0.3806180728695152    0.3282131674848635    0.27724675158179174    0.2610969305925796    0.2776850056045451    
  0.3138873583691475    0.34963735713839633    0.3642938213689934    0.3496373490367424    0.3138874108671029    
  0.27768497951863635    0.2610969467216161    0.27724669774272664    0.3282131588442908    0.38061814922746884    
  0.36092384026437585    0.27734991740898013    0.2347041384519343    0.37634136233097665    0.39164901917698125    
  0.4000335897453145    0.354830849523399    0.2841399430791709    0.2347395643847056    0.219691829586617    
  0.2334620982086322    0.2650648643080717    0.29704293824529043    0.3103178144062334    0.29704290721034    
  0.2650648933003582    0.2334620320275973    0.21969185015621295    0.23473961452479533    0.2841399249488329    
  0.3548309250811817    0.40003341708252543    0.3916491506051016    0.37634136233097665    0.4816415187805999    
  0.46115344652912293    0.3984998181745624    0.3109152221826235    0.23446200937639589    0.18948401851309377    
  0.17589362421814528    0.1868403882566189    0.21295864146222004    0.2397574907576947    0.2510833084225137    
  0.2397574889686191    0.2129586893815548    0.18684031195955403    0.1758936134683662    0.18948405312543432    
  0.234462045141316    0.31091524469987597    0.3984996116020926    0.46115344414864057    0.4816415187805999    
  0.49073462771821935    0.45534779301291045    0.3687981059477079    0.27278045927732036    0.199679746463068    
  0.15881613027156494    0.14640968157528017    0.1557879761306972    0.17805291040493249    0.20080374099085085    
  0.2105646776337625    0.20080378068832322    0.17805305081862594    0.1557879555176111    0.1464096826055012    
  0.15881613440651013    0.19967975763410822    0.2727805884732614    0.36879806103708745    0.45534782567143733    
  0.49073462771821935    0.48325223230355796    0.4458157848906328    0.35679734172449    0.2612863873227378    
  0.19012047192538056    0.1506202088981604    0.13859586503834928    0.1475861063396515    0.16867035519932902    
  0.1900605989175189    0.19925725037753103    0.19006063123772546    0.1686704065216476    0.1475860442543928    
  0.13859586894287979    0.15062021510012388    0.19012041359867446    0.2612864893279566    0.35679721126648667    
  0.4458158968133644    0.48325223230355796    0.5010580904411225    0.46664853466336326    0.3809234069586444    
  0.2837627866014071    0.20888996143426428    0.16693066422320696    0.1542246737030895    0.16385675889213694    
  0.1867156997734453    0.20989260456642586    0.21971714582890986    0.2098926373690606    0.18671578039173192    
  0.16385668902372474    0.1542247008302215    0.1669306266685304    0.20888995304003669    0.283762864451275    
  0.38092337401443643    0.4666484335096376    0.5010580904411225    0.47623232139732063    0.4635371655127522    
  0.4142838175967187    0.33225464957980183    0.25452884243557566    0.2074303820314847    0.19305920864768555    
  0.20440709536705337    0.23142389190970875    0.2586033168478261    0.2697934154917833    0.2586033747261074    
  0.2314239119373281    0.20440701716569165    0.1930592222907646    0.20743041386984554    0.2545287372773923    
  0.3322547012422889    0.4142836752743756    0.4635371453316634    0.47623232139732063    0.32197574185446565    
  0.3527168868142679    0.39819895384689835    0.3806179650670156    0.3158218103333423    0.2643376734162039    
  0.2479060352679462    0.2617790203772853    0.29322606336521867    0.32345993768827147    0.3353540377438749    
  0.32345999559076627    0.2932261110187252    0.26177894109178734    0.24790601377269247    0.26433770300563597    
  0.3158218696303583    0.38061797894619526    0.39819881890996617    0.35271680716993487    0.32197574185446565    
  0.15629286189173658    0.2070954229895049    0.3314175803348352    0.4025363244894346    0.3687126387905635    
  0.3171539517430817    0.2991644015508439    0.31520818565415953    0.348759851159307    0.37836975141507645    
  0.38925793389774266    0.37836972477593905    0.34876000160325143    0.3152081038483888    0.29916442351910294    
  0.3171539450372    0.3687127347010659    0.4025363625599485    0.3314174953969455    0.20709548302382214    
  0.15629286189173658    0.10228166198368983    0.15194124973737036    0.29487551834715336    0.40491887025356077    
  0.38932632585883126    0.3392248454503219    0.32074189623477734    0.3375156947367221    0.37122959470917494    
  0.3994491860616745    0.4094027856840708    0.39944925345827    0.3712297324243735    0.33751560989403767    
  0.3207418702114829    0.3392249104276048    0.3893262311644985    0.4049190350337918    0.29487546833589684    
  0.15194123014953637    0.10228166198368983    0.28130217694249926    0.3140871692862899    0.36794551023956734    
  0.36131594906455833    0.30387836836694493    0.25735464021343607    0.24576887490108001    0.2662063606293119    
  0.3069152294210737    0.34758565728349583    0.36462562241917446    0.34758575607525466    0.30691534560396966    
  0.2662062682510733    0.24576890186734696    0.2573546757563898    0.3038783622230024    0.3613161182937183    
  0.3679453944924076    0.3140871771905993    0.28130217694249926    0.3257529295097953    0.34949917818439036    
  0.37928213878162753    0.35246446578643154    0.28928085285006816    0.24295339511332556    0.23146135665701467    
  0.2506974461636309    0.2893972956921526    0.3281250818237677    0.3443359135800943    0.3281251660204139    
  0.28939735742110523    0.25069739925497564    0.23146131353594118    0.24295332229176794    0.28928073741314875    
  0.35246445667558185    0.37928218728151536    0.3494992049961011    0.3257529295097953    0.41802079686968285    
  0.41585110827173477    0.38890651887903815    0.32371975158134325    0.2529864949538351    0.20898710540594903    
  0.1979257112130364    0.21403967378398225    0.24741344811303612    0.2810620503378893    0.2952015940218429    
  0.2810620462816453    0.24741355636075488    0.21403957791764575    0.19792568812253158    0.20898711465711536    
  0.25298646257374585    0.32371986286666127    0.38890629385612563    0.4158512312352175    0.41802079686968285    
  0.4669777595541695    0.4410657479547539    0.3711095114954619    0.28428474295088274    0.213458072961479    
  0.17349519849039807    0.16309430702626546    0.17612234274220043    0.20375494312343306    0.23179011139506311    
  0.2437345399736789    0.23179011682952486    0.20375497908868495    0.1761222690264214    0.16309428042553942    
  0.17349522027580694    0.21345809504200802    0.2842847846563732    0.3711094618549279    0.44106580012715846    
  0.4669777595541695    0.4615360082261662    0.42754425095564474    0.345464252584147    0.2557836692843217    
  0.1883181644455403    0.15134393024458018    0.14150015096226803    0.1528885763110599    0.17695478214059507    
  0.20124757514236577    0.21171655404881462    0.20124754055950533    0.1769549192328901    0.15288854633256563    
  0.14150017037847945    0.15134390245037366    0.18831818584712995    0.2557837581994673    0.34546415857479773    
  0.42754432641877343    0.4615360082261662    0.4640395177940676    0.42882990606848087    0.3448855477549248    
  0.2544977285902764    0.18726740462459407    0.1506068724699807    0.1408342378411137    0.15200166302652957    
  0.17540543250040874    0.1988285809903339    0.20888178635058943    0.19882867439614083    0.17540550918040923    
  0.15200159937462426    0.1408341847641346    0.15060690119770787    0.18726738520735167    0.2544977411194526    
  0.3448854356048656    0.4288299208895607    0.4640395177940676    0.4919939757554404    0.4604338446200254    
  0.38021232591127535    0.2872316077242546    0.2148695386144293    0.17492180916358027    0.16439782404900236    
  0.17671017514004664    0.2026272459060979    0.22821851257868334    0.2388820436198364    0.22821847821195043    
  0.20262721934647981    0.17671016999831668    0.16439784047822376    0.17492177166080664    0.21486954453586538    
  0.287231654926718    0.38021234046601216    0.4604338555025539    0.4919939757554404    0.45852289031649845    
  0.453154409419747    0.41842172929555227    0.34596524357667485    0.2713760695045715    0.22561264816666401    
  0.21340546826358953    0.22791610518319572    0.2579857981281316    0.2864308547712124    0.29755822621649286    
  0.2864308016606353    0.2579858167654196    0.22791599413202498    0.21340543558640623    0.22561274263667772    
  0.2713759820293067    0.34596529288176875    0.41842157156071674    0.4531545427243638    0.45852289031649845    
  0.27764722384894136    0.317970116915378    0.39136700879651837    0.4000792122859853    0.3447417917567829    
  0.2949917271533168    0.2805952319155875    0.29707052584386967    0.32821531750671573    0.35346746742483914    
  0.3617862909498372    0.3534674655840919    0.32821539201141153    0.29707039898109405    0.28059521473469035    
  0.2949918368366223    0.34474177630682923    0.4000791505797858    0.39136688146044235    0.31797020498802436    
  0.27764722384894136    0.1094619326855378    0.16082192834475897    0.3073261092200306    0.42041524762456334    
  0.40707034109647033    0.35907643593072536    0.34297363485256266    0.3598072094894764    0.38614837365605725    
  0.3997676250408407    0.40144507756324527    0.39976760815655926    0.3861485922022424    0.35980717447914773    
  0.3429736335099066    0.35907636943163496    0.40707052053460757    0.42041531017956496    0.30732600471036303    
  0.16082194044515646    0.1094619326855378    0.06241546846687563    0.10767359896576971    0.26451958667583425    
  0.42059150190976885    0.43115990793625436    0.3858064619017204    0.36911946062174383    0.38555400293031616    
  0.4080850868959787    0.4143761269001605    0.41221286361944437    0.41437623335598966    0.40808520418580624    
  0.3855539583035578    0.3691194428284057    0.38580641672412946    0.4311599801261156    0.4205916523019651    
  0.2645194165294719    0.10767360560076294    0.06241546846687563    0.10946194513759451    0.16082192371338264    
  0.3073259568848796    0.4204152481372929    0.4070704447606874    0.35907638830336724    0.34297360358962314    
  0.35980716496249715    0.386148436790633    0.3997675940268148    0.4014450388757615    0.3997676019343774    
  0.38614856886586896    0.3598071683182285    0.3429736549035326    0.35907633555044516    0.40707041886445144    
  0.42041535135303487    0.30732599864778454    0.16082194339548853    0.10946194513759451    0.27764723681267817    
  0.3179701509231238    0.3913670460274431    0.40007917531802417    0.3447418534118926    0.2949917828927287    
  0.28059519199578775    0.2970705186150028    0.3282153080750383    0.35346748468856953    0.36178629825606684    
  0.35346745354199843    0.3282153232064819    0.29707037936939495    0.2805951845394844    0.2949917909145647    
  0.3447418323444225    0.4000791884370586    0.3913668993229243    0.317970186403597    0.27764723681267817    
  0.4585228995585351    0.45315454082377804    0.418421707965365    0.3459652669558305    0.2713760436084361    
  0.22561267556789322    0.2134054653230471    0.22791608824858978    0.2579857950726427    0.28643079381792247    
  0.2975583299234259    0.28643076641862597    0.2579858790074892    0.22791599829695913    0.21340541561984752    
  0.22561270354846535    0.2713759759137089    0.3459652823328301    0.41842157376523087    0.45315446774670215    
  0.4585228995585351    0.4919938980351979    0.4604336689048565    0.3802124091438402    0.28723152002277746    
  0.21486955247852327    0.17492182573570514    0.16439781556287683    0.17671018785884157    0.20262716882960716    
  0.22821846800155743    0.23888204526598553    0.22821854267419772    0.20262732090121252    0.17671017862452315    
  0.1643977903238885    0.17492175515100086    0.21486956285218373    0.28723159741423515    0.3802123438406722    
  0.4604337788320364    0.4919938980351979    0.46403955730523444    0.4288298102686626    0.34488555458690606    
  0.25449767038971544    0.18726737621056155    0.15060688830046495    0.14083419408529418    0.1520016718444064    
  0.17540544126515767    0.19882865206582698    0.20888176711464815    0.19882864247280288    0.1754055442777335    
  0.15200157964748268    0.1408341940247225    0.1506068991638804    0.1872673380298643    0.25449780626288077    
  0.3448854614541983    0.4288298864170387    0.46403955730523444    0.4615361293116361    0.42754435022410453    
  0.34546418164176906    0.2557837417913042    0.1883182274043732    0.15134390381226645    0.14150014558760163    
  0.15288857320154503    0.1769548076777333    0.20124754308659362    0.21171653506609217    0.20124754745275436    
  0.1769548855425986    0.15288856920556396    0.14150017593162983    0.15134394516698416    0.1883181681828683    
  0.2557837865948175    0.34546417799325274    0.4275443187417584    0.4615361293116361    0.4669777288141124    
  0.4410657199687974    0.3711095953163353    0.2842847488457846    0.21345810000584153    0.1734952001284661    
  0.16309429906542153    0.17612235398701928    0.20375493288573052    0.23179012036614116    0.24373449264648914    
  0.23179018184137692    0.20375496927280176    0.17612231491024333    0.16309426254932652    0.173495212892179    
  0.21345800524203332    0.284284772696733    0.3711094374389962    0.4410657573379757    0.4669777288141124    
  0.4180209202449384    0.4158511766508931    0.3889064542608959    0.32371975032610883    0.2529864486794019    