#     DFTpy    
  CRYSTAL 
    
  PRIMVEC    
  6.136896551724138    0.0    0.0    
  0.0    6.136896551724138    0.0    
  0.0    0.0    3.38103448275862    
  PRIMCOORD    
  4    1    
  Si    0.0    0.0    0.0    
  Si    3.068448275862069    3.068448275862069    1.69051724137931    
  Si    0.0    3.068448275862069    0.845258620689655    
  Si    3.068448275862069    0.0    2.535775862068965    
  BEGIN_BLOCK_DATAGRID_3D    
  3d_datagrid_density    
  BEGIN_DATAGRID_3D#0    
  27    27    15    
  0.0    0.0    0.0    
  6.136896551724138    0.0    0.0    
  0.0    6.136896551724138    0.0    
  0.0    0.0    3.38103448275862    
  0.060169558226234814    0.10698361887900726    0.26101151506360426    0.3666714083033257    0.29592011689540615    
  0.1906602445351666    0.1291318656354677    0.10843081827453228    0.11817355344956774    0.15522250100673396    
  0.21530897490918913    0.2810550499035342    0.32623513994539605    0.34053609697048853    0.32623513853271974    
  0.2810550766481046    0.21530902903384394    0.15522247550381246    0.11817356935412025    0.10843078875990401    
  0.12913186137534785    0.19066019581271013    0.29592006337362997    0.36667139325192766    0.2610115374309832    
  0.10698362018582219    0.060169558226234814    0.10698359972241685    0.15991767249733296    0.3003379458368963    
  0.36409469397062444    0.2803656147861279    0.18017588554961256    0.12290914872510339    0.1036211064256014    
  0.11273486852489144    0.14728870706223834    0.20354762770555088    0.26638006442577244    0.3116345081994646    
  0.32676503499273785    0.3116344968330679    0.2663800982383866    0.20354762255940478    0.1472887181157899    
  0.11273487183334939    0.10362110024198977    0.12290915098530349    0.18017589621148897    0.2803656361782186    
  0.3640947256851264    0.3003379276942094    0.15991765293137292    0.10698359972241685    0.26101147890532966    
  0.3003379272817451    0.36136246945930645    0.333954713773263    0.23663331105064678    0.15285359625635775    
  0.10680452376340263    0.09125170512321962    0.09874558670328154    0.1267030596749432    0.1723062806600234    
  0.22511389392258918    0.26634971369728894    0.28144870704315544    0.2663496517774576    0.22511384292410033    
  0.17230631954696174    0.12670303415607895    0.09874559209156582    0.09125169961163576    0.10680452749113654    
  0.15285359138669546    0.23663330875438657    0.3339547458948216    0.3613625118159217    0.300337921356205    
  0.26101147890532966    0.366671356952082    0.3640947578923566    0.3339547422387984    0.26077029917251493    
  0.1784788796767175    0.11903176597834932    0.08677832689520446    0.07573210633150267    0.08118452121493754    
  0.10097973963460358    0.13295385888017244    0.17046730021256673    0.2010952798706343    0.21289613482426367    
  0.2010952635529599    0.17046726413837204    0.13295388772154512    0.10097970218163264    0.08118452388727956    
  0.0757320990589897    0.08677833177946011    0.11903176816933513    0.17847886102774094    0.2607703096143976    
  0.33395475378027617    0.3640947272241682    0.366671356952082    0.29592005095311624    0.2803656900350893    
  0.23663332859928105    0.17847884779141537    0.1256252763587196    0.08881618966207463    0.06839160350310576    
  0.06123128920231586    0.06473125609335303    0.07735841137017144    0.09734572594550042    0.12035501831700761    
  0.1391362990386533    0.1464883906784392    0.13913627222466562    0.12035503079610867    0.09734573284278891    
  0.07735840030570315    0.06473126347299203    0.061231289940177645    0.06839160275153634    0.08881617810058143    
  0.12562528011559565    0.17847886361343462    0.23663330709568814    0.28036569355791385    0.29592005095311624    
  0.19066021902586008    0.18017592215127476    0.15285361558211336    0.11903175820190932    0.08881616893189577    
  0.06716469521392633    0.05473878550553904    0.05023995300816759    0.05226110583787469    0.059768363673038574    
  0.07139768472717023    0.0843636718568601    0.0947451859845192    0.0987795060973353    0.09474516936301687    
  0.08436368240729483    0.07139772286906411    0.059768355370924474    0.05226110832569838    0.050239940838678415    
  0.05473878703727679    0.06716469200096409    0.08881617744273855    0.119031761289455    0.1528536080832237    
  0.18017589911128867    0.19066021902586008    0.12913186824824394    0.12290916087541547    0.10680452838894185    
  0.08677830414840414    0.06839158458822539    0.05473877973249516    0.04659216061697819    0.04343274166571341    
  0.044440156678635524    0.048880060141459354    0.05565851919503917    0.06307342725025669    0.0688862644453038    
  0.07109057688001172    0.06888624070573224    0.06307343043932469    0.055658522129250106    0.04888004547528082    
  0.044440157727333604    0.04343274328387287    0.04659216115548918    0.054738785008014997    0.06839159257961154    
  0.08677831410037153    0.1068045079553402    0.12290913575597925    0.12913186824824394    0.10843078185766923    
  0.10362109878389189    0.09125171662174719    0.07573209759815214    0.06123127105518724    0.05023993826155815    
  0.04343274479479557    0.04045451674523507    0.04078597342112629    0.043731585744841095    0.0482927565665809    
  0.053251662915730316    0.05708676624404952    0.05850018696852604    0.05708675352962704    0.053251656420387726    
  0.04829276636679938    0.04373156871308523    0.04078597796659619    0.04045450611315559    0.0434327494722782    
  0.05023993184155937    0.06123128464200988    0.07573210499217108    0.09125170340663089    0.1036210908268308    
  0.10843078185766923    0.11817354793132086    0.11273486735235871    0.0987456009563952    0.08118453252365221    
  0.06473125057953827    0.052261099008780905    0.04444016301876928    0.04078599182972513    0.04059616512402336    
  0.04306051252460171    0.04715627389703889    0.051649668532489396    0.055119937379833936    0.05641150013876253    
  0.055119904423493425    0.05164966243019843    0.04715629140418694    0.04306050393730963    0.040596168433824624    
  0.040785982617065966    0.04444016595016916    0.052261108077407706    0.06473124413529525    0.08118453774899939    
  0.09874559493116156    0.11273485517110586    0.11817354793132086    0.155222504078694    0.14728872455808792    
  0.12670304628833423    0.10097969911750448    0.0773584211144789    0.05976836097511839    0.048880057589884666    
  0.043731585742326474    0.04306050037993105    0.045701641815648834    0.0504904132598122    0.05588676870546649    
  0.06014087559764702    0.06176839259769198    0.060140870605008584    0.05588677462042111    0.05049043227594933    
  0.045701642273210635    0.04306050645476876    0.04373157881859628    0.04888006511333447    0.05976835480115383    
  0.07735841822410729    0.10097971582077202    0.12670303343328826    0.14728874270654    0.155222504078694    
  0.2153089821779815    0.2035476822643893    0.17230630168095595    0.13295386897516054    0.09734573658317552    
  0.07139770329996074    0.055658511204845426    0.0482927679153506    0.047156289104043805    0.05049043054720077    
  0.056796537074163274    0.0641048725766615    0.06997237456628398    0.07225125148801316    0.06997234405013203    
  0.06410486257461495    0.05679656800514624    0.050490422036446714    0.047156293441556495    0.048292756157650336    
  0.055658527771934474    0.07139770162611417    0.09734572175635196    0.13295386360798234    0.17230630124302307    
  0.2035476805672158    0.2153089821779815    0.28105507904898686    0.266380052631066    0.22511388252866324    
  0.17046726139594767    0.1203550138076655    0.08436369875144029    0.06307344162215955    0.053251669517154133    
  0.0516496598598226    0.05588677573795793    0.06410485629173308    0.07383062353897758    0.08170874383264641    
  0.0847599443795469    0.08170873267880599    0.07383059931981065    0.06410488105603351    0.055886751064471524    
  0.051649654100368834    0.05325167231316592    0.06307344195941146    0.08436368878766264    0.1203550077182876    
  0.17046724450732817    0.2251138679342084    0.26638010951932684    0.28105507904898686    0.3262351324534552    
  0.31163450072068855    0.26634970965760063    0.20109525745727874    0.13913629550287707    0.0947451717076851    
  0.06888624617534783    0.05708676686104256    0.055119913372228393    0.06014086133617205    0.06997234802732648    
  0.08170871361278079    0.09131154522387126    0.09505703857818468    0.09131155334199698    0.08170872025029924    
  0.06997237921914638    0.06014087110956969    0.05511992521269976    0.05708676534290485    0.06888626827506546    
  0.09474516561494753    0.13913629036314096    0.20109528017523579    0.26634969417596005    0.311634487431346    
  0.3262351324534552    0.3405361569670617    0.3267650277864701    0.28144877043005634    0.21289611362147792    
  0.14648840382839967    0.09877951181756432    0.07109058667297058    0.05850020682901692    0.05641149713855021    
  0.06176839207906201    0.07225126447845126    0.084759973565047    0.09505707499039134    0.09911050515330407    
  0.09505708762963136    0.08475996952956485    0.07225127612955615    0.06176838546548312    0.05641149963771869    
  0.05850021002187528    0.07109056645844654    0.09877951615602071    0.14648841266516502    0.21289611736543132    
  0.28144880833890745    0.3267650669026596    0.3405361569670617    0.3262351042960834    0.31163449924656106    
  0.2663496906391583    0.20109524718799887    0.13913628492895952    0.09474516452207246    0.06888625591606873    
  0.05708675961360652    0.05511991981150982    0.060140867541299874    0.06997236022886441    0.08170872644360555    
  0.09131154765643179    0.09505702753513424    0.09131152954860537    0.08170871696469753    0.06997235905154758    
  0.060140875599172396    0.05511992035595564    0.057086762725640845    0.06888626529509727    0.09474517450337493    
  0.1391362957926295    0.20109522873042118    0.26634967015151984    0.31163451660844294    0.3262351042960834    
  0.2810550263948597    0.26638011492140096    0.22511384487530142    0.1704672641151826    0.12035502061892028    
  0.08436367579458715    0.06307344647249875    0.053251667178453095    0.05164965540491785    0.055886778678608    
  0.06410484382093926    0.07383063059184705    0.0817087139060337    0.0847599522532785    0.08170872260832887    
  0.07383061940963621    0.06410486407987029    0.05588676370336177    0.05164964948575155    0.05325166531921064    
  0.06307345417619846    0.08436369034779573    0.12035503232963399    0.17046724569504143    0.22511389372560967    
  0.26638007789499274    0.2810550263948597    0.21530897480234784    0.2035476359723194    0.17230630609407463    
  0.132953855042364    0.09734573778481567    0.07139769719322399    0.05565851139386286    0.048292768338874754    
  0.047156282435704716    0.05049043806415222    0.05679653304030958    0.06410487097113651    0.06997235336129393    
  0.07225127863670096    0.06997235535674382    0.06410483925029423    0.056796557270911395    0.05049041569076129    
  0.04715628260174176    0.04829277043180271    0.055658525267033104    0.07139770918036858    0.09734570788706677    
  0.13295385010670177    0.1723063003879568    0.20354766719260287    0.21530897480234784    0.1552225082468849    
  0.1472886863492552    0.12670306536584844    0.10097970758089886    0.07735840839672047    0.05976836616924931    
  0.04888005455658406    0.04373158615480743    0.043060495797050936    0.04570163960475737    0.050490428696559904    
  0.055886768268805495    0.060140866068258844    0.061768394351045974    0.06014086932769927    0.05588676959383582    
  0.05049043840369224    0.045701647295216107    0.04306050499376546    0.043731583852065596    0.048880060508150205    
  0.059768363764065406    0.07735841794672514    0.10097969818299397    0.12670304823837575    0.14728871841180616    
  0.1552225082468849    0.11817355175060465    0.11273487146365482    0.0987456112530331    0.08118451544303533    
  0.06473125146815965    0.05226110884951627    0.04444015841572602    0.040785990637330814    0.040596162719745484    
  0.04306051182020779    0.04715627425734902    0.05164965871398214    0.05511994400591871    0.0564115042265853    
  0.05511991922091875    0.05164965814576113    0.04715630145576293    0.04306050327685394    0.040596170412111006    
  0.04078597516672074    0.04444015569750704    0.052261099309627315    0.06473125847910062    0.08118453215437668    
  0.09874559834139666    0.11273487741605508    0.11817355175060465    0.1084307764241221    0.1036210945771689    
  0.09125170530182371    0.07573208181138029    0.0612312835146355    0.05023993368621244    0.043432741759244775    
  0.04045451470666515    0.040785979917636946    0.04373158181847041    0.04829275421653922    0.0532516599555307    
  0.05708676746332287    0.05850019398624252    0.05708675137180051    0.05325165751597749    0.04829276484556657    
  0.04373157148605779    0.04078598159198419    0.04045451183561491    0.04343274872581719    0.05023993739421048    
  0.0612312854134989    0.0757320930170552    0.09125171538134856    0.10362109637756498    0.1084307764241221    
  0.12913186156676687    0.12290915355300251    0.1068045223694105    0.08677831035568402    0.06839157751672449    
  0.05473878019250946    0.046592161079655726    0.0434327429010574    0.04444015921866578    0.04888006360669291    
  0.05565850284678526    0.06307343400916723    0.06888627440293316    0.07109057259692748    0.06888624679879157    
  0.06307344243390918    0.055658519755041554    0.04888004600071349    0.044440157917946733    0.04343272872508986    
  0.04659216317036896    0.05473878236693341    0.06839159084019937    0.08677831711073943    0.10680451232725423    
  0.12290913676961161    0.12913186156676687    0.19066020365320158    0.1801758911103587    0.15285362170796957    
  0.11903177752005555    0.08881617058227295    0.06716469677369576    0.05473879183467263    0.05023994832849253    
  0.0522611069917459    0.05976837101569329    0.07139767414515591    0.08436369248180048    0.09474517325205274    
  0.09877951053581788    0.09474516115111194    0.08436366722689619    0.071397698356047    0.05976835664871351    
  0.05226111108578888    0.05023994325813207    0.054738799459168874    0.06716469561845205    0.08881616911776812    
  0.11903176729924876    0.15285361621439505    0.18017590243712195    0.19066020365320158    0.2959200698333197    
  0.2803656793539386    0.23663332545741092    0.1784788471292619    0.12562529611508513    0.08881617748324158    
  0.0683915975109588    0.06123128344048296    0.06473125642204822    0.07735841025428383    0.09734571115860896    
  0.12035502843099852    0.13913633390814414    0.146488383032493    0.1391362965964728    0.12035502800258585    
  0.09734573097153491    0.07735840964386924    0.06473126154851142    0.06123127998088576    0.06839161186965277    
  0.0888161747122086    0.1256252904418561    0.17847886034681712    0.23663331401578275    0.28036566098016885    
  0.2959200698333197    0.366671369312902    0.3640947407462231    0.3339547456791015    0.2607703237899183    
  0.17847886403045912    0.11903177138307812    0.08677831353875669    0.07573210562563604    0.08118453899071927    
  0.10097971744786945    0.13295385481277092    0.17046727805432133    0.20109529744733384    0.21289614552703545    
  0.20109525130909367    0.1704672398809392    0.1329538988177839    0.10097971740320853    0.08118453268482234    
  0.07573210731481574    0.08677832119809327    0.11903177016267862    0.17847885807183583    0.2607703042262088    
  0.3339547387182093    0.36409477991772865    0.366671369312902    0.26101152398078437    0.30033791059317    
  0.3613625323484018    0.33395473105974943    0.2366333005691289    0.152853606931405    0.10680451265442423    
  0.09125171907122286    0.09874558656677264    0.12670305280829344    0.1723063037924345    0.22511389098626364    
  0.2663497131483669    0.28144871048355485    0.26634968870533654    0.22511386545322504    0.17230630751153528    
  0.12670303112625206    0.09874558081616701    0.09125169568824773    0.10680452774016191    0.15285361378854395    
  0.2366333058507422    0.33395469111715576    0.3613624583581797    0.3003379708669995    0.26101152398078437    
  0.1069836244483858    0.1599176863971123    0.30033796695829595    0.3640946698318222    0.28036568993449074    
  0.18017590337603512    0.12290914399223912    0.10362111038659688    0.11273485118341531    0.14728869402079514    
  0.2035476414529399    0.2663800863030496    0.3116345210320018    0.3267649927371857    0.311634505832425    
  0.26638004774716517    0.2035476827760932    0.14728868454974606    0.11273487014603296    0.1036211143375348    
  0.12290916182654675    0.18017589662704586    0.28036566378264516    0.36409473690033967    0.3003379404111855    
  0.15991766669057886    0.1069836244483858    0.060169558226234814    0.10698361887900726    0.26101151506360426    
  0.3666714083033257    0.29592011689540615    0.1906602445351666    0.1291318656354677    0.10843081827453228    
  0.11817355344956774    0.15522250100673396    0.21530897490918913    0.2810550499035342    0.32623513994539605    
  0.34053609697048853    0.32623513853271974    0.2810550766481046    0.21530902903384394    0.15522247550381246    
  0.11817356935412025    0.10843078875990401    0.12913186137534785    0.19066019581271013    0.29592006337362997    
  0.36667139325192766    0.2610115374309832    0.10698362018582219    0.060169558226234814    0.10971012134123809    
  0.16293596012704542    0.3028111148448168    0.3642772484397058    0.2780634822267652    0.17549254723972685    
  0.11501748177927139    0.09041626669302402    0.09006899849426717    0.108263312313043    0.1410178215491771    
  0.18047438095646073    0.21314154321337006    0.22581715586990306    0.21314150567846601    0.180474377108472    
  0.1410178186789023    0.10826328894171401    0.09006902048633393    0.09041624840622735    0.11501749354917634    
  0.1754924973352281    0.2780634758792184    0.3642772462268814    0.30281112149003375    0.16293598738715356    
  0.10971012134123809    0.16291854671938052    0.21572803100234966    0.33191036497047355    0.3568277628549469    
  0.26295966911241986    0.1660564641226067    0.10983346638374325    0.08692414201406584    0.08662202029017672    
  0.10362182994383319    0.13414851685273038    0.17097092346811976    0.20152978688406914    0.2134159282562524    
  0.2015297743136489    0.17097094497891838    0.134148557043935    0.10362184151612824    0.08662202474124883    
  0.08692412841091846    0.10983347985143309    0.1660564772038175    0.2629596944389648    0.35682777792443426    
  0.3319103624561759    0.2157280226421052    0.16291854671938052    0.30280426716913544    0.3319435341422614    
  0.36571820006335026    0.31941208707204405    0.2217374012002792    0.1416645157692445    0.09638489410133037    
  0.07777037201472195    0.0776075597469435    0.09151958001534939    0.11626534866564027    0.14603604986742053    
  0.17085198984307307    0.18057258426515813    0.17085195768547168    0.146036010416881    0.11626538096640314    
  0.09151956745674973    0.07760756809787125    0.07777036617610582    0.09638489359001096    0.14166451407041133    
  0.22173735044400078    0.31941207135919475    0.3657182417674844    0.33194356703262523    0.30280426716913544    
  0.36565134821173134    0.35818695551946855    0.3203955219129655    0.2465670751076693    0.16815389319573187    
  0.11150488691427445    0.07952008106398135    0.0661430128662151    0.06609329658541284    0.07620168391793689    
  0.093896935849277    0.11486753777059136    0.13226468580503417    0.13912899500352816    0.13226464492437232    
  0.11486751619769449    0.093896952947002    0.07620166945661212    0.06609330329393051    0.06614301058418812    
  0.07952009563016581    0.11150489724082838    0.1681538679131252    0.2465670646040325    0.32039548964352627    
  0.35818696988707904    0.36565134821173134    0.2834927496802983    0.2680251940455965    0.22550483013378353    
  0.17015965527429017    0.12001097973113846    0.08451746778211505    0.06398840141809282    0.05521127924932709    
  0.05518784120596489    0.061855149269759685    0.07337089171906423    0.08666852645482138    0.09748294167076083    
  0.10172674683521692    0.09748293837525215    0.08666852091593101    0.07337090857687321    0.06185513957566462    
  0.05518784754765432    0.055211285541054256    0.06398840539896512    0.08451745462328653    0.12001097851535981    
  0.17015965184297505    0.22550484047677177    0.26802522101580756    0.2834927496802983    0.18669185286991175    
  0.17642416176713824    0.14969169953029438    0.11666796042590627    0.08704498444118364    0.0654979555651198    
  0.05259483768462988    0.04695589038450976    0.046877887435389475    0.051072697894153994    0.05821686050102877    
  0.06627385144879534    0.07266302173845698    0.07512268296648715    0.07266300150624144    0.06627384492714054    
  0.05821689423514614    0.05107269380565481    0.04687789039218335    0.046955884055224766    0.05259484912728549    
  0.06549794610999571    0.08704499459101515    0.11666795030003216    0.14969170033774315    0.17642418093853507    
  0.18669185286991175    0.1346767730402353    0.12803753517850772    0.11082897499334869    0.08942787790771854    
  0.0698758646755116    0.0552788862674637    0.04626349026300767    0.04212119747773506    0.04190049635177558    
  0.04466696786355516    0.04933170822747219    0.05451777317314741    0.058550148340648034    0.06004808076774869    
  0.058550131159566046    0.054517782748807246    0.04933171784583427    0.044666957120276324    0.04190049693500183    
  0.042121197563529444    0.04626349372408722    0.055278892732510285    0.06987586900962584    0.08942789493988616    
  0.11082896875601116    0.1280375199686163    0.1346767730402353    0.12427900782815399    0.11835505418503241    
  0.10305801599109425    0.08398744839746206    0.06636781215537371    0.05311060453396723    0.04476885482732166    
  0.04074176752266768    0.04024257913452126    0.04240410253873347    0.04615538697648065    0.050322797616105086    
  0.05353411926864744    0.05471536155210695    0.053534114204084986    0.05032279377196268    0.04615540594212099    
  0.042404082062571735    0.04024258268072912    0.04074175357796517    0.04476886004999492    0.053110598874132754    
  0.06636783093480451    0.08398745029578221    0.10305800376321293    0.11835505769292029    0.12427900782815399    
  0.1501449789393024    0.1423898434635022    0.12251206465139623    0.09786198904452123    0.07520112536515848    
  0.058264699663433644    0.04771275445636747    0.04258224280507246    0.04164318452572856    0.043783741409436173    
  0.047858020156136084    0.05245167926580757    0.056044893461813856    0.057400723669580135    0.05604485604231866    
  0.05245168940791198    0.047858029897893666    0.04378373575761958    0.041643183913663166    0.042582228210802056    
  0.047712768897166934    0.058264709252720495    0.0752011259059542    0.09786198696250277    0.12251204754139118    
  0.1423898489190665    0.1501449789393024    0.21352936568205483    0.20155197273313585    0.17028822008286493    
  0.13130256344404445    0.0960267973389965    0.07033023551076117    0.05469000671476053    0.0471664799336011    
  0.04557380149938809    0.04821906828248511    0.053627439516244865    0.0599013052774865    0.06493093055954896    
  0.06689587487243126    0.06493093235345482    0.05990131701387278    0.053627457093422905    0.04821907444392272    
  0.04557381539273123    0.04716646573543387    0.054690019613995056    0.07033023078065054    0.09602678809190474    
  0.1313025714692266    0.1702882004732645    0.20155198096227137    0.21352936568205483    0.3014049960854103    
  0.28604460382422026    0.2420854503997773    0.18259187688656714    0.12751470827279646    0.08805824816827194    
  0.06468073674169371    0.05359824632111771    0.05116333480718013    0.054747128271331665    0.06231085516699329    
  0.07132869578349793    0.07870298644227067    0.08159813661716862    0.07870297606490981    0.0713287065456083    
  0.062310872508665655    0.05474711560660417    0.05116334447695822    0.05359823374582738    0.06468075813121758    
  0.08805826082350186    0.12751469609975125    0.18259184025376957    0.2420854511602217    0.2860445853199849    
  0.3014049960854103    0.3621804550139366    0.3533476599951001    0.3134941716150306    0.2401058761326626    
  0.16350106925233263    0.10780420359980315    0.07552428446452326    0.06050028694186652    0.057136082852602556    
  0.0617973948223176    0.07184375312424121    0.08408941916053947    0.09417660646834154    0.09811151970848514    
  0.09417660124009408    0.08408937945297393    0.07184378159488367    0.06179737515724173    0.0571360717878116    
  0.06050028841122723    0.07552428825320803    0.10780419369255753    0.1635010554654282    0.2401058639535146    
  0.31349412906124874    0.353347750353564    0.3621804550139366    0.36011937251976145    0.3672022891177123    
  0.35344670407709533    0.2834566164748345    0.19272116772555836    0.12375059128610463    0.08405360299521542    
  0.0658162852054668    0.06173228108167103    0.06731625132384    0.07943042189937874    0.0942885199177217    
  0.10664335334861128    0.1114871062824237    0.10664337098522579    0.09428849356794652    0.07943043454109758    
  0.06731625722727527    0.06173230298391815    0.06581628129305349    0.08405363033808455    0.12375058205118265    
  0.1927211484904888    0.283456632984823    0.353446696339839    0.36720223165007565    0.36011937251976145    
  0.345397233962563    0.3606498816416514    0.3627766870317842    0.2989277604530706    0.20407199006604235    
  0.1299885272676342    0.08728903356605425    0.06777639684985363    0.06343051462802833    0.06942482035069972    
  0.08236898654568199    0.09823723727227254    0.11150816769254146    0.11675108499415723    0.11150817245778197    
  0.09823721328883471    0.08236899423548759    0.06942479986978506    0.06343051246488823    0.06777639833595413    
  0.08728902547149733    0.1299885116186392    0.2040719729770702    0.2989277625738867    0.3627766918027441    
  0.36064989253369034    0.345397233962563    0.3601193340790292    0.3672022891069876    0.35344667724447415    
  0.2834565903345637    0.19272117003553632    0.12375059866000346    0.08405361628833222    0.06581627658517866    
  0.061732297960512474    0.0673162513670423    0.07943039695667069    0.0942884962101375    0.10664335292447379    
  0.11148710258603882    0.10664338349111599    0.09428848387371394    0.07943042862397537    0.06731625787473712    
  0.06173228734290079    0.06581627547801089    0.08405361714571302    0.12375058807195324    0.19272117742692674    
  0.28345658321009554    0.3534466452493271    0.3672022936074338    0.3601193340790292    0.36218039297657595    
  0.3533476973024039    0.31349414178896573    0.2401058829045032    0.1635010572042873    0.10780419122598713    
  0.07552429152999139    0.0605002923984911    0.057136085039895916    0.061797397666185534    0.07184374299579446    
  0.08408942620515829    0.09417658531084169    0.09811153241861471    0.09417659988620378    0.08408941287350355    
  0.07184377318725038    0.06179738220761526    0.05713608146232916    0.06050028225396374    0.07552429808181106    
  0.10780418724573577    0.16350106382446    0.24010587874895314    0.3134941742497325    0.3533477382888638    
  0.36218039297657595    0.30140500062351355    0.2860445731536313    0.24208547388320542    0.18259187679870326    
  0.12751471153998106    0.08805825643125025    0.06468074688682092    0.053598247187795385    0.05116333094376554    
  0.05474712803289945    0.062310847423238364    0.0713287379656132    0.07870298312438727    0.08159816998022636    
  0.07870297146149306    0.07132869173328601    0.06231087226830287    0.05474711031896875    0.051163330923127436    
  0.05359823217897302    0.06468075143511574    0.08805826304837756    0.12751469273793645    0.18259186682505368    
  0.24208543747632344    0.2860446073910962    0.30140500062351355    0.21352937194997504    0.20155193618876913    
  0.1702882435642151    0.13130257270456874    0.0960267901602054    0.0703302378664282    0.05469000770219491    
  0.047166480987106144    0.04557379737151221    0.04821906793819239    0.05362745116644732    0.05990130622250654    
  0.06493089628669171    0.066895884111844    0.0649309237689645    0.059901303558013125    0.05362746322991985    
  0.04821906587440308    0.04557380822048948    0.04716648506891641    0.05469001651501453    0.07033023528561266    
  0.09602679930622272    0.13130255744735692    0.1702881942081567    0.20155195671843862    0.21352937194997504    
  0.15014497009931954    0.1423898580860925    0.12251209312457677    0.09786198148555432    0.07520112830999709    
  0.058264701400465184    0.047712759361278244    0.04258224698120007    0.04164318495908717    0.043783738173569904    
  0.04785802601161418    0.052451685163233085    0.05604489258589977    0.057400738931601504    0.05604486816261163    
  0.05245168815771329    0.04785804514169822    0.04378373726236407    0.04164318969758675    0.04258222597466043    
  0.04771275284948563    0.05826470884905188    0.07520112752556113    0.09786198674733325    0.12251206424435226    
  0.14238986175920895    0.15014497009931954    0.12427899522387373    0.11835505932077851    0.10305800116693531    
  0.08398743633132912    0.06636781296281925    0.05311060000109802    0.04476885343748187    0.04074176635126322    