#     DFTpy    
  CRYSTAL 
    
  PRIMVEC    
  5.3407586206896545    0.0    0.0    
  0.0    5.3407586206896545    0.0    
  0.0    0.0    2.9424137931034484    
  PRIMCOORD    
  4    1    
  Si    0.0    0.0    0.0    
  Si    2.6703793103448272    2.6703793103448272    1.4712068965517242    
  Si    0.0    2.6703793103448272    0.7356034482758621    
  Si    2.6703793103448272    0.0    2.206810344827586    
  BEGIN_BLOCK_DATAGRID_3D    
  3d_datagrid_density    
  BEGIN_DATAGRID_3D#0    
  23    23    13    
  0.0    0.0    0.0    
  5.3407586206896545    0.0    0.0    
  0.0    5.3407586206896545    0.0    
  0.0    0.0    2.9424137931034484    
  0.0596460379456598    0.11012608421806337    0.2786714586524761    0.3954302645232891    0.3362425118098569    
  0.2527077482832188    0.21965897261994397    0.2368014193672792    0.29100653648287333    0.35080973510852476    
  0.3793675601417564    0.38320491777546545    0.3793675927698003    0.35080973224700357    0.2910065178453077    
  0.23680138269134962    0.2196589524252009    0.25270778411831596    0.3362425054092446    0.395430330689266    
  0.27867144170129904    0.11012608140061951    0.0596460379456598    0.1101260793586431    0.16758780562008874    
  0.31962792709419824    0.38969763529567786    0.31645223782909404    0.23653897471189403    0.20578125935870267    
  0.22160254429255977    0.2727922093247868    0.33298034132822707    0.3678109510317854    0.37580477246093585    
  0.36781094981505025    0.3329803261383867    0.2727921969564963    0.22160255775068632    0.20578124518720436    
  0.23653898811621    0.31645229374135475    0.38969761005510306    0.31962787859601505    0.1675878440657227    
  0.1101260793586431    0.27867143240400305    0.31962786654076447    0.3804197395218515    0.35191367547004726    
  0.2633257879181206    0.19617183101583763    0.17170370193835044    0.1842295480790966    0.2261277985957898    
  0.2808666782868734    0.32201015586770587    0.33596726937198923    0.3220101569647459    0.2808666930570558    
  0.22612779677813633    0.18422956584810862    0.17170367154103863    0.19617184954254122    0.26332576879163044    
  0.35191366893337533    0.3804196654184335    0.31962792487170644    0.27867143240400305    0.3954302839078401    
  0.3896976549196602    0.35191368457804123    0.2753362278825196    0.19829888869048592    0.149633000470013    
  0.13229059980125404    0.14089305664083474    0.17032115972509915    0.2109897639631592    0.24591422091094808    
  0.25954554886627    0.24591422931017926    0.21098981348563148    0.1703211137272259    0.1408930688424387    
  0.13229060036866436    0.14963300841046806    0.19829886466380206    0.275336214851853    0.351913651132675    
  0.3896976336174047    0.3954302839078401    0.3362425049081626    0.31645226599931675    0.2633258041907876    
  0.1982988897973998    0.14454025135097906    0.11181010263600152    0.09977512047306289    0.10507978836080588    
  0.12394085828080231    0.15020110675466772    0.1736018222874596    0.18306287254526665    0.17360184219805316    
  0.15020110318497606    0.12394084433342104    0.10507979215525598    0.09977510611872006    0.11181011599419077    
  0.14454024796335596    0.19829885605008418    0.26332576649917394    0.3164523196110331    0.3362425049081626    
  0.25270774765928705    0.2365390113866743    0.19617187042689493    0.14963301597875028    0.11181011505656764    
  0.08855030611832321    0.07959464486889216    0.08268452785679259    0.09484098571514693    0.11178733599061641    
  0.1269733749474347    0.13311183244633018    0.1269734107855982    0.11178733523145758    0.094840980104256    
  0.08268453667734386    0.07959463901796322    0.08855033035034943    0.11181012899108782    0.14963300010930736    
  0.19617183548772837    0.23653904107769896    0.25270774765928705    0.21965896170140528    0.2057812949878851    
  0.1717037093388249    0.13229062277255932    0.09977511905225857    0.07959463421585787    0.07143416288594732    
  0.07317501312665073    0.0822452956935791    0.09517027697009417    0.10680184849506046    0.11147745306284419    
  0.10680184811353413    0.09517025840265908    0.08224528033899776    0.07317503030442221    0.071434155582309    
  0.07959465076044762    0.09977511256206884    0.13229059806486584    0.17170367407450773    0.2057812846458162    
  0.21965896170140528    0.23680135565285487    0.22160253384867906    0.18422953278320242    0.140893059920478    
  0.10507979254361571    0.0826845280743318    0.07317503522878967    0.07424204408803091    0.08310314586959579    
  0.09600021285219716    0.1076708971503434    0.11238633526066544    0.1076708754129783    0.09600020898908954    
  0.0831031376935784    0.07424204698995977    0.0731750223620019    0.08268453958177258    0.10507978786309584    
  0.1408930379108731    0.18422954703429215    0.22160257725752905    0.23680135565285487    0.29100649862198125    
  0.2727921901752881    0.22612775931994777    0.1703211407995112    0.12394087298734527    0.09484096853527711    
  0.08224527388848275    0.08310313064043023    0.09390736353537395    0.10995390954136579    0.12454050369228192    
  0.13044989369691495    0.12454051136329396    0.10995393175002853    0.0939073651236745    0.08310313763846232    
  0.08224526046952049    0.09484097272988547    0.12394084781444784    0.17032112412966013    0.22612778305880193    
  0.2727922417962022    0.29100649862198125    0.3508097390224414    0.3329803360367716    0.2808667189122643    
  0.21098980319416127    0.15020112390624643    0.11178729265353184    0.09517027613291199    0.09600019734367372    
  0.10995396143800278    0.1311658007875274    0.15049400330231394    0.15831034430019947    0.15049399075364658    
  0.13116580247402274    0.10995393957172281    0.09600021913164658    0.09517026217076137    0.11178730745320017    
  0.1502010962414159    0.21098980456332292    0.2808667018152576    0.33298035503249107    0.3508097390224414    
  0.37936755575960324    0.3678109141982847    0.3220101698645071    0.2459142304118867    0.17360185508496573    
  0.12697337515727145    0.1068018491369411    0.10767089241558286    0.12454049026119098    0.1504940038890579    
  0.17445974147544668    0.18431228971028757    0.1744597487512975    0.1504939892501602    0.12454050986914361    
  0.10767090454432904    0.10680180842511758    0.12697338180997944    0.17360186393994206    0.24591421440224145    
  0.32201008991946506    0.36781097129948387    0.37936755575960324    0.38320498565237593    0.3758047527947592    
  0.33596727588604425    0.2595455137502689    0.18306287660258524    0.13311181862362473    0.11147744079680356    
  0.11238634915057798    0.13044991633378916    0.15831033478395234    0.18431228722553478    0.19514796869662976    
  0.18431228972290875    0.15831035438698543    0.1304498932682749    0.11238633598900433    0.1114774393118011    
  0.13311184359899697    0.18306286813189307    0.25954554590387224    0.33596724975413716    0.3758047566158248    
  0.38320498565237593    0.3793675362474645    0.3678108802653972    0.322010174815401    0.24591424170676646    
  0.17360185175762413    0.12697336538354426    0.10680183895729821    0.10767089461413373    0.12454051736627239    
  0.15049401078239433    0.1744597219704501    0.18431226252070226    0.1744597429822068    0.15049401409297058    
  0.12454048666937889    0.10767091013752073    0.10680182911737074    0.12697337384039994    0.17360187449911826    
  0.24591422236125    0.32201016474572475    0.36781096866252144    0.3793675362474645    0.3508097284766125    
  0.3329803341452363    0.28086671367821325    0.21098979786678534    0.15020112473381161    0.11178729676025426    
  0.09517027121403566    0.09600020524133712    0.10995395150556224    0.13116577565765575    0.1504940109373218    
  0.15831036454151104    0.15049402274091772    0.13116577617818168    0.109953963710933    0.09600022657638516    
  0.09517025965836326    0.11178730922374397    0.15020109711907087    0.2109897769133065    0.2808666581551102    
  0.3329803218674761    0.3508097284766125    0.29100652862577864    0.2727922425702785    0.22612776484458744    
  0.17032113714661    0.12394085276867883    0.09484096294555266    0.0822452931497627    0.08310313187153995    
  0.09390737463208383    0.10995392015310332    0.12454049746880126    0.13044987976489217    0.12454049814645513    
  0.10995392764272743    0.09390736360334216    0.0831031562679727    0.08224526352926438    0.09484099632324827    
  0.12394085032967357    0.17032112204864036    0.22612777298728332    0.2727922223897685    0.29100652862577864    
  0.23680134496101213    0.22160254394496917    0.18422955153910375    0.14089305913268618    0.10507979714128636    
  0.08268451792202959    0.07317503076593886    0.07424204033105786    0.08310316740943492    0.09600021399333579    
  0.10767089425558302    0.11238633014146925    0.10767090498393549    0.09600020634355148    0.08310313681572287    
  0.07424204128056985    0.0731750190991603    0.08268453518086857    0.10507979493097201    0.14089303736904438    
  0.1842295083358709    0.22160256900394112    0.23680134496101213    0.21965893947907322    0.2057812808016343    
  0.17170367786264054    0.1322906220800455    0.0997751319816011    0.07959463470743619    0.07143415196579737    
  0.07317502808691834    0.08224528674693096    0.09517027654106928    0.10680185013974777    0.11147743751123564    
  0.10680184193234626    0.0951702715715365    0.08224528719274106    0.0731750242728589    0.07143415598447563    
  0.07959465650199678    0.09977511366012944    0.13229062302515532    0.1717036563490994    0.2057812929121214    
  0.21965893947907322    0.2527077605208385    0.23653900542612102    0.19617187118038346    0.14963302347412882    
  0.11181013588292552    0.08855029928484902    0.07959464935453026    0.08268453353894792    0.09484097041819865    
  0.11178732176437191    0.1269733951809028    0.13311182905008412    0.12697340668305876    0.11178733346664532    
  0.09484097086155302    0.08268453170796486    0.07959464637954464    0.08855031862440031    0.11181013024593953    
  0.14963299780981998    0.19617182397417632    0.23653901279691816    0.2527077605208385    0.3362424581628049    
  0.3164522866563932    0.2633257790960073    0.19829886118029133    0.14454024117005623    0.11181011650257727    
  0.09977512759076763    0.10507980997068189    0.12394085283358615    0.1502011198698809    0.17360186726640017    
  0.1830629110209982    0.17360184218947589    0.15020111399472516    0.12394085509199532    0.10507981473483002    
  0.09977510535345413    0.11181012859007033    0.14454024457964795    0.1982988784030399    0.2633257634043485    
  0.316452308350688    0.3362424581628049    0.39543025784040997    0.38969762604106256    0.35191368107451504    
  0.2753362017157873    0.19829888256952424    0.14963298463374658    0.132290625865135    0.14089302130003922    
  0.17032115331110356    0.2109897586032032    0.2459142052572618    0.25954553942741915    0.24591423425323264    
  0.21098982521691179    0.1703211194584957    0.1408930678722241    0.13229059972767654    0.1496330019037339    
  0.19829887253746048    0.27533620762701516    0.35191369500594527    0.3896976356443439    0.39543025784040997    
  0.27867143420630025    0.3196278968318123    0.3804197766843626    0.3519136850793874    0.26332580369349595    
  0.19617180861992223    0.17170369143499015    0.184229530115568    0.22612779464442212    0.28086668476648025    
  0.32201014301813463    0.3359672375109387    0.3220100994334847    0.28086668705981005    0.2261277930844223    
  0.18422955304800606    0.17170366347158272    0.19617183626528958    0.26332578754057007    0.351913657715628    
  0.3804196814167434    0.3196279292820991    0.27867143420630025    0.1101260850879986    0.16758780131684833    
  0.31962791483508224    0.38969763674155544    0.31645227249991753    0.23653899024663827    0.20578126479678913    
  0.2216025202916354    0.2727922204304319    0.3329803413420703    0.36781097745764507    0.3758047454309862    
  0.3678110156576517    0.3329802832817141    0.27279224503161636    0.22160253079404138    0.20578125455727966    
  0.23653899935131997    0.31645226936162457    0.38969763018377596    0.319627897028081    0.16758782823020896    
  0.1101260850879986    0.0596460379456598    0.11012608421806337    0.2786714586524761    0.3954302645232891    
  0.3362425118098569    0.2527077482832188    0.21965897261994397    0.2368014193672792    0.29100653648287333    
  0.35080973510852476    0.3793675601417564    0.38320491777546545    0.3793675927698003    0.35080973224700357    
  0.2910065178453077    0.23680138269134962    0.2196589524252009    0.25270778411831596    0.3362425054092446    
  0.395430330689266    0.27867144170129904    0.11012608140061951    0.0596460379456598    0.11076311646052601    
  0.16763655215484494    0.3160495234759151    0.37955600438228887    0.3003547580831296    0.21441544902271698    
  0.1746880042794211    0.17566231093062995    0.20698864791430355    0.25448017407017304    0.2958714842852575    
  0.31218729282579943    0.29587151988838567    0.25448015424402953    0.20698867304961036    0.17566232719793293    
  0.17468800020637185    0.21441549377770883    0.3003547553212532    0.3795560250874348    0.3160495263119127    
  0.1676365531579496    0.11076311646052601    0.16883400829006226    0.2251147876047311    0.3462611977398543    
  0.3702877526338443    0.28306507916872314    0.20168148930006102    0.1648150635618377    0.16568539351102327    
  0.19468462114256183    0.23896247123990583    0.27797199239183645    0.2934579310658922    0.27797199575069503    
  0.23896248728740166    0.19468459043752306    0.16568542762882077    0.16481501630049275    0.2016815012150556    
  0.28306514832175333    0.37028773978437907    0.34626118360611596    0.22511485941861406    0.16883400829006226    
  0.32414175197296946    0.35288590645516055    0.38150103598190654    0.33008116697909173    0.23769715442485947    
  0.16990475746235484    0.14027948186757938    0.1409273451106102    0.16400015142800767    0.19955586656599877    
  0.23164821398798388    0.24462544958480426    0.23164818257526051    0.1995558479055534    0.16400015933019463    
  0.1409273654863344    0.14027946231160243    0.16990477512900035    0.2376971215950934    0.33008115387538484    
  0.38150099146490557    0.3528859418131122    0.32414175197296946    0.4012976918484243    0.38938659552260163    
  0.34098466816492595    0.26007981004566283    0.18309113788773013    0.13337578844760667    0.11182475087163432    
  0.11213481078234579    0.12844346716382612    0.15349693126089778    0.17643407393074284    0.18584259343934104    
  0.17643408768529018    0.1534969447198273    0.12844345502319426    0.11213483032023168    0.11182475104402648    
  0.1333758224572793    0.18309109391417835    0.2600798081289875    0.34098463930837014    0.38938658146984034    
  0.4012976918484243    0.3375290677366033    0.31628875518051475    0.26067402993636407    0.1938790237996514    
  0.13872400205302673    0.10407714391646433    0.08872613011134205    0.0886171008335923    0.0995314840714694    
  0.1162529718848703    0.13153777254985982    0.13777540019932244    0.13153777469513503    0.11625297014406055    
  0.0995314653372323    0.08861710068300564    0.0887261242523952    0.10407716358092776    0.13872399181343423    
  0.19387901686155487    0.26067402176916865    0.3162888118765839    0.3375290677366033    0.2693066635544519    
  0.2514326043183204    0.20695805546860088    0.15563662711135298    0.11372437760806302    0.08735051329734882    
  0.07544956489288442    0.07493742049113473    0.08255445667714739    0.09450331522728364    0.10550799183703886    
  0.10995797928036036    0.10550801671666948    0.0945033134499323    0.08255445474869168    0.07493742571094832    
  0.07544956771647668    0.08735053062234546    0.11372438397357716    0.1556366241947075    0.20695803888901776    
  0.2514326381844573    0.2693066635544519    0.2563464228208808    0.23934010363306443    0.1974031233015568    
  0.14898094047489324    0.10916284915851292    0.08402082201436539    0.07251581147448355    0.0716343515820285    
  0.07826045538979881    0.08888674046924945    0.09873395555734152    0.10272019996133236    0.09873394852483318    
  0.08888675469650187    0.07826046006738605    0.07163436327000917    0.07251579968730384    0.08402083600787183    
  0.10916285349452323    0.14898092309704114    0.19740307231833548    0.23934012127544108    0.2563464228208808    
  0.29954890102782405    0.2797161014509483    0.22996626668163533    0.17173780677233602    0.12370914443863927    
  0.09328187246758891    0.07919689508305466    0.07790972835524798    0.08564443849360545    0.09800334223085379    
  0.10944449932143699    0.1141261825034966    0.10944446652518275    0.09800333327040636    0.08564444120391082    
  0.0779097441721379    0.07919687512314978    0.09328188364021969    0.1237091647119449    0.17173779874817882    
  0.229966216434117    0.27971615617112977    0.29954890102782405    0.36998009227409934    0.35057280060315965    
  0.29450654447313585    0.21985781191966744    0.1547651370182411    0.11311577950784794    0.09393638679918583    
  0.09209484148930414    0.10251657918040219    0.11937943009974021    0.1351007973101486    0.1416030624459317    
  0.13510081841618496    0.11937943611506312    0.10251657960100222    0.09209484505121092    0.09393637807916286    
  0.11311577907673866    0.15476513020335564    0.21985780608281633    0.2945065655579558    0.35057285908543223    
  0.36998009227409934    0.38600625460342186    0.38521300891795474    0.35508510994050857    0.27817504398249476    
  0.19480723837255076    0.13871524710411676    0.11297311806670124    0.11042616164164477    0.12448511788796486    
  0.1477360779378047    0.16949719498928115    0.17850000291995122    0.16949718742151126    0.14773607073089579    
  0.12448511767019363    0.11042620289283565    0.11297311999646836    0.13871527191399563    0.19480724232211055    
  0.2781750851013098    0.3550850917497641    0.3852130117582585    0.38600625460342186    0.31987465253157177    
  0.3474683346990069    0.3738518186791545    0.32149414070431703    0.22936251426516116    0.16120716986049313    
  0.1295636169563865    0.12639155644153718    0.14379144653092607    0.1728752751084311    0.20028128233629175    
  0.21170932721069224    0.20028132781661953    0.17287525440731744    0.14379150051562242    0.12639154905595074    
  0.12956358240489246    0.16120718344970056    0.22936250423816612    0.32149409144263885    0.3738517738360205    
  0.3474683551584155    0.31987465253157177    0.27819520724806013    0.31685455344445124    0.37115665479768273    
  0.3361880107892858    0.24305067648570722    0.17025977766075104    0.13618991261208407    0.1327625744866031    
  0.15152909108960994    0.18297252240547657    0.2127766261948703    0.2253083624553888    0.2127765944659818    
  0.18297250724521852    0.15152906048260037    0.1327625765722773    0.1361899143360795    0.1702598035051579    
  0.24305068459020512    0.3361880508506499    0.37115664257343317    0.31685454653690587    0.27819520724806013    
  0.31987459864833356    0.34746829127822026    0.3738518204806234    0.3214941368561343    0.229362481005839    
  0.1612071873330439    0.12956361231730473    0.1263915355421664    0.14379150383744196    0.17287525513284727    
  0.20028127717696187    0.21170931299767948    0.20028126254171155    0.1728752538159711    0.14379147801277165    
  0.12639156099219218    0.12956361010696515    0.16120715841580405    0.22936252665352255    0.32149414005706334    
  0.3738518311573671    0.3474683712957317    0.31987459864833356    0.38600625742168976    0.38521304360023456    
  0.3550850967881579    0.27817504788493985    0.1948072397198752    0.13871526661393865    0.11297310957009037    
  0.1104261745229415    0.1244851226963082    0.14773605169888662    0.16949719738354002    0.17850001829889806    
  0.1694971748516921    0.14773606634386113    0.12448513117794936    0.110426196013995    0.11297309554333487    
  0.13871527702777015    0.19480722163005562    0.27817502601875965    0.35508508378463527    0.38521298685668864    
  0.38600625742168976    0.3699801493004838    0.35057280959760667    0.2945065653466632    0.21985782775473758    
  0.1547651620609766    0.11311577222993245    0.0939363963767623    0.09209482493813256    0.10251659636369927    
  0.11937942912835586    0.1351008062496292    0.1416030510235502    0.13510081819994532    0.11937944405819916    
  0.10251658527924357    0.09209484975689933    0.093936382663977    0.11311579862045981    0.15476516149973155    
  0.21985780505354005    0.2945065807322445    0.35057281813602426    0.3699801493004838    0.2995489142896082    
  0.279716087837058    0.22996624415132316    0.17173780845386086    0.12370914896566675    0.09328187375751801    
  0.07919688614458892    0.07790973204963877    0.08564443598540179    0.09800333694651542    0.10944449187772459    
  0.11412618523370688    0.10944448796307309    0.09800333053990225    0.08564440826954847    0.0779097480480089    
  0.0791968717867999    0.0932818753965421    0.12370914882876473    0.17173779238206102    0.22996618344901146    
  0.2797161584181631    0.2995489142896082    0.25634643509664184    0.23934009823612942    0.19740311956571288    
  0.14898093117850178    0.10916285799165393    0.08402080643482748    0.07251580035183992    0.0716343555077287    
  0.07826045640769852    0.08888675244144643    0.09873395375288521    0.10272019189097989    0.09873394439308929    
  0.08888674304199605    0.07826045612057826    0.07163434733584492    0.07251581555570316    0.0840208359895916    
  0.10916286742771245    0.14898093375649452    0.19740310104682265    0.23934014002506765    0.25634643509664184    
  0.26930667050427415    0.2514326259011958    0.20695809042905602    0.15563660806364418    0.1137243856000587    
  0.0873505121014154    0.07544957189585283    0.07493743338523143    0.0825544500877005    0.09450330682365678    
  0.10550798982298337    0.10995798973633467    0.10550799560620508    0.0945033163177504    0.08255446258152434    
  0.07493744041622566    0.07544955535597901    0.08735054036248006    0.11372438227310512    0.1556366135535117    
  0.20695803453843833    0.25143267002736064    0.26930667050427415    0.3375290442972685    0.3162887918752627    
  0.2606740494103646    0.1938790041361489    0.13872400297445853    0.10407714897910607    0.08872613769013073    
  0.0886170842762822    0.09953147070573647    0.11625299297712595    0.13153777591717195    0.13777542892083636    
  0.13153776454095994    0.11625297800186508    0.09953147426918267    0.08861710018783264    0.08872612356487392    
  0.10407716586993503    0.13872400273532812    0.19387899305141795    0.26067402611995266    0.3162887972365047    
  0.3375290442972685    0.4012976480720497    0.38938654673828926    0.34098464224784963    0.2600798097683321    
  0.1830911142974192    0.13337580045375375    0.11182476631590939    0.11213480689401603    0.12844345492197412    
  0.15349691360112158    0.176434104528547    0.18584261418246675    0.17643410575063764    0.15349695349258533    
  0.12844342656557511    0.1121348229394864    0.11182475087086277    0.1333758226510756    0.1830910839007398    
  0.2600798277060987    0.34098467725478254    0.3893866351047145    0.4012976480720497    0.32414179825019956    
  0.3528859296023044    0.3815010687814502    0.33008116377277363    0.23769713942273896    0.16990475971321709    
  0.14027948503256063    0.14092735013262617    0.16400016598966272    0.19955583769849836    0.23164818061981043    
  0.24462543941464415    0.23164817944474386    0.19955585295072759    0.1640001433142818    0.1409273407453288    
  0.14027945478991397    0.16990476964654552    0.23769716084219192    0.330081136968434    0.3815010161077634    
  0.3528859740220204    0.32414179825019956    0.16883400156104328    0.22511479988930033    0.346261164077969    
  0.3702877282172324    0.2830651112182269    0.20168150054450487    0.1648150345227115    0.16568537381989443    
  0.19468462424457578    0.238962465407026    0.2779720179993017    0.2934578956408106    0.27797203979057195    
  0.23896242283501443    0.1946846539091696    0.16568542660696975    0.1648150050510519    0.20168149032586838    
  0.2830651280829167    0.3702877359346431    0.34626113376398004    0.22511486023639654    0.16883400156104328    
  0.11076311646052601    0.16763655215484494    0.3160495234759151    0.37955600438228887    0.3003547580831296    
  0.21441544902271698    0.1746880042794211    0.17566231093062995    0.20698864791430355    0.25448017407017304    
  0.2958714842852575    0.31218729282579943    0.29587151988838567    0.25448015424402953    0.20698867304961036    
  0.17566232719793293    0.17468800020637185    0.21441549377770883    0.3003547553212532    0.3795560250874348    
  0.3160495263119127    0.1676365531579496    0.11076311646052601    0.278195193084579    0.3168545741604497    
  0.371156701335112    0.3361880243165791    0.24305068139319472    0.17025978485683654    0.13618993059745196    
  0.13276260046547475    0.151529078330098    0.1829725120807471    0.2127765934160582    0.22530836213215671    
  0.21277661335997508    0.18297252733721903    0.15152905918703846    0.13276260247357588    0.13618990172137835    
  0.17025981176536042    0.24305064140973198    0.33618808691543617    0.37115665945697957    0.31685456258987055    
  0.278195193084579    0.3198746221365    0.34746831262060923    0.37385181143523916    0.3214940964822094    
  0.22936244974125683    0.16120718361906197    0.12956362911884267    0.1263915324060105    0.14379147265100026    
  0.17287528700623117    0.20028125419137457    0.2117093198677516    0.2002812822151983    0.17287528561923954    
  0.1437914703326949    0.12639157403941476    0.1295635824870074    0.16120716860546389    0.22936251683740427    
  0.3214941454445581    0.3738517788226108    0.347468394166222    0.3198746221365    0.38600624212254664    
  0.3852129586165575    0.3550850916000159    0.2781750364892393    0.19480725127704604    0.13871525148515998    
  0.1129731300231503    0.11042615990399413    0.12448512845416446    0.14773605800099698    0.16949719769513702    
  0.17850003050694083    0.169497166831502    0.14773605415361132    0.12448513520579853    0.11042620634147778    
  0.11297309892284797    0.13871528724854612    0.19480723487782461    0.2781750523645725    0.35508501925554853    
  0.3852130019126706    0.38600624212254664    0.3699801331356009    0.3505728382369648    0.29450658539343283    
  0.2198578251204763    0.15476516248103436    0.11311578256639926    0.09393639617116115    0.09209484003905073    
  0.10251659431304619    0.11937942957339602    0.13510080174342626    0.14160306089552832    0.1351008192164394    
  0.11937944059288802    0.10251658192466942    0.09209485659726069    0.09393637003348847    0.11311581055819171    
  0.1547651415672186    0.21985780931326013    0.2945065590972019    0.3505728111839961    0.3699801331356009    
  0.29954890295063563    0.27971608275085824    0.22996624380399389    0.1717378067016331    0.12370916718789869    
  0.09328186187998909    0.07919688798438494    0.07790973086979934    0.08564442326359419    0.09800332287553931    
  0.10944448745038132    0.1141261705665215    0.10944446963068614    0.09800333255562543    0.08564440929954177    
  0.07790974316616489    0.0791968757928581    0.09328187954995668    0.12370916281362926    0.17173778331278708    
  0.22996621531778536    0.27971613284456703    0.29954890295063563    0.2563464091440261    0.23934010406662756    
  0.19740311217948706    0.1489809384539644    0.10916284647083048    0.08402082086160427    0.07251581142559135    
  0.07163435095356799    0.078260463820802    0.08888675237222696    0.09873394469237895    0.10272020967935039    
  0.09873396515103962    0.08888674566664465    0.07826044987814357    0.07163435273188433    0.07251580880237371    
  0.08402083641293946    0.10916286107669983    0.14898092039163946    0.1974030898466317    0.23934013099011386    
  0.2563464091440261    0.2693066548959323    0.25143261718372684    0.20695807393816398    0.155636614222212    
  0.11372439646616983    0.08735050359455515    0.07544957063229155    0.07493742418950496    0.0825544563650441    
  0.09450330272945302    0.10550799495435317    0.1099579729555205    0.10550801001552038    0.0945033020701084    
  0.0825544549705394    0.07493743040961778    0.07544956141956387    0.08735053594538483    0.11372438821535491    
  0.15563659892112133    0.2069580408960419    0.2514326207034486    0.2693066548959323    0.3375290553530326    
  0.31628877641430486    0.2606740591133601    0.1938790163654423    0.1387239763803746    0.1040771661907848    
  0.08872613753189372    0.08861708954411071    0.09953147222776984    0.11625299174375556    0.13153778766182375    
  0.13777540092675747    0.13153777054679403    0.11625297326562521    0.09953147742414489    0.08861710722396586    
  0.08872611766319131    0.10407716004109799    0.1387239905061503    0.19387900709195244    0.26067402194629796    
  0.3162888263224111    0.3375290553530326    0.40129766541104817    0.38938653820691    0.34098463044575633    
  0.2600798021197957    0.18309113122196752    0.13337579248853618    0.11182477345114887    0.11213479930598605    
  0.12844346572831336    0.1534969104002732    0.1764340815178392    0.185842619077909    0.1764340897942988    
  0.15349692315836924    0.12844345640055777    0.11213480900106249    0.111824747163793    0.13337582498084774    