#     DFTpy    
  CRYSTAL 
    
  PRIMVEC    
  4.942689655172414    0.0    0.0    
  0.0    4.942689655172414    0.0    
  0.0    0.0    2.7231034482758623    
  PRIMCOORD    
  4    1    
  Si    0.0    0.0    0.0    
  Si    2.471344827586207    2.471344827586207    1.3615517241379311    
  Si    0.0    2.471344827586207    0.6807758620689656    
  Si    2.471344827586207    0.0    2.0423275862068966    
  BEGIN_BLOCK_DATAGRID_3D    
  3d_datagrid_density    
  BEGIN_DATAGRID_3D#0    
  23    23    13    
  0.0    0.0    0.0    
  4.942689655172414    0.0    0.0    
  0.0    4.942689655172414    0.0    
  0.0    0.0    2.7231034482758623    
  0.05454192106117068    0.09525869259010028    0.24307603592215693    0.4026675709795595    0.41357633046458947    
  0.3546837618555268    0.3225731867664577    0.3335278276902013    0.3693174428476945    0.3940318042742527    
  0.38795874096787447    0.3780647288027511    0.38795882722184394    0.39403181265158715    0.36931736904874773    
  0.3335278869123863    0.32257320492072356    0.3546837488771228    0.41357637594395674    0.4026675870209629    
  0.24307602375675258    0.09525873376125492    0.05454192106117068    0.09525869848867083    0.14254163829268107    
  0.28490627197139823    0.4058921697412255    0.3931310431954252    0.33266248572916085    0.3021193384184202    
  0.3127635578254743    0.3488361148710888    0.37935849186976045    0.3838699532226164    0.37945878221733714    
  0.3838699324976531    0.37935847632359576    0.34883612079807813    0.31276348172269197    0.30211931372007855    
  0.3326624797757897    0.3931311134872776    0.40589212279801745    0.28490623540000737    0.14254159141469133    
  0.09525869848867083    0.24307608842865236    0.2849063348431987    0.3691011462152042    0.3923318391496075    
  0.3375598898958202    0.27757574644060945    0.25096248967191653    0.2602116390330999    0.2946108405693318    
  0.3332168119367869    0.3561816164770645    0.3621327619379377    0.3561816321672177    0.3332167783782434    
  0.2946107847643994    0.26021168400121253    0.2509624499284407    0.2775757945710261    0.3375598946097259    
  0.3923318173124697    0.369101099593291    0.28490625474145354    0.24307608842865236    0.40266768204051007    
  0.405892253529498    0.39233179811230473    0.33712599075842203    0.26550104085316695    0.21353680384378618    
  0.19223652204893263    0.19917762463289398    0.22769692238078496    0.2650099512963331    0.29482817178547566    
  0.30589987388078116    0.29482821224458167    0.2650099442540085    0.22769695880443733    0.1991776014139174    
  0.19223649873870433    0.21353679109240223    0.26550102479595333    0.33712595168591375    0.3923317907994376    
  0.4058922569094945    0.40266768204051007    0.4135762711153142    0.3931310657661981    0.3375597817599184    
  0.26550099815773665    0.2016065932224569    0.1607647442954422    0.14453427534763155    0.14937196915010859    
  0.17067139676325452    0.20027337960506764    0.22601685745775835    0.2362778652090048    0.2260169249345016    
  0.20027335449259684    0.1706713979882285    0.14937200002061288    0.14453428928806486    0.16076478302368497    
  0.20160665098382016    0.2655010099233224    0.3375598049647269    0.3931311531163634    0.4135762711153142    
  0.3546836957685084    0.33266253034876164    0.2775757707798827    0.2135368010443409    0.16076474876566887    
  0.12785168455886953    0.11469035258382922    0.11808931114202803    0.134212434787263    0.15708351677330773    
  0.1774535270012674    0.18567967121587808    0.1774535769009092    0.1570835248542658    0.13421245056630784    
  0.11808928664068688    0.11469031176689674    0.12785168043220946    0.16076479455859055    0.21353676558167417    
  0.2775757016634789    0.3326625138202886    0.3546836957685084    0.32257323560522005    0.3021192917936805    
  0.2509624927878518    0.19223649809410828    0.1445342881485257    0.1146903434471212    0.1024309178848524    
  0.10495657847191103    0.11875749303009589    0.13866515967128137    0.15653093405926768    0.16373725234653444    
  0.15653095627647043    0.13866514531004717    0.1187575209241778    0.10495660306886498    0.10243091078997596    
  0.11469034482154947    0.1445342825848329    0.19223644329870687    0.25096242642798144    0.30211936747150137    
  0.32257323560522005    0.3335278800271581    0.3127635378793695    0.2602116189620685    0.1991775910313948    
  0.14937198547044928    0.11808932429942996    0.1049566129558544    0.10718009651975188    0.1212980609670791    
  0.1419258086756372    0.1604849222274448    0.16797140124304222    0.16048498023002278    0.1419257669845453    
  0.12129804878354408    0.10718007610891317    0.10495662545955732    0.11808932825926603    0.14937202121934778    
  0.19917757235721878    0.2602116575553462    0.3127636052457206    0.3335278800271581    0.36931745307399316    
  0.34883611810145915    0.294610844954074    0.2276969791973459    0.17067142185802264    0.13421244791607229    
  0.11875753601042163    0.12129807543485975    0.13793649171982683    0.16222952253494027    0.1841303089056428    
  0.1930298241003148    0.184130319716519    0.16222954257233552    0.13793651838829174    0.1212980706669552    
  0.11875750522223054    0.13421243379169295    0.17067141199278318    0.22769689358045156    0.2946108493925002    
  0.34883616776300314    0.36931745307399316    0.3940318649252183    0.37935849553639805    0.3332167640352605    
  0.2650100085967311    0.2002733566846994    0.15708354470860586    0.13866516610560525    0.1419257807354588    
  0.16222951688883866    0.191855844814485    0.21872963998197217    0.22974464203480918    0.21872966282948614    
  0.1918558210900743    0.16222955838950798    0.14192577323577624    0.138665203114627    0.15708355804570137    
  0.2002734320825231    0.26500993147705804    0.3332167547315719    0.37935852640515    0.3940318649252183    
  0.3879587518674363    0.3838699034519653    0.3561815588053004    0.2948282188253864    0.22601686285275913    
  0.1774535493803378    0.15653093659393122    0.16048493868640126    0.1841303246190119    0.21872967627486947    
  0.2501666953536846    0.2629963377010197    0.25016675773877967    0.21872965506129427    0.18413028459565373    
  0.16048492417637833    0.1565309439560563    0.1774535522339323    0.22601689262063387    0.29482815840382576    
  0.3561816114520117    0.3838699537080453    0.3879587518674363    0.3780647466299687    0.3794588079676866    
  0.3621326734731275    0.305899686712952    0.23627788327980012    0.18567963727198172    0.16373722968567056    
  0.16797140370341618    0.1930298167742706    0.2297445992476996    0.2629962993290807    0.2764749253299305    
  0.2629963768335343    0.2297446044505233    0.19302976931867033    0.16797141504120908    0.16373724117171556    
  0.18567961577463518    0.2362779077994369    0.30589963471254833    0.36213273947285485    0.3794588449309135    
  0.3780647466299687    0.38795872207139764    0.3838699600685346    0.3561815576051444    0.29482821348715754    
  0.22601681345479557    0.17745354175026704    0.1565309434655933    0.16048495722994746    0.1841302835269148    
  0.21872971569807775    0.2501667481639278    0.26299633813123047    0.25016674365674213    0.21872966347405423    
  0.18413027098956689    0.16048493640894573    0.1565309321295677    0.17745357348363971    0.22601686074894037    
  0.29482815756578584    0.35618157547284723    0.3838699153333036    0.38795872207139764    0.39403183169433076    
  0.37935847456423893    0.33321679642395324    0.2650099619655746    0.2002734211995816    0.15708353858854832    
  0.1386651660865344    0.14192575853615558    0.16222954141796936    0.19185585364928157    0.21872968948100052    
  0.2297446004261022    0.218729700341476    0.1918558048485878    0.16222954926530528    0.1419257495474089    
  0.1386652002179023    0.15708353117493395    0.20027346295976087    0.2650099269039655    0.33321677239868536    
  0.37935846695972975    0.39403183169433076    0.3693174356071258    0.34883619523174386    0.2946107617663302    
  0.22769698156343213    0.1706713843077812    0.13421247152505325    0.11875749966243052    0.12129811499567769    
  0.13793645760966708    0.1622295602770408    0.18413027500528456    0.193029869755378    0.18413025960451154    
  0.1622295703226527    0.13793652909709375    0.12129808788212332    0.1187574827557632    0.13421247820350485    
  0.170671377216211    0.2276969599758728    0.29461072656085063    0.3488362203640775    0.3693174356071258    
  0.33352785199883045    0.3127635451477279    0.2602116921608383    0.19917758506300043    0.14937199695892173    
  0.11808929684597554    0.10495660978550826    0.10718004199008309    0.12129808743703584    0.14192577190498296    
  0.16048495806839214    0.16797141832250714    0.16048496978177323    0.14192573268009118    0.12129807651445998    
  0.10718006454752423    0.10495662924113397    0.1180892965351484    0.14937204318746716    0.1991775445018112    
  0.2602116966679596    0.3127635664477033    0.33352785199883045    0.32257314814905946    0.30211935315406924    
  0.2509624395762678    0.19223652488437334    0.14453427974492736    0.11469034799297206    0.10243089954508329    
  0.10495661454233762    0.11875748842142464    0.13866521023386083    0.15653087446980743    0.16373729715542829    
  0.15653094633253714    0.13866519725697912    0.11875748284949235    0.10495661441838079    0.10243088371650368    
  0.11469035722487239    0.14453430241112236    0.19223648164838245    0.2509624454720156    0.30211939399903776    
  0.32257314814905946    0.35468377245808624    0.33266243656752437    0.27757577567331165    0.2135367616446148    
  0.1607648088822235    0.12785165962336195    0.11469039584415079    0.11808929252677025    0.13421245901623396    
  0.15708350547543515    0.17745358150781157    0.18567962289847278    0.1774536174842563    0.15708351996406592    
  0.1342124706154309    0.11808927182754186    0.11469035399654925    0.1278516665258487    0.1607648135953605    
  0.21353674585775692    0.27757573332666186    0.3326625175836526    0.35468377245808624    0.4135762888163094    
  0.39313109577423794    0.33755976713014707    0.2655010527105322    0.20160657728402162    0.16076476936167045    
  0.144534272171785    0.14937198503916602    0.170671385978817    0.20027341872222557    0.22601681500724197    
  0.23627790667058898    0.2260168397030516    0.20027336943648913    0.17067135709157952    0.1493720146300705    
  0.14453425986145677    0.16076479791442763    0.20160659224832947    0.2655010344709657    0.3375597698864536    
  0.3931311645707726    0.4135762888163094    0.40266772369501014    0.40589221997446445    0.3923318847291766    
  0.3371259616634334    0.26550105552445014    0.2135367814575545    0.1922365381325467    0.1991776027788061    
  0.2276969293672224    0.26500995286801815    0.2948282136154061    0.3058997423015802    0.2948282671124213    
  0.26500994900081426    0.2276969903311341    0.1991775917763885    0.1922365244813193    0.21353676655828732    
  0.26550111050878056    0.33712587245496234    0.3923318070782321    0.40589224471858826    0.40266772369501014    
  0.24307609039143502    0.2849063268601433    0.3691011098502529    0.39233190372448656    0.33755979407072734    
  0.27757582375597945    0.2509624255756271    0.26021168648396537    0.2946108153536881    0.3332168637727151    
  0.35618161783474134    0.36213275826477914    0.3561816485290946    0.3332167486177523    0.2946107891202429    
  0.2602116997025117    0.2509624438009491    0.27757580755732997    0.3375598694708733    0.39233182555108104    
  0.36910105722316777    0.28490629900973286    0.24307609039143502    0.09525869078262938    0.1425416241208334    
  0.2849062252910991    0.40589218099250496    0.39313113960761353    0.33266251018934484    0.3021193568208755    
  0.3127635407343931    0.348836151736969    0.3793584709657974    0.3838698697336262    0.37945873739568514    
  0.383869907256447    0.37935848467511396    0.3488361041684767    0.3127634965409738    0.3021193718026588    
  0.33266246538965466    0.39313115305265234    0.4058921102052408    0.2849063186503972    0.14254161901871357    
  0.09525869078262938    0.05454192106117068    0.09525869259010028    0.24307603592215693    0.4026675709795595    
  0.41357633046458947    0.3546837618555268    0.3225731867664577    0.3335278276902013    0.3693174428476945    
  0.3940318042742527    0.38795874096787447    0.3780647288027511    0.38795882722184394    0.39403181265158715    
  0.36931736904874773    0.3335278869123863    0.32257320492072356    0.3546837488771228    0.41357637594395674    
  0.4026675870209629    0.24307602375675258    0.09525873376125492    0.05454192106117068    0.09507319270256182    
  0.1410567162057377    0.2772384311614083    0.38728884715445255    0.3650442736088525    0.2974203788277995    
  0.2583453956908758    0.25757741418093416    0.2858680734217497    0.32636434749395293    0.3576993075012333    
  0.3683796880308947    0.35769936484553    0.3263643849454429    0.28586804706022034    0.2575774695100578    
  0.25834542260863913    0.2974203247652371    0.3650443042917403    0.38728883755271265    0.2772384618414859    
  0.1410567487386962    0.09507319270256182    0.1434535500984745    0.19132130964203958    0.31315698584025337    
  0.3878586964008733    0.34840052952150885    0.28063993014802263    0.24336939412794972    0.2425630141507111    
  0.2693551788671719    0.30836826138424916    0.3398265929547062    0.3511107184107941    0.3398265276698136    
  0.3083682496690194    0.26935517334684833    0.24256299111782417    0.24336937369107892    0.2806399577336569    
  0.34840061597568867    0.38785861680697276    0.3131569617406649    0.19132125083957738    0.1434535500984745    
  0.291872800397295    0.32472390307723276    0.37979078027206087    0.37174986735392496    0.3031386119171885    
  0.23843623998213082    0.2059182724509809    0.204947998352735    0.22781463827195259    0.2622326400588576    
  0.29186257170406554    0.3033075174293369    0.2918626205828592    0.26223263751818887    0.22781463527687065    
  0.20494801400923404    0.2059182821619641    0.23843624756306656    0.30313859254504016    0.37174982815242524    
  0.37979078553064943    0.32472386248959856    0.291872800397295    0.426719307554283    0.4219271292426123    
  0.39096463119692143    0.3222979943220042    0.24465964883700245    0.18912872757521254    0.16291292330344884    
  0.1617797708782777    0.1795161548840205    0.20697494987400242    0.23151132276458697    0.24134140034371665    
  0.23151133555820808    0.2069749264987122    0.17951619225204793    0.1617797595808428    0.16291290636005934    
  0.18912874632185891    0.2446596171160258    0.3222979638096513    0.39096467952922    0.4219272152682592    
  0.426719307554283    0.4299950569419576    0.4059263284808123    0.34228207575798436    0.26286363899948123    
  0.19392368731890114    0.14903632124833657    0.12839666863181576    0.12722989000498638    0.1404674676384704    
  0.16132022315734498    0.1802595364986937    0.1879449880057081    0.18025955792454806    0.16132018797112105    
  0.14046750065363092    0.1272298790244991    0.1283966869582624    0.14903635020101902    0.19392374365625215    
  0.26286365773191245    0.34228212228375465    0.405926409391122    0.4299950569419576    0.3844864400283593    
  0.3592885505003906    0.2964199722963149    0.22388331823806598    0.16418853404549572    0.12597788973052068    
  0.1083781422868187    0.10714629162296205    0.11777753379810697    0.13465779362299457    0.15008226201673253    
  0.15635842055294658    0.15008228798543458    0.1346577882349036    0.11777757406722081    0.10714628645490255    
  0.10837811973338468    0.12597787182700557    0.16418854406073166    0.22388327195629806    0.29641989270422353    
  0.35928862211513596    0.3844864400283593    0.37189787893157655    0.3473526268777379    0.2860314070092225    
  0.2155771054800762    0.1579721512116775    0.12109660223319461    0.10394960982487295    0.10249944943741551    
  0.11242750625630146    0.12838396919644524    0.1429856912959574    0.14890920684694853    0.1429857151558918    
  0.1283839872871418    0.11242754665267049    0.10249942267995005    0.10394961103364402    0.12109661293202287    
  0.15797215420295996    0.21557703807468512    0.28603130987832154    0.3473526969900282    0.37189787893157655    
  0.4007557497776776    0.37617897326106986    0.3128769722722724    0.23729881254670546    0.17400895939110425    
  0.13321270342722313    0.11411387289832182    0.11235585250339034    0.12341821431679843    0.14137650846431446    
  0.15780239783634076    0.16444759778579543    0.15780244469499355    0.1413764575031704    0.12341821455532236    
  0.11235584631707916    0.1141138954115904    0.13321272473140947    0.17400898972407902    0.23729884244436397    
  0.31287703623646923    0.37617904356756027    0.4007557497776776    0.42637636478512086    0.40976821519242423    
  0.35778489371993416    0.2813183825403119    0.20880858706056993    0.15973537947719452    0.13642125130923133    
  0.13440364915358408    0.14840079492864772    0.17102205827155384    0.19171046581823054    0.2000954290798851    
  0.19171049529683387    0.17102204147184044    0.14840082117434333    0.13440366472520843    0.13642121318361763    
  0.1597353813246611    0.2088086186172094    0.28131828001642295    0.35778488230798317    0.4097682785131819    
  0.42637636478512086    0.3790179490524076    0.386523155024397    0.38052878160573134    0.3274266722367075    
  0.25194504924583133    0.19390019131867325    0.165474411631326    0.16333436823785272    0.1811624305362695    
  0.2098564948925371    0.2361625895809738    0.24683449859293283    0.23616257763222623    0.2098564723776364    
  0.18116243851719221    0.1633343101652594    0.16547445323260182    0.19390019902482616    0.2519451105573524    
  0.3274266081300539    0.3805288002016502    0.3865232167152191    0.3790179490524076    0.28284431763766715    
  0.313924386535781    0.3649659477861098    0.35484670572841065    0.28710511513622355    0.22346870866992233    
  0.19100024613768843    0.18884979053774398    0.21003963006192844    0.2440864560727444    0.2751215137223348    
  0.2875589412711658    0.27512162084211084    0.24408646652283272    0.21003959143069764    0.18884977884073706    
  0.1910002993697081    0.22346868336678294    0.2871051475690074    0.3548466781599237    0.3649660243144181    
  0.3139244357520636    0.28284431763766715    0.2381911058824706    0.2765244718695693    0.35032656629893744    
  0.3622307937508704    0.30052864305250293    0.23526536587875435    0.2012424273121376    0.199109474551823    
  0.22172066925499187    0.2579955104397184    0.2908113143542739    0.30380100601192883    0.2908114006531315    
  0.25799552213788907    0.22172062146144864    0.19910950409168512    0.20124243516732304    0.23526537299566383    
  0.30052865852435895    0.36223076956920686    0.35032663688883614    0.2765245028426135    0.2381911058824706    
  0.2828443641219105    0.31392441833156887    0.3649659590293643    0.35484669322749807    0.28710511385917636    
  0.22346870390997375    0.19100028004948807    0.18884980150682137    0.2100396173915775    0.2440864804781465    
  0.2751215902049682    0.28755893989687986    0.27512156803261345    0.24408647620095344    0.21003959507263723    
  0.18884972857907717    0.19100029172772215    0.22346869861114688    0.28710511435329134    0.3548466393341916    
  0.36496598560689186    0.3139243672068225    0.2828443641219105    0.37901787168344747    0.3865232140567801    
  0.3805288017704557    0.3274267094586595    0.2519450844641034    0.19390017541680196    0.16547439194735497    
  0.16333435189711346    0.18116242592051388    0.2098564869957668    0.23616255381046128    0.2468345354058253    
  0.23616254550660745    0.20985646726519894    0.18116241964077118    0.16333435547607564    0.16547437368734713    
  0.19390020923276868    0.25194509754653616    0.3274266226108917    0.3805287137857876    0.38652324676429767    
  0.37901787168344747    0.4263764116449152    0.40976825413283297    0.3577848399831105    0.2813183446606085    
  0.20880866070519016    0.15973538235189055    0.13642126239682958    0.13440364257370763    0.14840078654366273    
  0.17102204287137412    0.1917104906381544    0.2000954712618237    0.1917104849712587    0.17102203155204554    
  0.14840087087665374    0.1344036207724235    0.13642126748012295    0.15973536166502192    0.20880861990184973    
  0.28131831890656905    0.35778487122601016    0.40976825241543213    0.4263764116449152    0.40075561674039756    
  0.3761789794885372    0.3128769648512485    0.23729885455028138    0.17400892206506027    0.1332127201564498    
  0.11411386455966997    0.11235588941778805    0.12341819902743156    0.1413765226288164    0.15780237236084138    
  0.16444762110462013    0.1578023869690805    0.1413764770736693    0.12341820877334463    0.11235589978800221    
  0.11411387045334091    0.1332127724766253    0.17400898191883063    0.23729885997989547    0.31287693885522494    
  0.37617908139927836    0.40075561674039756    0.3718978653893924    0.3473526235731356    0.28603144593819624    
  0.21557707365877352    0.15797218573851518    0.12109658339629195    0.10394963612700554    0.10249943126377989    
  0.11242752578611967    0.12838397141561492    0.14298568705439232    0.14890915362733806    0.14298573943812484    
  0.1283839704576973    0.11242754652543609    0.10249940722585388    0.10394963861964773    0.12109658712233373    
  0.15797218743472577    0.21557704754808873    0.2860314226593643    0.34735264280798794    0.3718978653893924    
  0.38448637745739617    0.3592885747404453    0.29641994583484843    0.22388329562281192    0.16418851057270448    
  0.1259779145753197    0.10837813153432559    0.1071463124070898    0.11777752535400586    0.13465783760172514    
  0.15008226660151544    0.15635842975432787    0.1500823140075064    0.1346578329537505    0.11777753410539929    
  0.10714630619952233    0.10837810506915935    0.12597791022050125    0.1641885364497901    0.22388327449517326    
  0.29641987738889086    0.35928865412725625    0.38448637745739617    0.42999512304688736    0.40592623954691337    
  0.3422821529006843    0.26286357170859287    0.19392371486741472    0.14903629312276317    0.12839670413678744    
  0.12722985834842498    0.14046750336716568    0.1613202318814998    0.18025955096013618    0.1879449458919404    
  0.18025955667061397    0.1613201568117482    0.14046753553057167    0.12722982635872485    0.1283967160946343    
  0.1490363137847091    0.1939237637222382    0.26286357033858754    0.3422821555865436    0.4059263015195995    
  0.42999512304688736    0.4267193016567418    0.42192718899063336    0.39096468581352334    0.32229801189449075    
  0.24465958776421273    0.18912873570170985    0.16291291691822013    0.16177978298089024    0.1795161459676253    
  0.2069749738257704    0.23151131814782822    0.2413413431420336    0.23151131800837227    0.2069749727229615    
  0.17951617429176578    0.1617798129148902    0.16291286815292208    0.18912875723580788    0.2446596050440067    
  0.32229792703042964    0.3909646359419121    0.42192724947869653    0.4267193016567418    0.29187283823942134    
  0.32472383449848047    0.3797908300901893    0.3717498628686529    0.3031385274603651    0.23843622636876496    
  0.2059182864279668    0.20494802413083846    0.22781465997479244    0.2622326650545732    0.2918626120508715    
  0.3033075428187576    0.2918626345707791    0.2622325856059068    0.22781467403448338    0.20494799475773445    
  0.20591833491970257    0.2384362208994768    0.30313864853406186    0.3717498068746882    0.3797907664359721    
  0.3247238700769836    0.29187283823942134    0.14345352432293096    0.19132131490085183    0.3131569618013112    
  0.387858666376849    0.34840060104798504    0.28063999233381004    0.24336939138397068    0.24256300146315718    
  0.26935516869605763    0.3083682107691746    0.339826515115253    0.35111065197452    0.3398265239002597    
  0.3083682562804619    0.26935513968385905    0.2425629855488433    0.24336942408005838    0.28063992062903226    
  0.3484006147883372    0.38785867159031734    0.31315704132661304    0.1913213024304943    0.14345352432293096    
  0.09507319270256182    0.1410567162057377    0.2772384311614083    0.38728884715445255    0.3650442736088525    
  0.2974203788277995    0.2583453956908758    0.25757741418093416    0.2858680734217497    0.32636434749395293    
  0.3576993075012333    0.3683796880308947    0.35769936484553    0.3263643849454429    0.28586804706022034    
  0.2575774695100578    0.25834542260863913    0.2974203247652371    0.3650443042917403    0.38728883755271265    
  0.2772384618414859    0.1410567487386962    0.09507319270256182    0.23819113119770213    0.27652443643934305    
  0.3503266819109956    0.36223079196073527    0.30052869912093766    0.2352653569981436    0.20124242480814494    
  0.1991094340475768    0.22172070832678098    0.2579954898623939    0.2908113134974003    0.30380103708179124    
  0.29081139718146526    0.25799553340269554    0.22172065768191326    0.19910950235677638    0.20124243594844096    
  0.2352653347947372    0.3005286624317882    0.36223076529569853    0.35032664618019993    0.27652451090523456    
  0.23819113119770213    0.2828443471089777    0.31392441713115765    0.3649659480536023    0.3548467092002695    
  0.28710506342042413    0.2234686711757402    0.1910002528598626    0.18884977686065238    0.2100395640013743    
  0.24408650789678332    0.27512159751362003    0.2875589451010468    0.27512157028726036    0.24408642871124261    
  0.2100395904270972    0.18884973634068805    0.19100025829118505    0.223468693414345    0.2871051050951716    
  0.35484667350720456    0.3649659423579294    0.3139243899983245    0.2828443471089777    0.37901791208327623    
  0.3865232618087577    0.38052881377927494    0.3274266785404977    0.2519451241002329    0.1939001603430512    
  0.16547439691466895    0.16333432854240046    0.18116246996425206    0.2098564514391624    0.2361625636377207    
  0.246834460613404    0.23616260252650434    0.2098564370584779    0.18116245419274532    0.1633343362238792    
  0.16547439368978026    0.19390020477963865    0.2519451036715639    0.32742662753809876    0.38052877381490435    
  0.3865231500441231    0.37901791208327623    0.4263763279596953    0.4097682465329558    0.3577848297048656    
  0.2813183818037804    0.20880860724988284    0.1597354100732709    0.13642124021881738    0.13440364622123938    
  0.14840077382878142    0.17102203539797053    0.1917104608628697    0.20009552504808684    0.1917104743992549    
  0.1710220375870005    0.1484008385966397    0.13440364486975384    0.1364212236464226    0.15973540674430384    
  0.20880861894090852    0.2813183362350822    0.3577848201145403    0.40976831651408613    0.4263763279596953    
  0.40075568636038766    0.3761789872377075    0.3128769746008202    0.23729882969706256    0.17400895860092247    
  0.13321272442681895    0.11411388883368406    0.11235586932967594    0.12341823091962839    0.14137650031031457    
  0.15780238098321459    0.16444760952642098    0.15780241641041606    0.14137647516038412    0.1234182202315174    
  0.11235586517728068    0.11411390601151743    0.1332127308645062    0.17400900403782027    0.2372988554314641    
  0.3128769863418376    0.376179046543142    0.40075568636038766    0.37189787282271153    0.3473526762661821    
  0.2860314077151748    0.21557709710445025    0.157972123513458    0.12109662772695769    0.10394962009894583    
  0.1024994670883068    0.11242751211967604    0.12838399141052298    0.14298566855926267    0.14890921011092104    
  0.14298573292983272    0.12838397582451286    0.11242754767873675    0.10249942079994513    0.10394960506552046    
  0.12109661790882018    0.15797216700258923    0.2155770579504495    0.2860313697329884    0.3473526925851423    
  0.37189787282271153    0.3844864520356778    0.3592885188344405    0.2964199383637953    0.22388327310870168    
  0.1641885450381528    0.12597787637578073    0.10837815693639191    0.1071463132506156    0.11777752821834435    
  0.13465779962136326    0.15008225543297019    0.1563583856890604    0.1500822764478633    0.13465779358853583    
  0.11777754418358197    0.10714629394699987    0.10837813257973665    0.12597789826625252    0.1641885633582272    
  0.22388321692642432    0.2964198541741465    0.3592886359397666    0.3844864520356778    0.429995152902632    
  0.4059262722486226    0.34228210735755005    0.2628635923230045    0.1939237001467987    0.1490363078679131    
  0.12839666899259722    0.1272298782939047    0.1404674998406592    0.1613202383660505    0.18025953815692983    
  0.18794494905149048    0.18025957602003895    0.1613201636609682    0.14046749522022905    0.12722983404348623    
  0.1283966900186198    0.14903632711279635    0.1939237593742446    0.26286361743052744    0.3422821834527973    
  0.40592639477772513    0.429995152902632    0.4267192697068199    0.4219271149401648    0.3909647075482572    
  0.3222980319891397    0.24465957873260985    0.18912873293772517    0.16291292726808163    0.1617797913270025    
  0.17951617236932355    0.206974945022363    0.2315113200255697    0.24134131791542932    0.23151134281967406    
  0.20697495139030192    0.1795161703895872    0.16177977832199963    0.1629128901098249    0.18912870522413538    
  0.24465962472212757    0.322297927095747    0.3909646759805908    0.4219271668347818    0.4267192697068199    