#     DFTpy    
  CRYSTAL 
    
  PRIMVEC    
  5.738827586206896    0.0    0.0    
  0.0    5.738827586206896    0.0    
  0.0    0.0    3.161724137931034    
  PRIMCOORD    
  4    1    
  Si    0.0    0.0    0.0    
  Si    2.869413793103448    2.869413793103448    1.580862068965517    
  Si    0.0    2.869413793103448    0.7904310344827585    
  Si    2.869413793103448    0.0    2.3712931034482754    
  BEGIN_BLOCK_DATAGRID_3D    
  3d_datagrid_density    
  BEGIN_DATAGRID_3D#0    
  25    25    15    
  0.0    0.0    0.0    
  5.738827586206896    0.0    0.0    
  0.0    5.738827586206896    0.0    
  0.0    0.0    3.161724137931034    
  0.06055937564130959    0.10915909385638728    0.2691357098750945    0.37749780941072136    0.3080191511626961    
  0.20918973298989313    0.15825558994326072    0.1524682400898033    0.18409069966080444    0.24532581602347853    
  0.3128581213698104    0.35525777671042336    0.36655488735734854    0.3552577781530134    0.31285812468152163    
  0.24532575632404036    0.1840907315151734    0.1524682613453879    0.1582555610016239    0.209189723752881    
  0.3080191742249448    0.3774977930338637    0.2691356774775137    0.10915908208758748    0.06055937564130959    
  0.10915906832256403    0.1642446653039786    0.3090701370575666    0.37305601512143033    0.290722810227542    
  0.19718675133726468    0.15017472006091662    0.14499586793933852    0.17438107977383135    0.23160863416905425    
  0.29678486501432705    0.34150606839334247    0.35510920198010887    0.3415060323257869    0.2967848973117309    
  0.23160864839441975    0.17438108992242018    0.14499587422663698    0.1501747159275448    0.19718674191204744    
  0.2907228340019442    0.373055946079727    0.30907012446641113    0.16424462446795715    0.10915906832256403    
  0.26913566077524    0.30907012675945067    0.3687758358069148    0.33903312862677615    0.24428765049325712    
  0.16682078546838908    0.12938529276261676    0.12534721029544627    0.14903743903868277    0.19545928420008687    
  0.25140814242124737    0.2953919672993793    0.31124689245368925    0.2953919137015973    0.2514080839028087    
  0.19545930259154395    0.14903749042784506    0.1253472291098378    0.12938531314729865    0.16682073775169995    
  0.24428766369195112    0.3390331668705308    0.36877583908592193    0.30907015024612483    0.26913566077524    
  0.37749777907501886    0.3730560867327345    0.33903319412335686    0.26473254641411414    0.1851136204019202    
  0.13019827326296604    0.10389020754687096    0.10101275853003909    0.11772723232433317    0.15022400596947616    
  0.1904250727295371    0.22426919546664453    0.23736104081111614    0.22426923528089163    0.19042508330334917    
  0.15022398062565276    0.11772722229863194    0.1010127661346992    0.10389021956892323    0.13019823842204642    
  0.18511359041507142    0.26473257943237144    0.33903313694762366    0.3730559903527652    0.37749777907501886    
  0.3080191221190038    0.290722881309557    0.24428760900147448    0.1851135787880863    0.13299899421526723    
  0.09832664475024117    0.081380199346134    0.07938720815522396    0.08990877478313083    0.11004977697920616    
  0.13486726713789463    0.15590277811037684    0.16415116172726024    0.1559027263451526    0.1348672484361376    
  0.11004972864483276    0.08990878520604233    0.07938721898248932    0.08138020406434061    0.09832664925758876    
  0.1329989818928611    0.18511354437103353    0.24428764744576034    0.2907228204564168    0.3080191221190038    
  0.20918975527934508    0.19718674795918967    0.16682075612515815    0.13019826638379003    0.09832664295156213    
  0.07667727623550157    0.06568309638293328    0.0640372832504481    0.07017697656406491    0.08216480205662428    
  0.09670032685341337    0.10876878810143603    0.11347229392231228    0.10876876286428737    0.09670032217426501    
  0.08216478964739268    0.07017697749955391    0.06403728327192325    0.06568310211205118    0.07667727528291686    
  0.09832664878801622    0.13019825523716222    0.16682075306425964    0.19718673170181328    0.20918975527934508    
  0.15825557602614146    0.15017473116045724    0.1293852964702029    0.10389021675465987    0.0813802113352742    
  0.06568312561355971    0.05738110998859489    0.05563136293896978    0.059283151301158764    0.06695427827827995    
  0.07615530550487437    0.08365377722183735    0.08659289208956099    0.0836537911970408    0.0761553495762509    
  0.06695428989887789    0.05928315595541441    0.055631349054747495    0.05738111116914934    0.06568311140494099    
  0.0813802254353971    0.10389018924845105    0.12938533953072476    0.15017473652969057    0.15825557602614146    
  0.1524682425437899    0.14499588018457074    0.1253472285387833    0.10101276527982785    0.0793872142135028    
  0.06403728908781908    0.05563134929850134    0.05336030226502464    0.0559373294898086    0.06200233694767823    
  0.06938597240307212    0.07543979074263053    0.07782229106847167    0.07543978699957062    0.06938596605805714    
  0.062002342721881404    0.05593733763726813    0.053360311512017936    0.055631341464603586    0.06403728706039093    
  0.07938721668845745    0.10101277256344988    0.12534724628747562    0.14499588559252566    0.1524682425437899    
  0.1840907664769671    0.1743811081837375    0.14903750721204337    0.11772718458100777    0.08990880111053341    
  0.07017698703141123    0.05928315140438093    0.05593734382965119    0.058345099348326414    0.0647757389193374    
  0.07289658153673133    0.07968133110478767    0.08233285095541064    0.0796813195613528    0.07289658019855391    
  0.06477571889667302    0.058345117561793204    0.055937332640916125    0.05928316210014682    0.07017696851862486    
  0.08990880146398308    0.11772718398034027    0.14903749699505206    0.17438104694852502    0.1840907664769671    
  0.24532576355135782    0.231608679424406    0.19545929705556114    0.1502239792508934    0.11004975096203304    
  0.08216478162730137    0.06695428467172705    0.06200234967088165    0.06477573339033392    0.07295762353741218    
  0.08361178891236652    0.09272729377447092    0.09632906189691583    0.09272731092717793    0.08361180374490107    
  0.07295763799251173    0.06477572079098758    0.06200235317663453    0.06695429783475033    0.0821647841238779    
  0.11004973827363446    0.1502239857655447    0.19545929314229354    0.23160861813933153    0.24532576355135782    
  0.3128580516998536    0.2967848350155372    0.2514081194036798    0.19042503101313843    0.13486724753062182    
  0.09670032977009724    0.07615531297320462    0.0693859674533266    0.07289657594718027    0.08361182325901706    
  0.09774875900623993    0.11012070844961058    0.11509981159522897    0.11012062725576266    0.09774876896806985    
  0.0836118183495679    0.07289656837800355    0.06938597486529596    0.07615532071621157    0.09670031666523347    
  0.1348672433791491    0.19042502803930958    0.25140810235973277    0.2967849319916647    0.3128580516998536    
  0.35525778694656157    0.34150605446497656    0.29539198336450806    0.22426921938911923    0.15590271091744926    
  0.10876879055860118    0.08365376731640757    0.07543979643499969    0.07968128953148466    0.0927272952137389    
  0.11012065756428012    0.12540004057109924    0.1315224421697103    0.12539996759024183    0.11012063865516611    
  0.09272728226572387    0.0796813103459993    0.0754397964349197    0.08365378609831133    0.10876878160094114    
  0.1559027761066191    0.22426916444991196    0.2953919721636799    0.34150608540617544    0.35525778694656157    
  0.3665548294266496    0.3551092460440725    0.311246958108309    0.23736102632554418    0.16415114888143464    
  0.11347229678004171    0.08659287691263627    0.07782226764556986    0.08233281925917252    0.09632908164030975    
  0.11509983785072665    0.13152241381305455    0.13803388429777055    0.13152245821394792    0.1150998863854524    
  0.0963290630178147    0.08233284040066464    0.07782229853531716    0.08659286847431104    0.1134722996072611    
  0.1641512132620405    0.23736101734275522    0.3112469134840211    0.35510928115728313    0.3665548294266496    
  0.35525777150969146    0.3415060365243731    0.29539192187098007    0.2242692236333127    0.15590270356331784    
  0.10876879052335803    0.08365377565016768    0.075439784592329    0.0796813278315046    0.0927272692469644    
  0.11012063543672805    0.1254000103881527    0.1315224341454888    0.12540006168310172    0.11012064597491372    
  0.09272727304330254    0.07968130620962269    0.07543980415527052    0.08365377010672582    0.10876877606809976    
  0.15590268544924138    0.22426922667775584    0.29539195055926726    0.34150610739002696    0.35525777150969146    
  0.3128580096179367    0.2967849153928995    0.25140815004104194    0.19042503363788105    0.13486724627739277    
  0.096700333930777    0.07615530700427384    0.0693859681647395    0.07289656322538182    0.08361181958187325    
  0.09774878848657088    0.11012069034807577    0.115099824502713    0.11012064806766922    0.0977487504966063    
  0.08361181587352409    0.07289655378100633    0.06938598668270723    0.0761553216657524    0.09670032481001088    
  0.13486727577281024    0.1904250518493339    0.25140813273711154    0.29678485712273184    0.3128580096179367    
  0.2453257393879654    0.2316086925974953    0.19545931230929905    0.15022394787663865    0.11004977150205468    
  0.08216479833583974    0.06695428284327791    0.06200235184590516    0.06477571611351424    0.07295763284955692    
  0.08361179108246596    0.0927272663622028    0.09632907308184126    0.09272730428974382    0.08361184479519986    
  0.07295761284088077    0.06477571219160794    0.06200234643783269    0.06695428660602945    0.08216477769875385    
  0.11004973803582382    0.1502239696823325    0.1954593155976907    0.2316086565742396    0.2453257393879654    
  0.18409072312987612    0.17438107998993632    0.14903749223122037    0.11772720996523606    0.08990879595332915    
  0.07017697995114752    0.05928316057064794    0.05593734415742556    0.058345117397102964    0.06477572411872648    
  0.07289656921649729    0.079681331236749    0.08233285123611123    0.07968129738168075    0.07289657511970876    
  0.0647757009757837    0.05834509656240675    0.0559373442643447    0.05928314345621677    0.07017698536575338    
  0.08990880262938246    0.1177271827215032    0.1490374580830985    0.17438108645666375    0.18409072312987612    
  0.15246825531787425    0.14499589515206665    0.12534723496372388    0.10101277167179452    0.07938720505644158    
  0.06403729061325424    0.055631344841119756    0.05336029731147022    0.05593733878691605    0.06200234760144726    
  0.06938598336589993    0.07543978840818878    0.07782230939926862    0.07543977544680414    0.06938596583310919    
  0.06200236692398904    0.05593734134784683    0.05336030332263685    0.05563135286794469    0.06403729307194134    
  0.07938721653599252    0.10101276349557747    0.12534719910332803    0.144995885261939    0.15246825531787425    
  0.15825557737682303    0.1501747418275378    0.129385313975502    0.10389019902927636    0.08138021681153627    
  0.06568311999449711    0.05738110219716178    0.055631348791044755    0.059283156061196066    0.06695429266627231    
  0.0761553337259914    0.08365379034703102    0.0865928872410858    0.08365380408370124    0.07615536157060111    
  0.06695427216504832    0.059283174778835504    0.05563136039778485    0.057381105317715585    0.06568311271910732    
  0.08138021942490013    0.10389020450797029    0.12938531327314892    0.15017472200165927    0.15825557737682303    
  0.2091897045770477    0.19718675659578785    0.16682077515978186    0.13019825257168421    0.0983266263836364    
  0.07667726703567197    0.06568310644323325    0.06403727299635503    0.07017697289110864    0.08216478594905051    
  0.09670031698910853    0.10876877839214819    0.11347229309140737    0.10876874811449169    0.09670032266896    
  0.0821647729952131    0.07017697610453708    0.06403729220932154    0.06568309119392075    0.07667727165127391    
  0.09832665001258699    0.1301982608235214    0.1668207803049496    0.1971867259422269    0.2091897045770477    
  0.30801915908681565    0.2907228772895984    0.2442876723156163    0.18511356366303636    0.13299900248654017    
  0.09832665275599127    0.08138020262791065    0.07938722711753776    0.08990879528948918    0.11004977950722727    
  0.1348672752358436    0.15590273480359554    0.1641511587498852    0.1559027282067349    0.13486724684798515    
  0.11004977538532969    0.08990880048452263    0.0793872290008811    0.08138021166774688    0.0983266400510393    
  0.13299900532758055    0.18511355172647775    0.24428766391817655    0.29072278032846305    0.30801915908681565    
  0.3774977921404555    0.3730560514086815    0.3390331805007172    0.2647325629870628    0.18511359239537775    
  0.1301982530218488    0.10389021995047007    0.10101277377849126    0.11772722020542276    0.150223972813145    
  0.1904250088742926    0.2242692439324084    0.23736103187290222    0.22426925937658546    0.19042506402054382    
  0.15022397975458326    0.11772721825552628    0.10101276023574468    0.10389022324795213    0.1301982659921843    
  0.1851135947391345    0.2647325343883007    0.33903317604819877    0.3730559778638796    0.3774977921404555    
  0.26913568344617844    0.30907009312212064    0.36877588235784253    0.33903311106727485    0.24428762782544383    
  0.16682075959126233    0.12938527254650717    0.12534719074643122    0.14903747134897927    0.19545932751199233    
  0.2514081658683373    0.2953919869929761    0.31124691008345134    0.29539192721257324    0.2514081431625591    
  0.1954592783622868    0.14903746320853706    0.12534722805465343    0.1293852952728545    0.1668207396750323    
  0.24428768135533294    0.3390331568761837    0.3687758215047395    0.3090701679131232    0.26913568344617844    
  0.10915907457769906    0.16424464627728472    0.30907011755260616    0.3730560003498818    0.2907228614421474    
  0.1971867244081995    0.15017474000149963    0.14499582127620889    0.17438107996146188    0.23160871123749396    
  0.2967849021837523    0.3415060703995272    0.35510921408706164    0.3415059911981283    0.2967848125291297    
  0.2316086749583507    0.17438108465284222    0.14499588492506985    0.15017470891595108    0.19718673683036358    
  0.2907227971929375    0.3730559365667839    0.30907017803998277    0.1642446396871768    0.10915907457769906    
  0.06055937564130959    0.10915909385638728    0.2691357098750945    0.37749780941072136    0.3080191511626961    
  0.20918973298989313    0.15825558994326072    0.1524682400898033    0.18409069966080444    0.24532581602347853    
  0.3128581213698104    0.35525777671042336    0.36655488735734854    0.3552577781530134    0.31285812468152163    
  0.24532575632404036    0.1840907315151734    0.1524682613453879    0.1582555610016239    0.209189723752881    
  0.3080191742249448    0.3774977930338637    0.2691356774775137    0.10915908208758748    0.06055937564130959    
  0.10349508351015105    0.1583147469912162    0.30534877624921253    0.3723173912019705    0.28795501220747166    
  0.18969557483936875    0.1364962128572664    0.12200897284807999    0.1359290862559003    0.17166798388052465    
  0.21846537236543595    0.25818606956218926    0.2733892714712643    0.2581860378793477    0.21846542696223073    
  0.17166798872805508    0.13592907063414697    0.12200896158717851    0.13649622586458812    0.18969555720338346    
  0.28795506943211857    0.3723174114827052    0.30534874110930355    0.15831476143813067    0.10349508351015105    
  0.15827563995973526    0.21347295905830432    0.336100720289117    0.36412046348977056    0.2718411061120005    
  0.1792982624808888    0.13004596345512612    0.11666247515312682    0.12967077941124114    0.16284474737381555    
  0.2063312994462627    0.24360463165855983    0.2580668810831919    0.2436046099028558    0.20633130018835683    
  0.16284472282987825    0.1296707559447712    0.1166624940629045    0.13004595385894002    0.1792982453393187    
  0.27184114536472265    0.364120475796605    0.3361006729698521    0.21347291279253033    0.15827563995973526    
  0.3058919647520179    0.3366418439304505    0.3718436322706523    0.3248494901363937    0.22876651604191664    
  0.15287972752061404    0.11347811985674719    0.1027362957000632    0.1133398839544318    0.14004777429389886    
  0.17498256541739673    0.20529759368223255    0.21724435649212495    0.20529750680891085    0.1749825253846514    
  0.14004780777092746    0.1133398957819794    0.10273632295501998    0.11347814226331591    0.15287969828261105    
  0.22876651650809476    0.32484953304786923    0.3718435602765437    0.3366417869439476    0.3058919647520179    
  0.37694003417414257    0.3683574589158279    0.3278853286276986    0.2522958932449152    0.17479742026079084    
  0.12099508792567817    0.09312002024517335    0.08539766161177477    0.09303991261187523    0.11192308706600113    
  0.1364019762754234    0.15755364595053187    0.1658972561909535    0.15755365108952513    0.13640197614577784    
  0.11192308427615773    0.0930399183554853    0.08539766851161519    0.09312004810663085    0.12099506207252285    
  0.1747974455545733    0.25229593016930457    0.3278852757330659    0.36835741185391274    0.37694003417414257    
  0.30008512685641336    0.2828687990730804    0.23711941591264638    0.1792707581720999    0.1281676923290681    
  0.09349206883374796    0.07511325072294422    0.0698932750899278    0.07485581458087838    0.0870461368878109    
  0.10260752224608338    0.11586553889422724    0.12104855785041527    0.11586551810805748    0.10260754773813523    
  0.08704614954218515    0.07485580292453446    0.06989327723743434    0.07511324228768171    0.09349208626676671    
  0.1281676893726959    0.17927078162314902    0.23711942103887612    0.28286880050981716    0.30008512685641336    
  0.21184930058386778    0.19957341311992816    0.16851934655259249    0.13100466057968366    0.09814802116937524    
  0.07534186176278611    0.06290176072715206    0.059148598107784084    0.06219098510285911    0.07001053166456855    
  0.07983434120527656    0.08803891294241707    0.09125827899929748    0.08803890271364523    0.07983431103496261    
  0.0700105209247631    0.06219099704754482    0.05914860679266363    0.06290178464543439    0.07534186182123896    
  0.09814803049068238    0.13100464456036337    0.16851928570923833    0.1995734206120884    0.21184930058386778    
  0.17321113565679777    0.16392484196446433    0.1401363925736115    0.11116879902444785    0.08554732866614799    
  0.0674541172716506    0.05735626323679591    0.054040284618852436    0.055996880215585194    0.061671982824053326    
  0.06877210066689785    0.07463540812711805    0.07695795193114922    0.07463540107928703    0.06877212507139811    
  0.06167197732131324    0.05599687521929653    0.05404027701924469    0.05735625955839194    0.06745411555543519    
  0.08554734325377783    0.11116877484634159    0.1401364253619246    0.16392483540513328    0.17321113565679777    
  0.18350689604980402    0.1735821328941163    0.1479147839229219    0.11653956513746414    0.08888943389928408    
  0.06928974890904552    0.05821287297970541    0.05431907136485095    0.05587487557099293    0.06120909566523146    
  0.06807150573522817    0.07380473615612043    0.0760687919831851    0.07380472900856176    0.06807151104938174    
  0.06120909583209622    0.05587486746952655    0.05431909309417785    0.05821287102454448    0.06928974624877243    
  0.08888944012733468    0.11653956627766034    0.14791480030636875    0.17358213118660665    0.18350689604980402    
  0.2393910501606226    0.2257115411008185    0.18997800412201324    0.14587370805167618    0.10707123757652648    
  0.07997875139258002    0.06480920438639418    0.05931474686469922    0.06096356132022731    0.06748492177174717    
  0.07621262669131439    0.08364074366715529    0.08653657623346628    0.083640710799515    0.07621263955730823    
  0.06748490349320103    0.06096357336300697    0.05931474616585574    0.06480920168156906    0.07997874654868782    
  0.10707125109196734    0.1458736937215421    0.18997804337189192    0.22571151050350147    0.2393910501606226    
  0.32315927729137456    0.30680785720526854    0.25982446137901427    0.19610959763730695    0.13797067944597974    
  0.09785816246450796    0.0758921919329671    0.06789145491992359    0.06998318838526525    0.07895581436010629    
  0.09120178341432156    0.10184702260668367    0.10603425544221129    0.10184704239690932    0.09120180625789939    
  0.07895581333925454    0.06998318191211816    0.06789144799335524    0.0758921860380571    0.09785814759461221    
  0.1379706382234038    0.19610961094869664    0.2598244401028382    0.3068078143714946    0.32315927729137456    
  0.3732196078176478    0.36663510824108    0.32947151594049384    0.25448146327884485    0.1751589337860884    
  0.11900551990636175    0.08866694839118516    0.07771493484104916    0.0804795296407142    0.09258072931784513    
  0.10927282501615534    0.12408619263786382    0.13002950341067676    0.12408609727706965    0.10927285569569653    
  0.09258069983726813    0.08047951930360699    0.07771494334305394    0.08866695026655304    0.11900550860338453    
  0.1751589450899515    0.25448146029419466    0.32947150087485005    0.3666351561788195    0.3732196078176478    
  0.352644823141543    0.3666321776474721    0.3652597974354551    0.2990005281577865    0.20613121908685014    
  0.13654038078051578    0.09906448083883104    0.08567739986227889    0.08899581658181253    0.10379295062381691    
  0.12443622372800744    0.1429171422142712    0.15034809392003237    0.14291712842811702    0.12443622002147041    
  0.10379294307276508    0.08899580883896271    0.08567739282786684    0.09906449359059107    0.13654037851613493    
  0.20613130061643117    0.29900041613055756    0.365259729216567    0.366632195537058    0.352644823141543    
  0.328701673959233    0.3525443900415835    0.3716386969950236    0.31462314966968585    0.21808825524147807    
  0.1433848818040449    0.10313679421792232    0.08880595133392154    0.09231018157746167    0.10816369763951154    
  0.13042451736128807    0.15033959199701613    0.15831996439315765    0.150339590679048    0.13042452372960456    
  0.10816367149903656    0.09231019921949143    0.08880596836346234    0.10313676436504361    0.14338488759261175    
  0.2180883316563107    0.3146231113272935    0.37163877760494646    0.35254439844383734    0.328701673959233    
  0.35264474548114544    0.36663214234472064    0.3652598030446018    0.2990005148603473    0.2061311889057906    
  0.13654041445622736    0.0990644722216664    0.0856773745526218    0.0889958280386044    0.10379293823588634    
  0.1244362233213712    0.14291718314078347    0.15034807821679938    0.142917170275506    0.12443622661931791    
  0.10379293203627796    0.0889958411762998    0.08567740415154859    0.09906448329297006    0.1365404058696273    
  0.2061312369028251    0.2990004607537603    0.3652598046793152    0.3666321784750408    0.35264474548114544    
  0.37321954934134277    0.3666351423767983    0.32947153183119077    0.25448148134869725    0.1751589413199568    
  0.11900552877441714    0.0886669460727784    0.07771494792635293    0.08047951315787012    0.09258073814574458    
  0.10927284867294593    0.12408615636049145    0.13002951201454233    0.12408612852773715    0.10927282892633947    
  0.09258073064760775    0.08047951026965104    0.07771495317854614    0.08866695733603792    0.11900550620264756    
  0.17515896101969744    0.2544814435496214    0.3294715312748367    0.36663509111111153    0.37321954934134277    
  0.3231593207789722    0.30680783455416716    0.2598244757345631    0.1961096121544126    0.13797066107878572    
  0.09785817810387505    0.07589218473538335    0.0678914594219126    0.06998319069238985    0.07895582602806392    
  0.09120178510491517    0.10184700999945175    0.10603427095936763    0.10184703001529163    0.09120183893085618    
  0.07895581901384868    0.06998317059464286    0.06789145019378258    0.0758921994358937    0.0978581546966842    
  0.13797063319853672    0.19610962398047557    0.2598244511282727    0.3068078275661504    0.3231593207789722    
  0.2393909696819905    0.2257115252607817    0.18997799488536987    0.14587368467890438    0.10707122881928051    
  0.07997875151467633    0.06480919840894708    0.05931475761999598    0.06096356023445264    0.06748490785564897    
  0.07621262284918533    0.08364074739734614    0.08653656382938443    0.08364069782920965    0.07621263859798774    
  0.0674848974733314    0.060963567798886495    0.05931474043294928    0.06480919790119943    0.07997875892435868    
  0.10707124772341652    0.1458736906501795    0.18997799985893335    0.22571153157048499    0.2393909696819905    
  0.1835069211952747    0.17358212529221667    0.14791479408377634    0.11653956494809663    0.0888894369712953    
  0.06928976190771388    0.058212863400223705    0.054319078064902736    0.0558748770988964    0.061209102455230924    
  0.06807153279484739    0.07380473178499877    0.07606878597993949    0.07380471758405999    0.06807150705255612    
  0.061209108542330824    0.05587486921616492    0.05431907663114665    0.05821287482976458    0.06928975418035696    
  0.08888943510309087    0.11653954156653402    0.14791477819899554    0.1735821421896126    0.1835069211952747    
  0.1732111642933006    0.1639248541388142    0.1401364271520441    0.11116878371008948    0.08554734197471853    
  0.06745411872234813    0.05735624669416501    0.054040280554267114    0.0559968730318554    0.06167196518039659    
  0.06877210247027267    0.07463540603001334    0.07695793580855928    0.07463540206435267    0.06877213253606086    
  0.06167196321851888    0.055996890940474116    0.054040281367423566    0.05735625623852406    0.0674541115625444    
  0.08554734354095771    0.11116877580505313    0.14013641179593891    0.1639248412720803    0.1732111642933006    
  0.2118492877495423    0.19957342644964965    0.16851932411442086    0.1310046268279029    0.09814801703248983    
  0.0753418621262958    0.06290177813441757    0.05914859612771318    0.062190995690513444    0.07001051594538307    
  0.07983432016897563    0.08803891988900962    0.09125828070247836    0.08803891075604418    0.07983431944433113    
  0.07001050796393765    0.062190984545457295    0.05914861746401907    0.06290176191028576    0.07534186489979952    
  0.09814802527049689    0.13100465577070725    0.1685193375067783    0.1995734443046683    0.2118492877495423    
  0.3000851692846802    0.28286878252798925    0.23711948235802902    0.17927077759857266    0.1281676959120998    
  0.09349209178789085    0.07511324974393024    0.06989327550627064    0.0748558159430916    0.08704614418424526    
  0.10260756830542357    0.11586551868676907    0.12104855789615766    0.11586550417423852    0.10260754272927233    
  0.08704614595176273    0.07485582081527459    0.06989328530176978    0.07511324245855175    0.09349209436447174    
  0.1281676959474601    0.17927077917473133    0.23711942784451173    0.2828687622404759    0.3000851692846802    
  0.37694000889134044    0.36835746472994696    0.3278852788237655    0.2522959122848502    0.17479743153415822    
  0.12099506717737714    0.09312002376814082    0.08539767496283056    0.0930399115540672    0.11192304978305191    
  0.13640192769937795    0.15755365089484305    0.16589724755315322    0.15755363260930502    0.13640201171631022    
  0.1119230593906089    0.09303991129326498    0.08539767122629957    0.09312003883540493    0.12099507423162474    
  0.17479741508979477    0.25229589533546926    0.3278852874026638    0.36835736889828236    0.37694000889134044    
  0.30589201497296525    0.3366417749537672    0.37184363565933526    0.324849454007846    0.22876649679588743    
  0.15287969565939258    0.11347812499952886    0.10273629921852294    0.11333990642233935    0.14004779862764155    
  0.17498253060811692    0.20529758699087425    0.2172443466119811    0.20529755060755894    0.17498252238786172    
  0.14004776218576206    0.11333990634824    0.10273630662498345    0.11347813261248436    0.1528796804042401    
  0.2287665032771583    0.3248495306049061    0.3718436002692202    0.33664179773348035    0.30589201497296525    
  0.15827565878461866    0.21347296225286103    0.3361007307304962    0.3641204716655035    0.27184114223988814    
  0.1792982476590908    0.13004595474331065    0.11666247409281383    0.12967074544274573    0.1628447849247987    
  0.20633133430422826    0.2436046148351597    0.25806688541098816    0.24360457007096578    0.2063312643746624    
  0.16284472019648583    0.1296707674536635    0.11666247410650807    0.13004600177510295    0.1792982439270592    
  0.2718411853544337    0.3641204286709757    0.3361007535139307    0.21347292143809168    0.15827565878461866    
  0.10349508351015105    0.1583147469912162    0.30534877624921253    0.3723173912019705    0.28795501220747166    
  0.18969557483936875    0.1364962128572664    0.12200897284807999    0.1359290862559003    0.17166798388052465    
  0.21846537236543595    0.25818606956218926    0.2733892714712643    0.2581860378793477    0.21846542696223073    
  0.17166798872805508    0.13592907063414697    0.12200896158717851    0.13649622586458812    0.18969555720338346    
  0.28795506943211857    0.3723174114827052    0.30534874110930355    0.15831476143813067    0.10349508351015105    
  0.24865602058579575    0.29313761327772647    0.3660643186767064    0.3439326524807807    0.2448880774126973    