#     DFTpy    
  CRYSTAL 
    
  PRIMVEC    
  5.042206896551723    0.0    0.0    
  0.0    5.042206896551723    0.0    
  0.0    0.0    2.777931034482758    
  PRIMCOORD    
  4    1    
  Si    0.0    0.0    0.0    
  Si    2.5211034482758614    2.5211034482758614    1.388965517241379    
  Si    0.0    2.5211034482758614    0.6944827586206895    
  Si    2.5211034482758614    0.0    2.0834482758620685    
  BEGIN_BLOCK_DATAGRID_3D    
  3d_datagrid_density    
  BEGIN_DATAGRID_3D#0    
  23    23    13    
  0.0    0.0    0.0    
  5.042206896551723    0.0    0.0    
  0.0    5.042206896551723    0.0    
  0.0    0.0    2.777931034482758    
  0.05594437222455551    0.0989593699808669    0.2520141726991064    0.4020085831521752    0.39379938243801327    
  0.3268454463481076    0.29396273133450407    0.30698323733963634    0.34887515205710834    0.3838557672656132    
  0.38713417272392736    0.3807700467462745    0.3871341585394047    0.383855775662178    0.34887513739676873    
  0.30698326622990607    0.29396269296896704    0.3268454594603948    0.3937993920323839    0.40200858956472685    
  0.252014168825049    0.09895936216367271    0.05594437222455551    0.09895936864488593    0.1486926826549368    
  0.29395013584931257    0.40306304520989233    0.3734179266238651    0.30639378788918253    0.27526106815742696    
  0.28760255581145283    0.3287553005450105    0.36815899707762656    0.38108016630611496    0.3799170780207368    
  0.3810801724097215    0.36815898723256496    0.32875531976501915    0.28760252346992965    0.27526111582975826    
  0.3063937680977076    0.3734179618493704    0.40306301400265176    0.2939501517443211    0.14869266937008005    
  0.09895936864488593    0.2520142038868399    0.2939501293873312    0.3731853814032478    0.38310294353967905    
  0.3180479457912345    0.2550928443841556    0.22857673376260995    0.2388405765978113    0.2759185126321214    
  0.31959893863107514    0.3479431530256458    0.3561712187152573    0.34794315082359306    0.31959894745128403    
  0.27591851980880905    0.23884060283699868    0.2285767114922649    0.2550928754028461    0.31804795364527905    
  0.3831029347253546    0.37318537560965037    0.2939501287541232    0.2520142038868399    0.4020086175527573    
  0.4030630472609248    0.3831029549381168    0.3212213249066956    0.24706304197625012    0.19542778079635809    
  0.17493107738593572    0.18239657444371135    0.21150366230366582    0.2500786288418103    0.2817191009609545    
  0.29375136961321685    0.28171912850185155    0.2500786062975529    0.21150369073523442    0.1823965472027707    
  0.17493110016475327    0.1954277443047106    0.24706306364923786    0.321221289217134    0.3831029584647964    
  0.4030630567056846    0.4020086175527573    0.393799371060629    0.3734179499390907    0.318047950784282    
  0.24706305593410602    0.1853394324516762    0.14647367655871565    0.13125217515976273    0.13625029700272562    
  0.15704344210905888    0.18589583997069406    0.21128715078836077    0.2215232534154088    0.21128715584018973    
  0.18589585058519167    0.15704344989207342    0.13625030675209696    0.13125215220284084    0.14647367353693105    
  0.18533943247169476    0.24706305967514333    0.3180479666241565    0.37341794337404843    0.393799371060629    
  0.3268454453838133    0.3063937516599524    0.25509284496156254    0.19542775793362802    0.14647366842070347    
  0.116062229666394    0.10399126835065511    0.10729109130849193    0.12236273939486311    0.1437128593607665    
  0.16270863256738755    0.17035216377654122    0.16270865623259265    0.14371288292696113    0.12236276120842332    
  0.1072910692511948    0.10399128282086495    0.11606219570930716    0.14647369607910432    0.19542773181220435    
  0.2550928754123764    0.3063937535924934    0.3268454453838133    0.29396267048444774    0.27526108995688187    
  0.22857670684121598    0.1749310938684153    0.1312521683006632    0.10399128450349625    0.09290199362821003    
  0.0951886829889739    0.10763243542949053    0.1256535415123588    0.14173230956535116    0.14815625855426084    
  0.14173232199422278    0.12565355957755547    0.10763243210934034    0.09518868750167277    0.09290197627972178    
  0.10399128456476436    0.13125216748678806    0.17493109325152265    0.22857671622640305    0.27526111676450304    
  0.29396267048444774    0.3069832842434811    0.28760251380992014    0.2388405818749553    0.18239654175267467    
  0.1362503001630933    0.10729109565570555    0.09518867603427673    0.0970669508754693    0.1096746994467569    
  0.12816711206700523    0.14475356199794262    0.1514418079700174    0.1447535811547088    0.12816712071976294    
  0.10967470826534638    0.09706691642772236    0.09518869024445759    0.10729107119343136    0.1362503247719374    
  0.18239652024659228    0.23884061685247648    0.28760250865405956    0.3069832842434811    0.3488751420233543    
  0.3287553309950228    0.2759185113328925    0.2115036786364889    0.1570434400744482    0.12236277245370968    
  0.10763245495856917    0.10967472418053496    0.12473026136137104    0.1467822452323882    0.16665485724318668    
  0.1747918120923479    0.16665486843939034    0.14678224192584358    0.12473026454921042    0.10967471672635073    
  0.10763243628863169    0.12236277911029034    0.15704344168133927    0.21150369795344995    0.27591851054196287    
  0.32875534393917466    0.3488751420233543    0.38385582300611754    0.3681589650551443    0.3195989645582413    
  0.250078574937887    0.18589583831584056    0.1437128817860708    0.12565356527584293    0.1281671354256704    
  0.1467822408539908    0.17420045867060002    0.19914189803114113    0.20943624081866083    0.19914190204566218    
  0.17420046323298993    0.14678224745033655    0.12816711927116914    0.12565356477105502    0.14371285852219642    
  0.1858958788393219    0.25007855896945463    0.31959899622313304    0.3681589629088318    0.38385582300611754    
  0.38713415751598107    0.38108020562552514    0.34794310717779775    0.2817191111308398    0.21128713613158073    
  0.16270865063924939    0.1417323325416784    0.144753575531069    0.16665486404215463    0.19914189029595775    
  0.22872155876434624    0.24086178080262233    0.228721559412566    0.1991419039869837    0.16665485423918824    
  0.1447535763945664    0.14173231220100826    0.16270865655275335    0.2112871123568673    0.2817191100866039    
  0.34794313221532813    0.38108020701731743    0.38713415751598107    0.38077009873585627    0.37991703452903    
  0.35617123846300663    0.2937513338215301    0.22152322793982268    0.17035216158988245    0.14815624931609844    
  0.15144181128196932    0.17479179986293708    0.20943624385263834    0.24086178139349354    0.2536546305506388    
  0.2408617626753283    0.20943624243984613    0.17479181541511019    0.15144180252927933    0.148156250746297    
  0.17035214168725982    0.22152326696206226    0.2937513284818147    0.3561712622050198    0.37991701470148886    
  0.38077009873585627    0.38713415357667724    0.3810802047673539    0.34794312283745943    0.28171910648772924    
  0.21128711873323494    0.16270863838376043    0.14173232086550017    0.14475357674897743    0.1666548663077963    
  0.19914189193758447    0.22872155896231758    0.24086178281411605    0.22872155838481809    0.1991418860080002    
  0.16665485286989296    0.1447535629106627    0.1417323124917807    0.16270866966159034    0.21128713402301447    
  0.28171909860960936    0.3479431273634133    0.38108019524691966    0.38713415357667724    0.3838558320068684    
  0.3681589776719926    0.3195989796263145    0.2500785906887034    0.18589583267677143    0.14371287775616964    
  0.12565354529441403    0.1281671295995397    0.14678223186195913    0.17420045459189898    0.19914190708800175    
  0.20943624975905453    0.19914189179176228    0.17420045228805964    0.1467822458006175    0.1281671154539918    
  0.1256535597495975    0.14371286566715782    0.1858958766001444    0.2500785648449144    0.31959897959494726    
  0.36815896477144733    0.3838558320068684    0.348875150067685    0.3287553464500667    0.2759185092542202    
  0.211503685579647    0.15704343604528234    0.12236275647360396    0.10763244165011596    0.10967472181363033    
  0.12473027079252576    0.1467822539584342    0.1666548639443469    0.17479180680998932    0.16665488261660374    
  0.14678224366403936    0.12473025675323594    0.10967471413976151    0.10763243786161193    0.12236277642344007    
  0.15704345210587126    0.21150367822576407    0.275918499276748    0.3287553133601283    0.348875150067685    
  0.30698329280894515    0.2876025478612577    0.2388405956597528    0.18239654407103087    0.13625028567190142    
  0.10729108874065597    0.09518867075444626    0.09706694887548009    0.10967468876767036    0.12816712550077886    
  0.14475356334941247    0.15144181328017733    0.14475357762308116    0.12816712515397294    0.10967471801680939    
  0.09706692488216885    0.09518867469649109    0.1072910725766452    0.13625032639139556    0.1823965110638888    
  0.23884060276319335    0.28760251665892284    0.30698329280894515    0.2939627049627408    0.27526108411553485    
  0.22857671976770028    0.1749310674070409    0.13125216875482634    0.1039912712623475    0.09290199962815378    
  0.09518866846423878    0.1076324477932393    0.12565352322459505    0.14173230943540865    0.14815624781852937    
  0.14173233545102987    0.1256535682561274    0.10763243592998425    0.09518867077210526    0.09290198154330705    
  0.10399127087637075    0.13125217191261584    0.17493107244179742    0.22857671983039127    0.27526108929648185    
  0.2939627049627408    0.32684545458557446    0.3063937579696167    0.25509283434443775    0.19542775099902376    
  0.14647366433348039    0.11606223984940049    0.10399126342734678    0.10729109351608296    0.12236274602212933    
  0.1437128758204132    0.16270860945666513    0.1703521842587184    0.16270864941159538    0.1437128828069206    
  0.12236275280439256    0.10729106829122761    0.10399126479516452    0.11606221040866942    0.14647368730703703    
  0.1954277331323259    0.25509285579501845    0.30639377757308695    0.32684545458557446    0.3937993625290015    
  0.3734179396770686    0.3180479385767588    0.24706303633857948    0.18533944630762542    0.14647366327543976    
  0.13125217955124155    0.13625030350252046    0.1570434502529348    0.18589582425426396    0.21128713747684258    
  0.22152322901096017    0.21128715697876949    0.1858958498935989    0.15704344675903326    0.13625028542192236    
  0.1312521638230674    0.146473674139117    0.18533944247388795    0.24706305252501132    0.3180479542913918    
  0.37341792712336075    0.3937993625290015    0.4020086237823389    0.4030630052664963    0.3831029119517838    
  0.3212212990726819    0.24706304204312451    0.19542778384762202    0.17493107040011188    0.18239658000168352    
  0.2115036588930987    0.2500786203223055    0.2817191034342375    0.29375137573250926    0.2817191114082193    
  0.25007861119564034    0.21150365762061143    0.18239653990364132    0.17493108649574765    0.19542775282216024    
  0.24706306297077768    0.3212212859206883    0.383102952974931    0.40306304771793683    0.4020086237823389    
  0.25201420015143033    0.29395012861821523    0.373185350408951    0.3831029051084956    0.3180479548572743    
  0.2550928517216285    0.22857674438964667    0.23884057782480184    0.27591853183723114    0.3195989260760013    
  0.34794315513285917    0.3561712189834984    0.3479431481263596    0.31959894214002327    0.2759185081363223    
  0.2388405942843304    0.22857670991265838    0.2550928471213647    0.3180479751474513    0.3831029167236563    
  0.37318535683812293    0.2939501273675294    0.25201420015143033    0.09895936676474472    0.1486926770993873    
  0.2939501114461825    0.4030630365646992    0.3734179363396304    0.3063938107655989    0.2752610909886307    
  0.28760256086839986    0.3287552980831067    0.3681590207467211    0.3810801828681974    0.37991707141047165    
  0.38108017641287223    0.3681589847325607    0.3287553205668724    0.2876025247924295    0.2752610854333615    
  0.30639377578572213    0.3734179400864698    0.4030630171008245    0.2939501519773203    0.14869268584477352    
  0.09895936676474472    0.05594437222455551    0.0989593699808669    0.2520141726991064    0.4020085831521752    
  0.39379938243801327    0.3268454463481076    0.29396273133450407    0.30698323733963634    0.34887515205710834    
  0.3838557672656132    0.38713417272392736    0.3807700467462745    0.3871341585394047    0.383855775662178    
  0.34887513739676873    0.30698326622990607    0.29396269296896704    0.3268454594603948    0.3937993920323839    
  0.40200858956472685    0.252014168825049    0.09895936216367271    0.05594437222455551    0.09894411588441707    
  0.14748702368215733    0.2870209993984772    0.38637333587147304    0.3483691366328369    0.2744971474637999    
  0.23470379413938441    0.234378946624183    0.2639551736783271    0.3071379352884265    0.34190333249957117    
  0.3543465374116987    0.3419033207318238    0.307137917530809    0.26395518798576234    0.23437892980232175    
  0.2347038086394208    0.2744971100025529    0.3483691897334912    0.38637333758887893    0.2870210339056148    
  0.14748701210609447    0.09894411588441707    0.14971020969135282    0.19968250409308466    0.3220053422296777    
  0.3845422097290407    0.3313686488609649    0.25870119302169353    0.22103677621543447    0.22063758485440788    
  0.24849912590936157    0.2897285293133811    0.3238154031404865    0.33640340920600165    0.32381539642704743    
  0.28972854330134257    0.2484991191171102    0.22063758700378144    0.22103675764710162    0.25870121017965747    
  0.33136864664232507    0.3845422036779794    0.3220053760456948    0.19968248961875765    0.14971020969135282    
  0.30044778625830754    0.3325725487114434    0.3815977305682976    0.361981799408728    0.2856190541058261    
  0.21908700101641806    0.1869649823739008    0.18640230017530396    0.20972611719788484    0.2450228537614592    
  0.2756270646443248    0.28753879451569925    0.2756270699708808    0.24502283535918107    0.20972613470358745    
  0.18640230379148293    0.18696502341842386    0.2190869793773616    0.28561907266698566    0.3619817759169522    
  0.38159774424708126    0.33257252324199166    0.30044778625830754    0.4216616732865542    0.4149842277883955    
  0.37906315902225934    0.3061209217183621    0.22758547134042126    0.17305742226553808    0.14788483103539182    
  0.14714520965332162    0.16470894662059815    0.19172867383955916    0.21599610309366932    0.2258158835592065    
  0.215996101734251    0.19172868190767536    0.16470894526984778    0.1471452097316572    0.14788480739486884    
  0.17305743072206484    0.2275854876717912    0.306120904952102    0.3790631569633144    0.4149842443904595    
  0.4216616732865542    0.4061910088725957    0.38269961144069936    0.32064746072123107    0.24385011943461082    
  0.17813395520890882    0.13580322151177154    0.1164900706953494    0.11561331640727435    0.12826051599957963    
  0.14801029120169718    0.16610336374530965    0.17353843036301106    0.16610340058308162    0.14801028014869716    
  0.1282605460801272    0.11561329174287245    0.1164900926520483    0.1358031932319852    0.1781339757406748    
  0.24385008357454496    0.320647496047396    0.38269959038332635    0.4061910088725957    0.35322934543019874    
  0.3299408009658906    0.2717050180780607    0.204490272881392    0.14946122848586996    0.1143787810912126    
  0.09829305339054502    0.09726045314605293    0.10704198784085563    0.12255743691187443    0.1368104241937914    
  0.1426279934328873    0.1368104305474384    0.12255746674493494    0.10704197751357537    0.0972604589853398    
  0.0982930312449746    0.11437877804392382    0.14946121769443554    0.20449027451484747    0.2717050289489217    
  0.3299407926295325    0.35322934543019874    0.3402411285916654    0.31766065955905387    0.26126607535370167    
  0.19648696196431809    0.1436371140810866    0.10990631003755584    0.09430505761145312    0.09300804611845787    
  0.10195301014748617    0.11640122307290139    0.1296839980480151    0.1350814601435709    0.12968401485479708    
  0.11640122631840219    0.10195302315792856    0.09300802298760869    0.09430506931268653    0.1099062833754167    
  0.14363714477420145    0.19648691937514562    0.2612661071201723    0.31766067116505675    0.3402411285916654    
  0.3738359068892746    0.3503539884195025    0.2901983043097609    0.2188372513245379    0.159416083277923    
  0.12125912839245045    0.1035030839636946    0.10185330617362225    0.11194249234323285    0.12833204508560414    
  0.14340095088237972    0.14955222014511685    0.1434009636470512    0.12833205844174272    0.11194249738744287    
  0.10185330621646202    0.1035030657135203    0.12125912678762198    0.1594160983097618    0.21883725650001898    
  0.29019833020659985    0.3503539825317164    0.3738359068892746    0.41288677017868    0.3952903532651014    
  0.34145411674107967    0.2646635165304481    0.1934728148666334    0.145976129932152    0.12366486429988358    
  0.1216724336367642    0.13476562137678244    0.15590757988489867    0.175247206645744    0.1831474846030398    
  0.17524722681200372    0.15590757583979933    0.1347656382484156    0.1216724014191404    0.12366487571086549    
  0.14597611336473312    0.19347283894771575    0.264663501409463    0.34145413735362107    0.39529037626031743    
  0.41288677017868    0.3820045973854267    0.387470102440255    0.3749269878586962    0.3147068267670017    
  0.2361119003991449    0.17794021086030207    0.15001232436998707    0.14765994168716057    0.16459822588080336    
  0.192079416730408    0.2172742674922451    0.22754475379713815    0.2172742634414725    0.19207942916384774    
  0.16459821612435274    0.14765994115564893    0.1500123041920644    0.17794022470495416    0.23611189990478235    
  0.31470684909984614    0.37492699735977675    0.38747011434576495    0.3820045973854267    0.2924660382715605    
  0.32296517472846364    0.36817296533612814    0.3467940259455078    0.27149474723764166    0.2057168256567964    
  0.17308823056010006    0.17051504827003097    0.19083326405122616    0.22396979437222517    0.2542967900593926    
  0.26652685035189166    0.2542967814490923    0.22396978812382576    0.19083327389207155    0.17051501405101963    
  0.17308823626981001    0.20571679912636318    0.27149478784573744    0.34679397875007306    0.3681730281514109    
  0.3229651646700041    0.2924660382715605    0.2481476014097486    0.2868336868011023    0.3563331365255578    
  0.3562414840334978    0.28519538325582106    0.21680263110092568    0.18230875765169355    0.1797124158619325    
  0.20148567030704603    0.23696860408933615    0.2692831609239087    0.2822098664135618    0.26928316428230703    
  0.23696861749953343    0.2014856530288693    0.1797124444817648    0.1823087401269576    0.21680263923881524    
  0.28519540088003686    0.3562414985032435    0.3563331324075302    0.2868336870388512    0.2481476014097486    
  0.2924660202330907    0.3229651624021463    0.36817298115411284    0.34679400327574433    0.2714947386060293    
  0.2057168168520342    0.17308821434456434    0.17051504246148222    0.1908332500255577    0.22396981597399745    
  0.25429678151544644    0.2665268748498969    0.25429677657466365    0.22396979251398594    0.19083326638599196    
  0.1705149980633701    0.17308822986303116    0.20571680913223617    0.27149478701270624    0.34679398571154485    
  0.36817301939907093    0.322965155197831    0.2924660202330907    0.38200462619664216    0.3874700901226152    
  0.3749270227935874    0.31470683070893085    0.2361118841757255    0.17794019908417835    0.1500123085093552    
  0.14765991118192254    0.16459824202300424    0.1920794137949064    0.21727427639100252    0.22754475838519075    
  0.21727427134483504    0.1920794120583481    0.16459822865515458    0.14765993106873224    0.15001229699715754    
  0.17794022903683368    0.23611189679926883    0.3147068566499699    0.3749269983817373    0.38747009943098376    
  0.38200462619664216    0.41288675574044315    0.3952904090062855    0.3414541000322025    0.2646635274213219    
  0.19347280093312194    0.14597613937884477    0.12366484351259963    0.1216724323750452    0.13476562131016778    
  0.15590759831611192    0.1752471926974418    0.18314750754707887    0.175247215732285    0.1559075828114517    
  0.13476562962136476    0.12167240815810768    0.12366487228507665    0.1459761090251206    0.19347285527662011    
  0.2646634809565741    0.3414541232131373    0.3952903606926776    0.41288675574044315    0.37383595026610067    
  0.35035398068542195    0.29019833645164805    0.21883723547170253    0.15941609405723148    0.12125909785179312    
  0.10350308710435856    0.10185329987951837    0.11194250621137297    0.12833204478713678    0.14340096615665682    
  0.14955220983720582    0.1434009813408201    0.12833205533936606    0.11194250921860575    0.10185329078728987    
  0.10350307230819475    0.12125911873156976    0.1594160920038747    0.21883723774831396    0.2901983073112901    
  0.3503539741405618    0.37383595026610067    0.34024113004021833    0.3176606900072922    0.26126606185959833    
  0.1964869545390129    0.14363710229076523    0.1099063156058723    0.09430504377078747    0.09300804515016751    
  0.10195299466034333    0.11640122580624454    0.1296839814989192    0.1350814764904745    0.12968400555705362    
  0.11640124724941613    0.1019530174847395    0.0930080262956001    0.09430505818098829    0.10990628452437388    
  0.14363713127888628    0.1964869286338536    0.2612660932899001    0.3176606697311883    0.34024113004021833    
  0.3532293627806536    0.32994077398075883    0.2717050340168063    0.20449024921725    0.14946123655710114    
  0.1143787661644008    0.09829305388129347    0.09726045428552536    0.10704199123336415    0.12255742771068773    
  0.1368104107795111    0.14262799758649056    0.13681044638191545    0.12255746166884363    0.10704197927693508    
  0.09726043647801952    0.09829303479840895    0.114378771874576    0.14946122728103378    0.20449026582752056    
  0.2717050390754809    0.3299407914131548    0.3532293627806536    0.40619098988808544    0.3826996308209842    
  0.32064743567244003    0.24385010551536926    0.17813394269441224    0.1358032326975058    0.11649006500877178    
  0.11561331841169849    0.12826050645403878    0.14801029268526875    0.16610333464565158    0.17353844525912163    
  0.1661033514287931    0.14801030922412925    0.12826052056279155    0.115613294696537    0.1164900788953544    
  0.13580320571193824    0.17813396820426383    0.24385009053549647    0.3206474839004854    0.38269961379421974    
  0.40619098988808544    0.421661687074721    0.41498418188560304    0.37906313196110547    0.3061208997439763    
  0.22758548631966874    0.17305741635896246    0.14788483427089597    0.14714519452307737    0.16470895037413125    
  0.1917286600732137    0.21599610063903546    0.22581586999433528    0.2159961110357903    0.19172868018972927    
  0.16470894921173693    0.1471451860976469    0.14788481532155484    0.17305742779411765    0.22758548576380477    
  0.3061209083302806    0.3790631623609173    0.4149842142322547    0.421661687074721    0.3004477611560147    
  0.33257255452184953    0.3815976932040058    0.36198177204080373    0.2856190376199085    0.2190870140735993    
  0.186964986006577    0.18640232029442222    0.20972610045781126    0.2450228580700186    0.27562705175367486    
  0.2875388005479991    0.27562706547104876    0.24502283387708457    0.20972611818172548    0.1864023038887604    
  0.18696499812086456    0.219086980837596    0.2856190705751198    0.36198179005443815    0.3815977089071666    
  0.33257256181278166    0.3004477611560147    0.14971020789712022    0.19968247198416306    0.3220053353444907    
  0.38454219894163433    0.331368646490536    0.2587011843066155    0.22103679263017462    0.220637578478154    
  0.24849913970504175    0.2897285268718815    0.3238154177178804    0.33640338656405094    0.32381540486727595    
  0.28972853264038323    0.24849913257077963    0.22063757160024897    0.22103676528468283    0.2587012027793598    
  0.33136863840385433    0.38454220863074484    0.3220053702782629    0.19968248727424873    0.14971020789712022    
  0.09894411588441707    0.14748702368215733    0.2870209993984772    0.38637333587147304    0.3483691366328369    
  0.2744971474637999    0.23470379413938441    0.234378946624183    0.2639551736783271    0.3071379352884265    
  0.34190333249957117    0.3543465374116987    0.3419033207318238    0.307137917530809    0.26395518798576234    
  0.23437892980232175    0.2347038086394208    0.2744971100025529    0.3483691897334912    0.38637333758887893    
  0.2870210339056148    0.14748701210609447    0.09894411588441707    0.24814760202579242    0.28683367851324015    
  0.35633312337009965    0.35624146865690354    0.2851953973694999    0.2168026265946345    0.18230877140788398    
  0.1797124062216966    0.20148566186499514    0.23696859903950784    0.269283177769659    0.28220985524024444    
  0.2692831752312957    0.23696860349542004    0.20148566746669114    0.17971242150079747    0.18230874517364615    
  0.21680263964661256    0.28519542319347485    0.3562414855559584    0.3563331554477003    0.2868336619341513    
  0.24814760202579242    0.2924660283620297    0.3229651790882555    0.3681729813214803    0.3467940131758342    
  0.2714947476211598    0.20571682650934542    0.17308821027220542    0.17051504033074197    0.19083324113140757    
  0.22396981841599742    0.2542967618465123    0.2665268891931045    0.254296767621375    0.22396979903282235    
  0.19083325714403707    0.17051500569142058    0.17308822949088357    0.20571681375300685    0.2714947744240073    
  0.34679398529521566    0.36817302534479224    0.3229651710404763    0.2924660283620297    0.38200461742742403    
  0.38747010744388394    0.37492702183736326    0.3147068509936909    0.2361118993482404    0.17794020118074172    
  0.1500123116937887    0.14765991278681456    0.1645982371787338    0.19207939870351723    0.21727428677996868    
  0.22754473792499036    0.2172742716981059    0.1920794047616423    0.16459823834457363    0.14765992768705288    
  0.15001230427809426    0.17794021729980333    0.2361118964519415    0.3147068449808277    0.3749270138830548    
  0.38747009138841354    0.38200461742742403    0.41288676595711393    0.39529039865922655    0.34145411592265507    
  0.26466353022549777    0.1934727979809235    0.145976140089812    0.12366484362129235    0.12167243871065657    
  0.13476561596794845    0.15590760358811132    0.1752472000635325    0.18314750390935738    0.17524722421726507    
  0.15590758113265452    0.13476564065879107    0.1216724123934747    0.12366486801832524    0.14597612216643407    
  0.1934728346346825    0.264663507107337    0.3414541116723134    0.3952904111464593    0.41288676595711393    
  0.37383591720148945    0.3503539681760472    0.2901983252391193    0.21883724779283303    0.1594160986370154    
  0.12125911272157652    0.10350308732812356    0.10185329830639434    0.11194250949902176    0.1283320411232355    
  0.14340097524307663    0.14955220614898562    0.14340098850874175    0.12833205764015246    0.1119425101618851    
  0.10185330492794273    0.10350307432335079    0.12125911863271806    0.15941608503622184    0.21883725072427118    
  0.2901983340592263    0.3503539542128919    0.37383591720148945    0.3402411398588141    0.3176606645129504    
  0.2612660808471681    0.19648695766173163    0.14363711496277953    0.10990630558100985    0.09430505850207656    
  0.09300804308201778    0.10195301206222886    0.11640122560499437    0.12968399140652442    0.13508145957139694    
  0.12968399968910804    0.11640123850278018    0.101953012431663    0.09300802271082532    0.09430506416960628    
  0.10990627645484218    0.14363714344938414    0.1964869185309472    0.2612661032725949    0.3176606511699355    
  0.3402411398588141    0.35322932876886326    0.3299407886045442    0.2717050152874551    0.20449028147426224    
  0.14946122832629877    0.11437877842146588    0.09829304847506853    0.09726046027446228    0.10704197953746311    
  0.12255743583016254    0.13681041621521123    0.14262799232457307    0.13681043112582375    0.12255745909874387    
  0.10704197535120073    0.09726045936244704    0.09829303673005249    0.11437878444729081    0.1494612266198252    
  0.204490269361192    0.2717050314230362    0.3299408080451926    0.35322932876886326    0.4061910135000763    
  0.38269961531324004    0.3206474713697786    0.24385011465784864    0.17813394657557752    0.1358032292941825    
  0.11649008184054666    0.11561331500216156    0.12826052817820177    0.14801028318439266    0.16610335871895723    
  0.17353843159483992    0.1661033679642359    0.14801028090310708    0.12826053399419773    0.11561328264496475    
  0.11649008646508623    0.13580320921932065    0.1781339858438146    0.2438500765074546    0.3206474944342603    
  0.3826996086316958    0.4061910135000763    0.4216616799619601    0.41498420896101734    0.37906314033944105    
  0.3061209150012209    0.22758548422123218    0.17305743029354584    0.14788482883659781    0.1471452161183324    
  0.1647089445666393    0.19172867077264297    0.2159960835012418    0.22581587893749916    0.21599610464556435    
  0.1917286665835802    0.16470893451949983    0.14714520885130497    0.14788481132088924    0.1730574451850739    
  0.22758547694723655    0.3061209226560879    0.37906315161287796    0.41498424261295946    0.4216616799619601    