#     DFTpy    
  CRYSTAL 
    
  PRIMVEC    
  4.544620689655172    0.0    0.0    
  0.0    4.544620689655172    0.0    
  0.0    0.0    2.5037931034482757    
  PRIMCOORD    
  4    1    
  Si    0.0    0.0    0.0    
  Si    2.272310344827586    2.272310344827586    1.2518965517241378    
  Si    0.0    2.272310344827586    0.6259482758620689    
  Si    2.272310344827586    0.0    1.8778448275862067    
  BEGIN_BLOCK_DATAGRID_3D    
  3d_datagrid_density    
  BEGIN_DATAGRID_3D#0    
  21    21    11    
  0.0    0.0    0.0    
  4.544620689655172    0.0    0.0    
  0.0    4.544620689655172    0.0    
  0.0    0.0    2.5037931034482757    
  0.05018972298004665    0.09150935605558859    0.25025111270099015    0.44290277685800283    0.4934437775975378    
  0.4654276693833567    0.45361119566298175    0.458723827750489    0.440900356021835    0.3944646115179999    
  0.36883803590364606    0.3944647984656764    0.4409003627383534    0.4587237390882999    0.4536111905615468    
  0.46542773874547483    0.49344380685907874    0.4429029043643387    0.2502511888587433    0.09150935205074803    
  0.05018972298004665    0.09150936386933609    0.14045785922330678    0.29470598094311634    0.4450056776616031    
  0.4660816302423685    0.4323511551034568    0.42100396128242    0.43096284307773775    0.4272598754469039    
  0.3983789426326561    0.38018687524553657    0.39837897937134975    0.4272597583209213    0.4309628490275269    
  0.4210038961500972    0.43235120878865774    0.46608167053412614    0.44500573734132093    0.2947059655549784    
  0.1404578098764057    0.09150936386933609    0.25025107587457657    0.29470599805369163    0.3876071221865283    
  0.4276891636835969    0.393619590498746    0.35256851880428586    0.3430858926635146    0.3605621159138359    
  0.3813872881596394    0.38716735100746397    0.38523717959153825    0.38716747730858103    0.3813873242561997    
  0.3605620479677213    0.34308591868219973    0.3525685111774387    0.3936195987504894    0.427689213135749    
  0.3876069883368515    0.2947058892630863    0.25025107587457657    0.44290271829699246    0.4450057086730981    
  0.42768916750796054    0.3718341746255976    0.3067802611306935    0.2658847582961759    0.2584644692256731    
  0.27812640115365833    0.3107392829673502    0.3379853015663678    0.3477469521444209    0.3379854625082938    
  0.31073933297684964    0.27812636260966506    0.25846449425994206    0.2658846818089737    0.30678022487642803    
  0.37183420858290717    0.42768905067166557    0.44500557965817883    0.44290271829699246    0.49344375179042    
  0.46608176791779077    0.3936196499809963    0.3067802043487275    0.2382723642963636    0.20137006458193726    
  0.1949989701329168    0.2131376719744565    0.24574577369890396    0.2768536451858213    0.28962676291649286    
  0.27685365283728397    0.24574578678721934    0.21313766679234683    0.1949989485064485    0.2013700458839354    
  0.2382723534924318    0.3067802424256291    0.3936196245952514    0.46608157267983785    0.49344375179042    
  0.46542770606318207    0.43235116107137    0.3525686090221098    0.26588469864459496    0.20137003971443904    
  0.1674776243606329    0.1616796308871736    0.1785896591849756    0.20922472267405606    0.2389894257503606    
  0.251521703052099    0.2389895290896196    0.20922470592514084    0.1785896171974228    0.16167963012524805    
  0.16747765058446648    0.20137007900371245    0.2658847585616248    0.352568612796307    0.43235117038069737    
  0.46542770606318207    0.45361121183270237    0.4210040189839269    0.3430859938351283    0.2584644831158358    
  0.1949989764839671    0.16167964547231703    0.15625826129798712    0.1733846606423503    0.20440248890795532    
  0.23480299429828816    0.2476716436385632    0.23480295176427238    0.20440242659615315    0.1733846328356032    
  0.1562582599226224    0.16167968745327746    0.19499899606951657    0.25846452888667903    0.34308591332078076    
  0.4210039413846466    0.45361121183270237    0.4587236749381129    0.4309628785538642    0.3605620714931121    
  0.27812645142745424    0.21313765364486645    0.178589680337824    0.17338464803540507    0.19217376591113897    
  0.2264690607839317    0.26036045445420036    0.2746481825133308    0.2603605244740935    0.22646909473328844    
  0.19217378812649422    0.17338461105289124    0.178589626270286    0.21313767104703157    0.2781263991237235    
  0.3605619505784415    0.4309627445539559    0.4587236749381129    0.44090040399000696    0.4272598056718345    
  0.3813873431781    0.31073927370680926    0.2457457911828425    0.20922474619962936    0.20440245038731886    
  0.22646907305630345    0.26636050806106226    0.3055873894101053    0.32189415340483146    0.3055875210964394    
  0.26636058366476695    0.22646900821305252    0.20440247901198516    0.209224694718492    0.24574579028062699    
  0.3107393499965584    0.3813872177931196    0.42725971197627927    0.44090040399000696    0.3944647518502874    
  0.3983789657248755    0.38716742545085636    0.3379853954884945    0.27685362428236526    0.23898948948081541    
  0.2348028850803736    0.26036047754721964    0.30558744760616613    0.34982089279584766    0.3681108706766442    
  0.34982088375503767    0.30558745713083285    0.2603605316636347    0.23480288132725785    0.23898946509476868    
  0.27685363149763237    0.3379853805631671    0.38716742956320765    0.3983788698834559    0.3944647518502874    
  0.36883803153617184    0.3801868916818914    0.38523716983630907    0.34774684744512496    0.28962678009979725    
  0.2515217340077533    0.24767164866998215    0.2746482890054365    0.3218942263188732    0.36811089702506494    
  0.3872549597063069    0.368110946806035    0.32189412531782036    0.2746482212306873    0.24767163273629036    
  0.25152179732428    0.28962676524746583    0.34774688973795903    0.3852371946551637    0.3801868605543959    
  0.36883803153617184    0.39446479406293516    0.39837902908051676    0.3871674197660088    0.3379853915122266    
  0.2768536655927724    0.23898945255560475    0.23480292974657352    0.2603605253892264    0.30558755135287774    
  0.3498208644101595    0.36811095470065736    0.3498208904579226    0.30558746894576827    0.26036050353880574    
  0.2348029437680503    0.23898943132383837    0.2768536398993215    0.33798541032181123    0.3871674206666763    
  0.3983788560404467    0.39446479406293516    0.4409003559359396    0.4272597833509929    0.38138735843373767    
  0.31073930853766407    0.24574575797265408    0.2092246969634374    0.20440239838825017    0.22646908239027055    
  0.26636050115996157    0.3055873829798776    0.3218941114321704    0.305587540569086    0.26636050804892425    
  0.22646909548723668    0.20440244217465486    0.20922471447277413    0.2457457418582937    0.3107393789598122    
  0.3813872869266257    0.42725957188479713    0.4409003559359396    0.45872369706284877    0.43096290648320357    
  0.36056200699893837    0.2781264293566673    0.2131376624299634    0.1785896319109539    0.17338463070499602    
  0.1921737638227275    0.2264690179425963    0.26036046874058943    0.27464826536954434    0.26036058607059076    
  0.2264690551420455    0.1921737503246708    0.17338466780167605    0.17858960634111523    0.21313766144225102    
  0.2781264738469981    0.3605619762551994    0.4309627518925199    0.45872369706284877    0.45361122920988667    
  0.4210040241116861    0.3430859531303299    0.258464535892142    0.19499897701458013    0.16167967074663994    
  0.15625825432984156    0.17338466891395743    0.2044024478959151    0.23480294229631446    0.2476716323662072    
  0.23480298351424067    0.20440246359361766    0.1733846986819224    0.15625826121412145    0.1616796685250908    
  0.1949989751160063    0.2584645107212027    0.3430859334219397    0.4210038877528582    0.45361122920988667    
  0.46542764431849126    0.432351146118507    0.3525685446115336    0.2658847040121019    0.20137006111027356    
  0.16747763689971462    0.16167965005867785    0.17858967382182797    0.20922470756809072    0.23898947444069538    
  0.2515216972056401    0.23898949561931485    0.20922466011004281    0.17858964197862315    0.1616796387404667    
  0.1674776598595042    0.20137005126186489    0.26588472136563485    0.3525685776788454    0.43235118064718786    
  0.46542764431849126    0.49344376108751703    0.4660817483455576    0.39361959476670716    0.30678016985448453    
  0.23827236584556874    0.20137005817557976    0.19499893705454877    0.2131377097521789    0.24574582193705638    
  0.27685361958472143    0.2896267886938763    0.27685364660510603    0.24574575265794327    0.21313765809410382    
  0.1949989930816631    0.20137006232715868    0.23827232465316078    0.3067802208509952    0.3936195346409466    
  0.4660816350013878    0.49344376108751703    0.4429027605292053    0.4450056690614985    0.42768921597470105    
  0.37183417710854766    0.30678015118407254    0.2658847258750615    0.25846444247046974    0.2781264455858849    
  0.3107392853582095    0.33798529272836564    0.3477469051761138    0.33798535459599754    0.3107393564186494    
  0.27812637527249723    0.25846445203082424    0.2658847090529545    0.30678027293108373    0.37183414207403265    
  0.427689108356239    0.4450055760366953    0.4429027605292053    0.250251142948353    0.2947060126130723    
  0.38760713364837057    0.4276890946009594    0.3936196414842756    0.35256856558999256    0.3430859100500087    
  0.36056206038804106    0.3813873304157413    0.38716732878275856    0.3852372085687833    0.387167499492122    
  0.38138736920857375    0.36056198552324364    0.34308594562804323    0.3525684827714656    0.3936196369937254    
  0.42768914186946894    0.38760704353233444    0.2947059071641799    0.250251142948353    0.09150936098615382    
  0.14045787602581358    0.2947060257065461    0.4450056738770422    0.46608168163912006    0.43235117759555897    
  0.4210038901440688    0.4309629014760913    0.42725982233009974    0.39837891436331246    0.3801868283016657    
  0.3983789179139679    0.4272597955128038    0.43096284910686317    0.4210038526242732    0.4323512124060919    
  0.46608169529274146    0.44500569954834746    0.2947060246381443    0.14045782462589737    0.09150936098615382    
  0.05018972298004665    0.09150935605558859    0.25025111270099015    0.44290277685800283    0.4934437775975378    
  0.4654276693833567    0.45361119566298175    0.458723827750489    0.440900356021835    0.3944646115179999    
  0.36883803590364606    0.3944647984656764    0.4409003627383534    0.4587237390882999    0.4536111905615468    
  0.46542773874547483    0.49344380685907874    0.4429029043643387    0.2502511888587433    0.09150935205074803    
  0.05018972298004665    0.09900554611520344    0.1465375485770533    0.2881494043282208    0.4118132363981351    
  0.4128566275686657    0.36940402678341794    0.35193862786761154    0.3669133594751588    0.3968056269680758    
  0.42086097702196934    0.4289781613185757    0.4208610856814841    0.39680558324091164    0.36691331511086744    
  0.3519386351337993    0.36940410344795865    0.41285662425654945    0.41181336415391595    0.2881494717763298    
  0.14653753061812974    0.09900554611520344    0.1510192470540707    0.20029845089849557    0.326231887815275    
  0.41197584331660797    0.3924765477051434    0.34599186523008446    0.32862606657965404    0.3434576084097617    
  0.37423466192714283    0.40039824272053287    0.40967610036244567    0.4003983543625955    0.37423453284725894    
  0.34345753063023365    0.32862604251016125    0.34599187749550053    0.39247657365082145    0.4119759299959217    
  0.32623185346953065    0.20029837408371473    0.1510192470540707    0.31619042934108743    0.3484673625223063    
  0.401581275094559    0.39642073913745657    0.33932472096009875    0.2896290551122414    0.27320871615808917    
  0.2869004505008032    0.31746075224945    0.34609208121090185    0.3571632713868048    0.3460921921174365    
  0.31746072707312845    0.28690045082316057    0.273208754380992    0.2896290699323313    0.3393247137826035    
  0.3964207815796667    0.40158110205645015    0.34846719471697135    0.31619042934108743    0.48691013310653075    
  0.4767678089599064    0.4327441320625393    0.3542730104693663    0.27687627478391846    0.22873515696238092    
  0.21389969014709415    0.22556859739287494    0.25311071364334353    0.28076747222775    0.29220232021112696    
  0.2807675976888907    0.2531107983399294    0.22556857832420638    0.2138997461372358    0.22873510888468593    
  0.27687620184390804    0.3542730138245619    0.4327440277737412    0.47676771329253986    0.48691013310653075    
  0.5324563242503009    0.49778114632340703    0.40978621394048076    0.308617508463435    0.22981616943841676    
  0.18528163220197427    0.171727197827525    0.18186973849251498    0.20612594256406191    0.23090474841291875    
  0.24145981463267957    0.230904745671245    0.2061259917210951    0.18186972037804494    0.17172717163560094    
  0.18528159147333456    0.22981617126168466    0.3086176171945517    0.4097861779595929    0.4977809562093975    
  0.5324563242503009    0.5221420715477966    0.4828689130132909    0.38846022918285117    0.2865026248665762    
  0.21018722498665104    0.1676714964289152    0.15473075848527768    0.1643875833602948    0.18723856426815036    
  0.21046624929370011    0.22041930898769613    0.21046634143990114    0.18723856660645188    0.16438755824860304    
  0.15473072205376426    0.1676715155627477    0.21018727058082623    0.2865026584781375    0.38846025831285164    
  0.4828689660515115    0.5221420715477966    0.5245154866200319    0.4881468497743131    0.398301628759865    
  0.29758180048377325    0.22005316240384704    0.17649146480974778    0.16336284474426882    0.1734712190998848    
  0.19746405935524938    0.22206256026136864    0.23260312097924274    0.22206259491888503    0.1974640389237069    
  0.1734712198713208    0.16336284837974793    0.17649151293590026    0.2200531702192522    0.29758180910708804    
  0.3983015823445991    0.4881467458044311    0.5245154866200319    0.4978334349318723    0.4790823082211014    
  0.41974568922635147    0.33353715439258025    0.25587945912000654    0.2094510094746744    0.1955452752970148    
  0.2072196165300094    0.23470014728089014    0.26289051981038786    0.27480016968914545    0.2628905525554001    
  0.23470011541157715    0.20721964876199414    0.19554527728559618    0.20945097738771568    0.2558794947411914    
  0.3335371826068985    0.4197455109771972    0.47908212955311774    0.4978334349318723    0.3737167598911747    
  0.3914187514781525    0.4078583671401079    0.37238924221052544    0.30654645333245084    0.25808399146428745    
  0.24327296151263342    0.2576365795721116    0.29000832019469736    0.32230855026320754    0.33555870550894973    
  0.32230870409458284    0.2900083993847615    0.25763652967808715    0.243272944279035    0.2580839565578375    
  0.3065464298675315    0.37238931319988705    0.4078581905847083    0.3914186225777118    0.3737167598911747    
  0.22750477817567757    0.27011907471407476    0.3590704914975125    0.3928850528297839    0.3510867460921185    
  0.30357859206899757    0.28828942498422294    0.30511763141739867    0.341246042246809    0.37637614310494183    
  0.3905585552856308    0.3763761627374602    0.34124606413794756    0.305117678453901    0.2882894000820983    
  0.3035785445269163    0.35108671990873763    0.3928849800649806    0.35907051565007936    0.27011901053026377    
  0.22750477817567757    0.1723807584963633    0.2193469053825998    0.3313429531701322    0.3966625630487705    
  0.3685533921703201    0.3225270056841168    0.307209772215086    0.3249182200011699    0.3621661314539615    
  0.39808814062966347    0.4125756793142351    0.3980882310965683    0.36216605772040794    0.3249182818636147    
  0.3072097587096276    0.3225270588432737    0.36855342030087845    0.3966626418216968    0.33134298158852227    
  0.2193468842668852    0.1723807584963633    0.2275047885603373    0.2701191286346049    0.359070474698735    
  0.39288497585357063    0.35108680524190733    0.3035785004575543    0.2882894414500307    0.3051176899924442    
  0.34124618205596474    0.37637615313523515    0.39055861205391956    0.3763762173011653    0.34124608650570887    
  0.3051176984297915    0.2882894296227576    0.3035785342033283    0.3510867442770106    0.39288500418609906    
  0.3590704375439318    0.2701190269059555    0.2275047885603373    0.373716744825169    0.3914187167625372    
  0.4078583538916572    0.37238929001643195    0.3065464154338923    0.25808395245457283    0.24327286318809344    
  0.25763657892606295    0.2900083395071087    0.3223085336750059    0.33555867398255534    0.3223086950870559    
  0.2900083260994976    0.2576365950915794    0.2432729083499466    0.2580839396504432    0.3065463950845394    
  0.3723892977520125    0.4078582644169817    0.3914185241183697    0.373716744825169    0.4978334005193833    
  0.4790822496692527    0.4197456183748571    0.33353715761197694    0.2558794804699123    0.20945098097240386    
  0.19554528083352715    0.20721960080474605    0.23470007346928903    0.262890505686411    0.27480022387760394    
  0.2628906209153133    0.2347001094818234    0.20721962461960977    0.19554531264557537    0.20945094256263233    
  0.2558794736149021    0.33353727305435055    0.41974554532593905    0.47908210979247046    0.4978334005193833    
  0.5245155519918874    0.48814687820572417    0.39830164793997397    0.29758183635926166    0.22005318572475255    
  0.17649148402892445    0.16336285091111702    0.1734712514496762    0.19746403529056092    0.22206256542774183    
  0.23260312852465806    0.22206256867447383    0.1974640665245149    0.17347125660866702    0.16336283053084658    
  0.17649146061613846    0.2200532040259393    0.2975818484166453    0.39830159703623763    0.48814668157048047    
  0.5245155519918874    0.5221421002286879    0.4828689497499961    0.388460206240421    0.28650257376177246    
  0.2101872098322987    0.16767151147199544    0.15473075262584426    0.1643875702449395    0.1872385727096277    
  0.21046624292951582    0.22041931530021092    0.21046630323659157    0.18723852630011875    0.16438754277073317    
  0.1547307254671349    0.1676715103390348    0.21018726110662128    0.28650264358931254    0.3884602415803891    
  0.4828689950670684    0.5221421002286879    0.5324563534451064    0.49778116133074773    0.40978622072727616    
  0.30861755450316036    0.22981616023981083    0.18528160492327106    0.17172717045642655    0.18186974592414085    
  0.206126002693634    0.23090474476811346    0.24145979081049246    0.23090477435265308    0.2061259398563329    
  0.18186975796483232    0.17172719702570055    0.18528158382725762    0.2298161767435867    0.3086175645833685    
  0.4097861079212175    0.49778099651713215    0.5324563534451064    0.4869101247720044    0.47676782466563067    
  0.43274418824604577    0.35427297807303104    0.2768762047840264    0.2287351531276387    0.2138996828560823    
  0.22556860506852863    0.25311070140515385    0.2807675113616452    0.29220223500134573    0.2807675456199803    
  0.2531107925988928    0.22556857231620958    0.2138996984414214    0.22873509925508048    0.2768762287385371    
  0.3542730070241853    0.43274407155313793    0.4767676489729206    0.4869101247720044    0.3161904438694852    
  0.3484674086466182    0.4015813165687185    0.3964206524428196    0.3393248030725006    0.28962907627905343    
  0.27320868053595654    0.2869004606949068    0.31746077794327016    0.346092097199068    0.3571633630833358    
  0.34609225949949923    0.31746084196336183    0.28690039066808015    0.2732087433391956    0.2896290189754175    
  0.33932477307186043    0.39642069222979776    0.40158115115113696    0.3484672667085929    0.3161904438694852    
  0.15101925280876569    0.20029847772066606    0.3262319148703012    0.411975829962687    0.3924765520055601    
  0.3459918772770324    0.3286260467288944    0.34345762111197775    0.3742345417234938    0.40039822225892163    
  0.40967609485191003    0.40039831204923754    0.3742344880917047    0.34345758706643087    0.3286259903879262    
  0.34599186229791257    0.3924765488370711    0.4119759105964851    0.32623193661905275    0.20029835807361604    
  0.15101925280876569    0.09900554611520344    0.1465375485770533    0.2881494043282208    0.4118132363981351    
  0.4128566275686657    0.36940402678341794    0.35193862786761154    0.3669133594751588    0.3968056269680758    
  0.42086097702196934    0.4289781613185757    0.4208610856814841    0.39680558324091164    0.36691331511086744    
  0.3519386351337993    0.36940410344795865    0.41285662425654945    0.41181336415391595    0.2881494717763298    
  0.14653753061812974    0.09900554611520344    0.2740991719018329    0.30795636885953065    0.36893425579862377    
  0.37539298202758603    0.3264168775908651    0.28244145732030573    0.27197650192856054    0.2935331028831362    
  0.33554792715402404    0.37720843622003986    0.39449437556417055    0.37720856650136825    0.3355478945850363    
  0.2935330783046856    0.2719764900339472    0.2824415159597549    0.32641681491494884    0.3753930507369841    
  0.368934346957438    0.3079562932783266    0.2740991719018329    0.3199786817747552    0.34559015506650875    
  0.38326215701067096    0.3679913587455741    0.311532545075216    0.2671812722756535    0.25657917359704374    
  0.27690306244935403    0.3170889411564022    0.35698120169389447    0.3734923084902215    0.3569813097478557    
  0.31708886119388796    0.2769029982313094    0.25657911956207674    0.2671812921046364    0.311532596442271    
  0.3679913961972345    0.3832621933559383    0.34558995857027985    0.3199786817747552    0.4217611453019938    
  0.4222284512980492    0.40211191426571685    0.34305088429188313    0.2744573641905813    0.23068568990407823    
  0.21999583952474777    0.23720037056896606    0.272381104311396    0.30765279796291894    0.3223374791661423    
  0.3076528972444511    0.27238106504711396    0.2372003139548169    0.21999586076520314    0.2306857196060901    
  0.27445737040146717    0.34305099042522885    0.4021117307006369    0.4222282628003676    0.4217611453019938    
  0.4889227374424786    0.4636892316427089    0.39476489632353345    0.3071575035728824    0.2339078327484085    
  0.19228692512543605    0.18180159000916746    0.19595518172699383    0.2256574253711031    0.25578219379180334    
  0.26855243747933477    0.2557822987876436    0.225657477022714    0.1959551244958877    0.18180163777584407    
  0.19228685407363505    0.2339078233616328    0.3071575115864401    0.39476474486505964    0.4636891243550653    
  0.4889227374424786    0.4967487776630134    0.46110998829831523    0.3748840199600481    0.2800720943926973    
  0.20796525333375898    0.1683472823430443    0.1580701866387591    0.17059081227894426    0.19686200878928325    
  0.2233069960675835    0.23459221803821262    0.2233070008326032    0.19686206241780393    0.17059083180797177    
  0.15807014251603901    0.1683472338211606    0.20796526756364397    0.28007218672160183    0.3748839860557629    
  0.46110982726485006    0.4967487776630134    0.5019358339839531    0.46492458009249465    0.3757983779588881    
  0.27926224179467335    0.2070744361826977    0.16755166372836883    0.15706003457009998    0.16916281024813545    
  0.19461099421914943    0.2199840391541615    0.23077248946983306    0.21998414241953673    0.19461094542069474    
  0.16916276926158966    0.15705995726593971    0.16755166386391812    0.20707444287152776    0.27926228682826365    
  0.3757983830988086    0.464924562970962    0.5019358339839531    0.5207741735280874    0.4894727463134648    
  0.40792284827367914    0.3117592573009217    0.2361092362192344    0.19384437809548    0.18254892398418004    
  0.1953610900765466    0.2224906393157922    0.24944831802785217    0.2607509154582718    0.24944835342769764    
  0.2224906319191489    0.19536110129576484    0.18254891263248504    0.1938443919202421    0.23610925777901476    
  0.31175934154719015    0.4079228453299856    0.48947269983022107    0.5207741735280874    0.4651782775211253    
  0.46277182722034016    0.43447766230487606    0.3673724562477669    0.29457744319889995    0.24828656536756272    
  0.23554593426881243    0.24990689435720456    0.27941421585041587    0.3071478887137318    0.3180623426670857    
  0.3071479437382664    0.2794142074014638    0.24990685752882727    0.23554594822244818    0.24828653335849746    
  0.29457749817408996    0.36737251923679093    0.4344775097215915    0.46277168255671813    0.4651782775211253    
  0.27085093509385255    0.3119122000546956    0.39195923958655826    0.4147536357851991    0.369563988548772    
  0.3224272538157226    0.3076590858570684    0.32265431344177875    0.35036933851196606    0.37143336584908604    
  0.3779752427845138    0.3714335463556412    0.3503693943136744    0.3226542044923093    0.30765910939660507    
  0.3224272010575478    0.36956399604794204    0.4147537470034639    0.3919590927704634    0.31191210822505344    
  0.27085093509385255    0.10610404798407203    0.1553869157345477    0.3008528569062967    0.42817340286075894    
  0.4321828479781384    0.390679918492123    0.3745831274114597    0.38783791964367353    0.40729876269822596    
  0.41386395584703467    0.4127428840288523    0.41386401635826453    0.4072987541124164    0.3878379723802611    
  0.3745830861681178    0.3906799690833183    0.4321829476980427    0.428173449931593    0.300852901926228    
  0.15538688110181362    0.10610404798407203    0.06113879185502732    0.10424919533195966    0.2573230511566761    
  0.42548497796360885    0.45583156398487573    0.41897955348808963    0.4027279358451813    0.4144757284464469    
  0.42836560156198306    0.4265752940033085    0.42138915384017944    0.4265754024655044    0.42836546612085424    
  0.414475726080996    0.4027278917175205    0.41897963785897036    0.4558315806143037    0.42548500503220027    
  0.2573231214566582    0.10424918554638889    0.06113879185502732    0.10610406902542632    0.15538691985398953    
  0.30085288079256073    0.42817343749625564    0.43218288754486195    0.39067985614722467    0.37458306387698104    
  0.38783794654233583    0.40729886655151654    0.4138639352232726    0.41274293308009435    0.4138640422708574    
  0.40729878722846263    0.3878379161695013    0.37458311735462974    0.390679917851741    0.4321828712931245    
  0.4281734879717033    0.3008528526920623    0.1553868764709056    0.10610406902542632    0.27085093621745415    
  0.31191220140452647    0.39195922678870987    0.4147538094179848    0.3695640046281162    0.322427174711351    
  0.30765904833110636    0.32265430354692687    0.3503693122339374    0.37143334444965276    0.3779751860170146    
  0.37143352788281986    0.3503693077665734    0.3226542808699284    0.3076590978544762    0.322427170296928    
  0.36956398520721256    0.4147538034456237    0.3919591027844501    0.3119120263250402    0.27085093621745415    
  0.46517820888074957    0.46277182517558996    0.43447764299454816    0.3673725470053781    0.29457747604020046    
  0.24828654601681746    0.23554596665229016    0.2499068671833138    0.2794141205259582    0.30714793122302037    
  0.3180624174014241    0.3071480262498937    0.2794141937131817    0.24990685409441915    0.23554599899735634    
  0.24828653793447197    0.29457748235943526    0.3673726630693536    0.434477567082122    0.46277171022937896    
  0.46517820888074957    0.5207742595512155    0.48947281580323754    0.40792288319310105    0.31175931900625864    
  0.23610921977680133    0.1938444164345572    0.18254893774415445    0.1953611421298245    0.2224906703334716    
  0.2494483552985535    0.26075093861938675    0.24944833077782538    0.22249065688825134    0.19536114119896572    
  0.18254894617928008    0.19384437763019535    0.23610924149483736    0.3117593341368923    0.40792280687606264    
  0.4894726436708612    0.5207742595512155    0.5019358502111227    0.464924621442302    0.3757984210623925    
  0.2792622332994786    0.20707439466136107    0.1675516435380951    0.15706004190953643    0.16916279292320716    
  0.19461095750813925    0.21998406638162576    0.2307724864067026    0.21998413242482093    0.19461094268849483    
  0.1691627684351035    0.15706000553591015    0.16755166038612201    0.2070744069136101    0.27926230618982056    
  0.37579835947269574    0.4649246137857327    0.5019358502111227    0.49674876319138334    0.4611100596818788    
  0.37488403882865656    0.28007212566935613    0.20796528790265822    0.1683472156323078    0.15807017201111798    
  0.17059082439924236    0.19686203125750598    0.22330696162809271    0.23459219987246038    0.22330700129196554    
  0.19686201306879833    0.1705908290598774    0.15807013662245098    0.16834726367375497    0.20796527187413003    
  0.28007211742931887    0.3748839183017104    0.46110990558009496    0.49674876319138334    0.48892264797277174    
  0.46368914166741343    0.39476492397376883    0.30715751078003684    0.23390777403237006    0.1922869259381431    
  0.18180159169888188    0.19595517508948188    0.22565746425283867    0.2557822292417698    0.2685524210960037    
  0.2557822733059417    0.22565749556167378    0.1959551688577884    0.1818016068886876    0.1922868794922268    
  0.23390780001788583    0.3071575574984323    0.39476479465089476    0.46368905768670393    0.48892264797277174    
  0.421761134628639    0.42222848785030903    0.40211197501130247    0.3430509059091838    0.27445737431707096    
  0.23068568739222475    0.21999584931605656    0.23720031447728626    0.2723811203304469    0.3076528533603774    