#     DFTpy    
  CRYSTAL 
    
  PRIMVEC    
  6.733999999999999    0.0    0.0    
  0.0    6.733999999999999    0.0    
  0.0    0.0    3.7099999999999995    
  PRIMCOORD    
  4    1    
  Si    0.0    0.0    0.0    
  Si    3.3670000000000004    3.3670000000000004    1.8549999999999998    
  Si    0.0    3.3670000000000004    0.9274999999999999    
  Si    3.3670000000000004    0.0    2.7824999999999993    
  BEGIN_BLOCK_DATAGRID_3D    
  3d_datagrid_density    
  BEGIN_DATAGRID_3D#0    
  29    29    17    
  0.0    0.0    0.0    
  6.733999999999999    0.0    0.0    
  0.0    6.733999999999999    0.0    
  0.0    0.0    3.7099999999999995    
  0.060658185128403666    0.10983199432215877    0.2690805963562614    0.3651615137206518    0.27869057540530345    
  0.1665780755370787    0.10122257959921509    0.07361240857146426    0.07015373420015489    0.08584639227382236    
  0.12098520475077432    0.17445963212869117    0.2343057135614706    0.27931422428388    0.29516643281358546    
  0.2793142403509448    0.23430566995981755    0.17445963110567483    0.12098522051303315    0.085846395321659    
  0.07015372855496693    0.07361241747558958    0.10122260879819674    0.16657807897994684    0.2786905633111295    
  0.3651614578546848    0.2690805911214175    0.10983201640790026    0.060658185128403666    0.10983201432836968    
  0.16535613363217477    0.3082117742790629    0.36006610238064385    0.2624759861375235    0.15664399951100097    
  0.09608291957707057    0.07046552595414075    0.06727467174983821    0.08188570449053913    0.11445556077786538    
  0.16399151463395667    0.21996387359211622    0.2629493497589088    0.27840585639470133    0.2629493864139303    
  0.21996381604877102    0.16399156775996424    0.11445553231538962    0.08188572085573943    0.06727466093048155    
  0.07046553345156543    0.09608290584328581    0.15664401496458974    0.26247597271210515    0.3600660702938929    
  0.30821177680176487    0.16535615615993626    0.10983201432836968    0.26908064187142355    0.3082117284923301    
  0.3630740755738056    0.3231298567244994    0.21777927944207934    0.13117386287392907    0.08292540914060409    
  0.062273464586820995    0.0596890875999055    0.07152454811663389    0.09766990791987745    0.13715111811679118    
  0.18232011864875736    0.21834494790820025    0.2318226057890438    0.21834496116207877    0.18232011453078809    
  0.13715109137392217    0.09766988392696113    0.0715245696075311    0.05968907447575362    0.062273459039140784    
  0.08292541161141702    0.13117385376012916    0.2177792852500347    0.323129839795508    0.36307406499170347    
  0.3082117610037112    0.26908064187142355    0.36516148509922175    0.36006614110465085    0.32312986010084277    
  0.24413022501299475    0.15985284790515164    0.09995072522197608    0.06652720623117613    0.05188963761012437    
  0.050053478699783396    0.05852572927111589    0.0769810395571698    0.10429269439324844    0.1353497604379954    
  0.16057994100658599    0.17025507700385956    0.16057995906046782    0.13534979895533075    0.10429269570530768    
  0.07698102613161537    0.05852573214809515    0.050053482640201964    0.05188964979491735    0.06652722217841033    
  0.09995070930735023    0.15985285969336713    0.24413019838534372    0.3231298480832225    0.3600661226267452    
  0.36516148509922175    0.27869051694145547    0.26247598539801237    0.21777929764929124    0.1598528540745301    
  0.10812749359685957    0.0721258109480899    0.05138945375332798    0.04207752604330122    0.04094335415981481    
  0.04643949815743825    0.05813262673387552    0.07491550129052613    0.093566126725481    0.10858046179068569    
  0.11432845301967859    0.10858045371801885    0.09356613432953088    0.07491551484895148    0.05813261417870663    
  0.046439502232254896    0.040943348762338544    0.04207752481875923    0.051389464732644156    0.07212579670853081    
  0.10812751005605878    0.15985284118734921    0.21777930816094426    0.26247601375317814    0.27869051694145547    
  0.16657808616802613    0.15664402199262187    0.1311738354880189    0.0999507215261928    0.0721258161760822    
  0.05210623986877179    0.040054926764903784    0.034451399701431344    0.03375851115143618    0.03709919163005415    
  0.04399210201554565    0.05352985394898843    0.06382392927054559    0.07192307506553311    0.07498167129900202    
  0.07192306969283424    0.06382392083375432    0.05352984622836431    0.04399210127002889    0.03709919251491234    
  0.03375850631835838    0.034451406968070135    0.040054933889818185    0.05210624212720912    0.07212581024613818    
  0.09995071444320458    0.1311738646226663    0.15664404374746183    0.16657808616802613    0.10122259592496251    
  0.09608290354814027    0.08292540851369003    0.06652720775053243    0.051389464553444314    0.04005492500214222    
  0.032926887538369795    0.029442509077162397    0.028949124270063555    0.030943203309464942    0.03493943456100358    
  0.04025556413288665    0.04580020321560439    0.050061254542855205    0.05166415376055384    0.05006126595374133    
  0.04580018557684186    0.040255563785777625    0.03493942852963397    0.030943206792627447    0.028949118548922317    
  0.029442510173592774    0.03292688996222337    0.04005492561898092    0.051389458032165186    0.06652719761239811    
  0.08292540581867361    0.09608290800626723    0.10122259592496251    0.07361241385641776    0.07046554896257613    
  0.06227345465709463    0.05188964645875477    0.042077538619087695    0.0344513905993555    0.029442505808928366    
  0.0268666630895316    0.026380547297661438    0.027592755286617157    0.03006301963650493    0.03327865408726146    
  0.03651627725477989    0.038962134438736494    0.039892818180946164    0.038962125658377186    0.0365162823450222    
  0.03327865994963795    0.030063029193554202    0.027592766317732612    0.026380540558147442    0.02686666959840141    
  0.029442516196642544    0.034451392665756475    0.0420775336683757    0.05188963895964055    0.06227345018721317    
  0.07046554441285369    0.07361241385641776    0.07015373577407726    0.06727466349976294    0.059689076560359336    
  0.05005347827789207    0.040943360923833515    0.03375849672679724    0.02894912627479424    0.02638053208434242    
  0.02568953585944814    0.02646753282198183    0.028293722518347726    0.03071022046862358    0.0331309247397658    
  0.034947488912646624    0.035639879609752054    0.034947505682138266    0.03313091467861109    0.030710216061743303    
  0.028293736042861017    0.026467536486704392    0.02568952650863856    0.02638054017181717    0.028949124514783486    
  0.03375849985484017    0.04094335305807868    0.05005347255084708    0.059689089055513664    0.06727467273428574    
  0.07015373577407726    0.08584638883430663    0.08188571840224275    0.07152455478855364    0.05852572734004824    
  0.046439503746666354    0.037099194308828916    0.0309432102473799    0.0275927622898926    0.02646753470519156    
  0.027053546082196667    0.0288322844229488    0.031276816126385276    0.03377971083935545    0.0356575946966174    
  0.03635607482278058    0.0356575925177303    0.03377971362498672    0.031276807228114066    0.028832282305086932    
  0.02705355091514336    0.02646753355114527    0.02759276302818955    0.030943214426601383    0.03709919098167983    
  0.04643949310693175    0.05852573101580514    0.07152454468981542    0.08188573817635429    0.08584638883430663    
  0.12098518354254009    0.11445554056824073    0.09766988636597303    0.07698104312624607    0.05813260803739766    
  0.04399209655637357    0.034939421312536044    0.030063017710589106    0.028293733626114374    0.02883228000573075    
  0.03100259742217546    0.03409933749746625    0.03731530761058274    0.03973879665657383    0.04063345513355882    
  0.03973878283686195    0.03731531678110862    0.034099335379930235    0.03100258520431796    0.028832284607713185    
  0.02829373267229018    0.030063008294642406    0.034939433389574615    0.04399208732517212    0.05813261000226905    
  0.07698103445308406    0.09766990383599773    0.11445554636187562    0.12098518354254009    0.17445964660191557    
  0.16399155836996918    0.13715112095469142    0.1042927083090408    0.07491549805278    0.05352986251907917    
  0.040255570288840276    0.03327865986376563    0.03071021471824555    0.031276812030076484    0.034099351269481055    
  0.03825562397058133    0.04262379833434342    0.04595908556183901    0.04720212448891549    0.045959090987167134    
  0.0426238137221672    0.03825562287347819    0.034099336234411866    0.031276815244492745    0.030710222882071894    
  0.03327864878333748    0.04025557571972853    0.05352984852661618    0.07491551176777059    0.10429270758063268    
  0.13715112897072446    0.16399155322397657    0.17445964660191557    0.23430571456634236    0.21996384021074764    
  0.18232006321545996    0.13534979393236782    0.09356613449373503    0.06382392754889606    0.04580018538727839    
  0.03651627973339269    0.03313091519894999    0.03377971719978683    0.037315314685968576    0.04262379907940447    
  0.04831289472293291    0.05272106866196783    0.05436903150899336    0.05272105126030996    0.048312886257249686    
  0.042623795000204225    0.037315321092462196    0.033779706665131345    0.03313091193966636    0.03651627446076645    
  0.0458002044126316    0.06382391975722988    0.09356612094120924    0.13534975961645088    0.18232012801448302    
  0.21996386572527166    0.23430571456634236    0.27931423772943537    0.2629493512815383    0.21834494643141072    
  0.16057997167023702    0.10858044043447443    0.07192307031583985    0.05006126112558422    0.03896212122943384    
  0.03494749354213345    0.03565760059405622    0.039738790518072144    0.04595908247522287    0.052721072874726944    
  0.058018241666125174    0.06001118710050706    0.058018252189648616    0.05272104472327841    0.04595909080810431    
  0.03973878223962594    0.03565760146086165    0.034947487469384676    0.03896212465744159    0.050061263641776675    
  0.07192307789067921    0.1085804593471327    0.1605799342105911    0.21834496107237636    0.2629493211843689    
  0.27931423772943537    0.29516640034123015    0.278405841040456    0.2318225778935001    0.1702550955999516    
  0.1143284898831682    0.07498168769131748    0.051664153516760306    0.03989281432112889    0.035639888556477615    
  0.036356082014352344    0.040633479644413946    0.04720211779592343    0.05436902562194985    0.060011180003110384    
  0.06214045312256021    0.06001117977004675    0.05436901806704157    0.04720214096580043    0.04063347188318861    
  0.03635608413196624    0.035639889335791194    0.03989281864821216    0.05166416524213787    0.07498167438969583    
  0.1143284947143921    0.1702550824950296    0.23182259431919758    0.27840588359941193    0.29516640034123015    
  0.2793142578054373    0.2629493444061155    0.21834496326106148    0.1605799797028623    0.10858045462981752    
  0.07192307048926011    0.05006126033398263    0.03896212385577526    0.034947489627611246    0.03565759426906267    
  0.03973879879958521    0.045959072351175696    0.05272107818927073    0.05801823933904844    0.060011174696006635    
  0.058018264978501176    0.05272106017344463    0.045959095987759956    0.039738790531951756    0.03565759765627987    
  0.034947483275847444    0.038962127705810624    0.050061258991780384    0.07192305978555649    0.10858046025314629    
  0.1605799614761805    0.21834496031408263    0.2629493481754506    0.2793142578054373    0.2343057056933087    
  0.21996385676494662    0.18232008488203474    0.1353497724788856    0.0935661169303289    0.06382392072768618    
  0.04580018754765522    0.03651628599482657    0.0331309125974588    0.03377970468079313    0.03731532965571946    
  0.042623801646088956    0.04831288767108539    0.05272106490348432    0.05436903491668503    0.052721074992844154    
  0.04831288830454539    0.042623808311587234    0.03731530953238534    0.03377971249067989    0.03313090351976289    
  0.036516278449651926    0.04580019772257996    0.0638239102549358    0.09356613157896974    0.13534978268410242    
  0.18232010936190038    0.2199638989007689    0.2343057056933087    0.1744596096199058    0.16399153000875424    
  0.1371511206206149    0.10429270611783181    0.07491550394570633    0.0535298600606281    0.04025557137186266    
  0.033278655402127516    0.03071022078562102    0.03127681239949102    0.034099344899755975    0.03825562259781414    
  0.042623802601149494    0.045959072685348754    0.04720213792557824    0.04595909109609238    0.04262381431847688    
  0.03825561475819847    0.03409933566671903    0.031276816723562306    0.030710227588588445    0.03327865184672334    
  0.0402555821959893    0.053529846522374615    0.07491550960172838    0.10429269789559571    0.13715112002499544    
  0.16399153753845244    0.1744596096199058    0.12098521174620215    0.11445555290185586    0.09766989485889725    
  0.07698104019479263    0.05813261028340606    0.04399210010276519    0.034939422992760774    0.03006302001743774    
  0.02829372856944402    0.028832281923677112    0.031002593349608816    0.034099337415366804    0.03731531069598551    
  0.03973879283173152    0.04063347423198576    0.039738783752222874    0.0373153146565636    0.034099334980248204    
  0.03100258898021181    0.028832278020455522    0.0282937297336419    0.030063009375848472    0.03493943648576828    
  0.043992085707683745    0.058132618113438686    0.07698103018977108    0.09766989446625782    0.11445554554444533    
  0.12098521174620215    0.08584638433539281    0.08188571085140792    0.07152455568521258    0.05852572456617418    
  0.046439503156408456    0.03709919885670274    0.030943204600842242    0.027592760861260335    0.02646753877317369    
  0.027053549764533377    0.028832285839870204    0.0312768114005225    0.03377971462599228    0.03565759485410232    
  0.036356064291678224    0.03565759689209156    0.033779711821648434    0.031276806311340374    0.02883229403672612    
  0.027053551078266555    0.02646753227634929    0.027592761872831027    0.030943213005169376    0.0370991940405493    
  0.046439499839963004    0.058525721423296186    0.07152457134969492    0.08188572874165928    0.08584638433539281    
  0.07015372631388371    0.06727465668552553    0.05968907303418673    0.050053477231667316    0.040943352605109735    
  0.03375850950739845    0.028949115240378038    0.026380536654736768    0.025689536943638302    0.02646753150338597    
  0.028293734897024216    0.030710215828235875    0.033130911191906774    0.0349474944039544    0.03563988786560266    
  0.03494749922089138    0.033130903463326304    0.030710214635088103    0.028293732751154117    0.026467531701047892    
  0.025689532870029032    0.02638054033000355    0.028949117576067333    0.03375850803170734    0.04094335010742459    
  0.05005347324618593    0.059689090818927586    0.06727466640932164    0.07015372631388371    0.07361241540374684    
  0.07046554596095654    0.062273456935679726    0.05188964699219371    0.04207754454942497    0.034451393269181126    
  0.029442512110849785    0.02686666779125949    0.02638054752637727    0.027592754845613143    0.030063021752926668    
  0.03327864661584884    0.03651628075109486    0.038962133715863205    0.03989282038627278    0.03896213026003636    
  0.03651627624764504    0.03327865624855999    0.03006302988674581    0.02759276163432968    0.02638054160911509    
  0.02686667463625284    0.029442515721961316    0.034451387386847845    0.04207753249188331    0.051889639087172375    
  0.06227345191542722    0.07046554427095797    0.07361241540374684    0.10122259707510614    0.09608291790068303    
  0.08292540130119512    0.06652720376258144    0.05138946184568929    0.04005492165410505    0.03292689116397422    
  0.0294425056811431    0.028949120135272788    0.030943208574617    0.03493942498426217    0.04025557725680496    
  0.04580018959859083    0.05006125193709599    0.05166415829734275    0.050061269724526236    0.045800186925479415    
  0.040255568142198696    0.034939437950313165    0.030943210392746088    0.028949116953364787    0.02944251134312341    
  0.03292688604685861    0.04005491908050857    0.05138945123015551    0.06652720182048084    0.08292542878710665    
  0.09608291596272697    0.10122259707510614    0.16657808094266655    0.1566440415141934    0.1311738426464457    
  0.09995072603201195    0.07212582064795    0.05210624215564547    0.04005492689552349    0.034451402991112115    
  0.033758515112041705    0.03709919648290771    0.043992107587539145    0.05352985476779948    0.06382391890228324    
  0.07192306873429738    0.0749816778052908    0.07192307055538996    0.06382392175420974    0.05352984872717198    
  0.04399210010336744    0.03709919552718138    0.03375850712492428    0.03445139778236759    0.04005494055431596    
  0.052106242751084914    0.0721258044131813    0.09995072350291717    0.1311738458887005    0.15664403263984264    
  0.16657808094266655    0.27869050825779795    0.2624760315354401    0.21777928666643945    0.1598528547597645    
  0.10812750169812714    0.07212581948748116    0.051389451542147094    0.04207752881668582    0.04094334031285365    
  0.04643950236576783    0.05813262022828445    0.07491550577329466    0.09356611656546962    0.10858046510618626    
  0.11432848643977965    0.1085804585672108    0.09356613845715302    0.07491549517670525    0.058132625263908735    
  0.04643950171179593    0.040943349960491204    0.04207752799851729    0.05138946305919415    0.07212580043016398    
  0.10812750088180056    0.15985284575324774    0.217779308716807    0.2624759878280055    0.27869050825779795    
  0.3651614636267235    0.3600661321444937    0.32312985219666707    0.24413020047339112    0.1598528527230529    
  0.09995072792435755    0.06652720903890591    0.05188964786505548    0.05005347928641669    0.058525725527945084    
  0.07698104820064823    0.10429271105138946    0.13534977315970956    0.16057996462010113    0.17025504409997183    
  0.16057997699135607    0.135349753308005    0.10429269384242916    0.07698103849169007    0.058525730721284544    
  0.05005348672684126    0.05188964315879101    0.06652721227176076    0.09995071723992721    0.1598528616210338    
  0.24413022121239722    0.3231298690581155    0.36006611666322696    0.3651614636267235    0.2690806169346682    
  0.30821177837779773    0.363074062294952    0.3231298567902679    0.21777926538108508    0.1311738445618402    
  0.08292540720505208    0.06227346346229612    0.0596890834757803    0.07152456168814907    0.0976698886464239    
  0.137151126619586    0.18232010669237392    0.2183449429652282    0.2318225792290429    0.21834497007062456    
  0.1823201136945135    0.13715110270212805    0.0976699010438704    0.07152455259759169    0.05968907656042708    
  0.062273460070447026    0.08292541736016157    0.1311738387213261    0.21777927073964956    0.3231297973549269    
  0.36307411636635517    0.3082117629820201    0.2690806169346682    0.10983201070320561    0.16535617124330018    
  0.30821177678780415    0.36006612850498093    0.2624760007054082    0.15664400468789827    0.09608291093707685    
  0.07046552854777148    0.06727466886191352    0.08188570825577564    0.1144555489795044    0.16399152481320894    
  0.21996384985835812    0.26294933756306854    0.2784058510881714    0.2629493603910688    0.21996384825827214    
  0.16399153958231671    0.11445555168898747    0.08188572518477297    0.06727465835248478    0.07046554220751435    
  0.09608291538673941    0.15664400715333254    0.2624759866296933    0.3600660725396234    0.30821175471935197    
  0.16535613917656466    0.10983201070320561    0.060658185128403666    0.10983199432215877    0.2690805963562614    
  0.3651615137206518    0.27869057540530345    0.1665780755370787    0.10122257959921509    0.07361240857146426    
  0.07015373420015489    0.08584639227382236    0.12098520475077432    0.17445963212869117    0.2343057135614706    
  0.27931422428388    0.29516643281358546    0.2793142403509448    0.23430566995981755    0.17445963110567483    
  0.12098522051303315    0.085846395321659    0.07015372855496693    0.07361241747558958    0.10122260879819674    
  0.16657807897994684    0.2786905633111295    0.3651614578546848    0.2690805911214175    0.10983201640790026    
  0.060658185128403666    0.10597176035536304    0.16119194816668697    0.3051222249403665    0.3591064371483528    
  0.26169753313391    0.1548595072677751    0.09282163868307076    0.06492025268975406    0.057476221747670204    
  0.0639931612748131    0.08234559651010935    0.1108114010525004    0.14365633929575503    0.17052108680558467    
  0.1808788679949504    0.1705210889514489    0.1436562865376558    0.11081139675894881    0.08234560830428618    
  0.06399317039923799    0.05747620796319456    0.06492026045074477    0.09282164760517167    0.15485951267882256    
  0.2616975695065458    0.359106422038436    0.30512224324508735    0.1611919861345556    0.10597176035536304    
  0.16141865939236155    0.21642498209760924    0.3344585743658589    0.3501409823873086    0.24632033799580796    
  0.14589769469697814    0.088335395112805    0.06236864727264041    0.05543897957376526    0.06154942220793128    
  0.07866611988675093    0.10509816920228404    0.1355404327656425    0.16041970178631115    0.16999692339977446    
  0.16041973557649547    0.13554040006231144    0.10509818140038171    0.07866611437915282    0.06154941967833267    
  0.055438971350894595    0.06236865607503733    0.08833539112744895    0.1458977114965817    0.24632037758594913    
  0.3501409505754892    0.33445861400455534    0.2164249926814834    0.16141865939236155    0.3063621171431409    
  0.3353262531628323    0.3641164954563752    0.3079549821780894    0.2043799974306471    0.1227849223083608    
  0.0767829516111631    0.055734197820546054    0.050076718347584696    0.05510275975203807    0.06909300351364249    
  0.09042065811276521    0.11472555887904011    0.13449828187013155    0.14210767577786282    0.13449829000884733    
  0.114725556587086    0.09042066135627284    0.06909298519537592    0.055102766058288254    0.05007671071284477    
  0.05573420307702326    0.07678296305457098    0.12278490847091324    0.2043799901544212    0.3079550021165457    
  0.3641165037163783    0.3353262997133093    0.3063621171431409    0.36203636264952394    0.35244583868383894    
  0.30919901486587903    0.2306216904372864    0.15076511199720571    0.09436294400787067    0.062300430921355614    
  0.047260510654092716    0.04318052953240418    0.04685836330249282    0.05700880457207048    0.07217349692433599    
  0.08910201231585366    0.10272321732296125    0.10794802305491279    0.10272322892380525    0.0891020249097222    
  0.07217350593301608    0.057008792154908054    0.046858369381205744    0.04318053347287491    0.047260512528226016    
  0.06230043876425157    0.0943629249732949    0.150765120614139    0.23062167655448648    0.30919899157275654    
  0.35244580186259095    0.36203636264952394    0.2662107785819419    0.25014849784134097    0.20700450479911228    
  0.15207061746305162    0.10318019441581114    0.06898270497643619    0.048870571101991694    0.03915048957216452    
  0.036509026052722764    0.038997894950210485    0.045674277440102475    0.05537478946865201    0.06596413738483616    
  0.07433191591115916    0.07749599171000485    0.07433190404003169    0.06596414672447469    0.055374785267305424    
  0.04567427128790471    0.03899789996405673    0.03650902401676764    0.0391504884097227    0.048870579299485364    
  0.06898269356387743    0.10318020702703751    0.15207059039419385    0.20700448852949338    0.2501484985418582    
  0.2662107785819419    0.1612260825857485    0.15159525384014894    0.12705543309695144    0.0970334196700294    
  0.07018312432411496    0.050743289097271424    0.038804696720659115    0.032809832846508485    0.031159959053304757    
  0.03278039964536569    0.036936950475275544    0.04274930698250991    0.04893781934939919    0.05373289467084591    
  0.055525598772851514    0.05373288552771322    0.048937822895137796    0.04274929549127777    0.036936945409768294    
  0.03278040096510119    0.031159957660507467    0.032809834773359    0.03880470091816526    0.05074328974165334    
  0.07018312055169583    0.09703340941875652    0.12705544965801627    0.15159528315804924    0.1612260825857485    
  0.102089081557987    0.09687292189265277    0.08351094696971749    0.06689402267131814    0.051559954262055195    
  0.04000009887115508    0.03259703777937254    0.028723166877259267    0.027619556385281043    0.028664708599943207    
  0.03126534850273084    0.03477688355102853    0.03839100486508068    0.041147287577001486    0.042188607944049966    
  0.041147299255132816    0.038390996435212224    0.03477687859670456    0.03126534827002268    0.028664713307252152    
  0.027619547738350184    0.02872316567395814    0.03259703689880724    0.04000010377315453    0.05155994388256589    
  0.06689400678314318    0.08351094371388235    0.09687293083473854    0.102089081557987    0.07973633888706574    
  0.07615316782563153    0.06682849160167076    0.0550947462210526    0.044108809557451695    0.03557895269489345    
  0.029926142861209037    0.0268704327411616    0.0259299926697856    0.026600978137282672    0.028393919182591723    
  0.03081358988981843    0.033237929854535546    0.03506237512472424    0.035764622307701936    0.03506236756687957    
  0.03323793059715283    0.03081358788749154    0.02839392348504523    0.026600980638886378    0.025929993907913857    
  0.026870433101349154    0.029926144981363194    0.0355789469895423    0.04410881172088744    0.055094744791006865    
  0.06682847540899785    0.0761531629104286    0.07973633888706574    0.08370071074453436    0.07986486959284379    
  0.06983237197775892    0.057223130755062634    0.04548303711176387    0.03640173937943257    0.030386754554807334    
  0.027079483278126645    0.025916705446579473    0.02636471962721618    0.027914630012035913    0.030068458883578415    
  0.03224332611374656    0.033873275792608806    0.03449147534880416    0.03387329531625175    0.03224331757725643    
  0.030068458675732077    0.027914633669518102    0.026364723925653775    0.025916695309179113    0.027079481591506947    
  0.0303867576606727    0.0364017393289737    0.04548302999287965    0.057223127700598564    0.0698323812629479    
  0.0798648763471728    0.08370071074453436    0.11311517893762547    0.10713286467428407    0.09169732202190678    
  0.07261048951050017    0.05519664336409171    0.042124094525562546    0.0337124828035927    0.02911457763193857    
  0.027359467118115613    0.027686861391170194    0.029433738177735803    0.03195869446798059    0.03458950965572406    
  0.036568112959797734    0.0372949998870797    0.03656811696202053    0.03458951022321221    0.03195868764761492    
  0.029433734113124867    0.02768686442952862    0.02735947155435718    0.029114571154343145    0.033712491070484844    
  0.04212410006225523    0.05519663479739032    0.072610490198668    0.09169731923323701    0.10713289351444669    
  0.11311517893762547    0.1726437172993801    0.16221391333663973    0.1355207717962381    0.10292025541329122    
  0.07384900089025309    0.05273746493379637    0.039610667276838006    0.032642277316944406    0.029949431082090062    
  0.03020835553402952    0.03250950384523838    0.03599294349674425    0.03970407318646154    0.042533236999858136    
  0.04357159131840508    0.04253321268890765    0.039704083833350425    0.03599294284769089    0.03250950036932381    
  0.03020835729942541    0.029949429495565574    0.03264227473995813    0.03961067088427426    0.05273746022678313    
  0.07384899911216607    0.10292024730309991    0.13552078079531707    0.16221393002764303    0.1726437172993801    
  0.25794181981810976    0.2422689541048998    0.2004879856945849    0.14768163424986724    0.10065154516692554    
  0.06740264067609479    0.04742028601952118    0.0371466413994183    0.03322069966598047    0.03344617563059725    
  0.03656311482978534    0.04144820029262885    0.046740111242488135    0.05084092568164111    0.05236591402506839    
  0.05084094519225533    0.04674011757807103    0.0414482061751015    0.036563114811272696    0.033446178306710775    
  0.03322070231957558    0.037146627652803965    0.0474203039749485    0.0674026380670158    0.10065155784710933    
  0.14768162825112424    0.2004880046686785    0.24226896323182756    0.25794181981810976    0.33426110366174844    
  0.31882091046393074    0.2699069490416783    0.19827468821913802    0.13086511012081212    0.08346404266160093    
  0.05569420695887412    0.041752759254418174    0.03648667835388085    0.03670234685311765    0.04070062694240162    
  0.04711413467668354    0.05420149557889412    0.05976649314490342    0.061850321274686426    0.0597664951427811    
  0.05420149647722857    0.047114154483720014    0.04070063056786671    0.036702344265822646    0.036486673046938374    
  0.04175275867207002    0.055694225741057604    0.08346403978707731    0.13086510826465234    0.19827465218373216    
  0.26990697847398126    0.3188209717500907    0.33426110366174844    0.36375188640953526    0.3565084064837764    
  0.31678224040406067    0.23803571687501934    0.15544100399547767    0.09631465255558096    0.06214720058502262    
  0.04527613968738712    0.03895492642057608    0.03915673795201525    0.04383888657951316    0.05146486367972632    
  0.05999988111928099    0.06676999162673103    0.06932143063528037    0.06677001384269453    0.05999986044669597    
  0.05146486820569065    0.04383888989573002    0.03915675215706808    0.03895491665352687    0.045276143932335214    