#     DFTpy    
  CRYSTAL 
    
  PRIMVEC    
  4.445103448275861    0.0    0.0    
  0.0    4.445103448275861    0.0    
  0.0    0.0    2.4489655172413793    
  PRIMCOORD    
  4    1    
  Si    0.0    0.0    0.0    
  Si    2.2225517241379307    2.2225517241379307    1.2244827586206897    
  Si    0.0    2.2225517241379307    0.6122413793103448    
  Si    2.2225517241379307    0.0    1.8367241379310346    
  BEGIN_BLOCK_DATAGRID_3D    
  3d_datagrid_density    
  BEGIN_DATAGRID_3D#0    
  19    19    11    
  0.0    0.0    0.0    
  4.445103448275861    0.0    0.0    
  0.0    4.445103448275861    0.0    
  0.0    0.0    2.4489655172413793    
  0.04971542408608084    0.09986244895560192    0.29248599966140915    0.4893094047817713    0.5164920434061935    
  0.4935364599737433    0.48873438142308107    0.46397630980914284    0.40231994982919067    0.3678786430134972    
  0.40231994951952266    0.46397641047666605    0.48873441736732415    0.49353626226229996    0.5164922366407299    
  0.4893094515328217    0.2924859239464142    0.09986243593268948    0.04971542408608084    0.09986245011858548    
  0.15981507019922941    0.3389508985161534    0.47791678362862966    0.47698392520410055    0.4508692607550571    
  0.4511958392527319    0.4446617717837207    0.4078776212404586    0.3843015108732594    0.40787763778101904    
  0.4446618486121283    0.4511957884718609    0.4508692204875755    0.4769840768335544    0.477916885283146    
  0.3389509132938596    0.15981510048557598    0.09986245011858548    0.29248592143462077    0.3389509214198666    
  0.4197453746724788    0.4283640247812633    0.3820641939201362    0.3536495979204381    0.3619686506871005    
  0.38409193374398093    0.39333680974899793    0.3927107672162656    0.39333679476261624    0.3840920270610917    
  0.3619686220851289    0.35364947217670556    0.38206420930698304    0.4283639838051306    0.41974538486168256    
  0.3389509356069069    0.29248592143462077    0.4893094275678704    0.47791669955050786    0.4283639587089288    
  0.3492123325310044    0.2842159192946484    0.25773961622272046    0.26862959288150373    0.30220467500031617    
  0.3360132130174632    0.34974852865252154    0.3360131152971387    0.30220471001101556    0.2686296651503666    
  0.2577396121292884    0.2842160014548617    0.3492123494221843    0.4283639577494641    0.4779167763533596    
  0.4893094275678704    0.5164921405087234    0.47698414046872756    0.3820641958990306    0.28421602432205667    
  0.21976870805575904    0.19580857633341053    0.2064364158147149    0.24033009332392555    0.27768309657546186    
  0.29394155303808955    0.2776831112914494    0.24033016310520017    0.20643636758119796    0.19580856137447894    
  0.21976868529059532    0.2842160407199379    0.3820641265741994    0.47698406942913    0.5164921405087234    
  0.4935364009685323    0.45086932799375945    0.35364961207443435    0.2577396305581885    0.19580854326634656    
  0.1733914797347003    0.18428233080553352    0.21795648252061253    0.2552309417227576    0.2715161544222317    
  0.25523083624054704    0.21795647355658102    0.1842823495350705    0.17339145302909367    0.19580858190711728    
  0.2577396321649373    0.3536495057069814    0.450869324180232    0.4935364009685323    0.48873434188599874    
  0.45119572909840683    0.36196865928640026    0.26862960677666936    0.20643636185582206    0.18428237966524788    
  0.1963365561129709    0.23239959757331582    0.2728445928625348    0.2906200288860698    0.2728445708065326    
  0.2323996841622577    0.1963365666857476    0.18428233624288376    0.20643638563227953    0.2686296213274434    
  0.36196848067132764    0.45119585401062945    0.48873434188599874    0.4639764216471969    0.4446617854540062    
  0.38409197576291587    0.302204768822162    0.24033013990892407    0.21795646324162296    0.23239976185804423    
  0.27386248730350615    0.32036600203843446    0.3407071702524493    0.3203660051090299    0.27386254645633124    
  0.23239963339146935    0.21795646634573843    0.24033012102624146    0.30220481424439394    0.38409194948149145    
  0.44466186603771807    0.4639764216471969    0.40231989376484495    0.40787758761633364    0.39333676107275645    
  0.336013277696436    0.2776831188203171    0.2552309281827688    0.2728445274624162    0.32036598615217743    
  0.37312959597574713    0.39613389436829954    0.3731294844165657    0.3203660207961    0.27284455103355276    
  0.25523091031640205    0.2776831085755942    0.3360133032600696    0.39333669420016537    0.40787772739353334    
  0.40231989376484495    0.36787863013657146    0.38430151080470104    0.392710819599867    0.3497485094870957    
  0.29394154349070223    0.271516159692959    0.29062004224240545    0.34070707791105675    0.39613389310819547    
  0.4204322229645368    0.3961338082365469    0.34070707466715083    0.2906199614340484    0.27151610249360975    
  0.2939414927853872    0.34974849490756343    0.39271067159372525    0.38430153837839404    0.36787863013657146    
  0.40231996877455256    0.4078776551639021    0.3933366928225063    0.3360132193420658    0.277683069057097    
  0.25523088781261716    0.2728445699766918    0.3203659917007988    0.37312950363314473    0.3961338997604737    
  0.3731294922843524    0.3203660226676093    0.27284461868973675    0.25523086546309715    0.2776831274147083    
  0.33601330848304933    0.3933367148384106    0.4078776469651253    0.40231996877455256    0.46397640205271995    
  0.4446618105560469    0.38409196109378396    0.30220478229495934    0.24033011671527166    0.2179564734663284    
  0.23239964060408158    0.2738624807431808    0.3203660723476535    0.34070722366805617    0.32036596616653384    
  0.27386253147996154    0.23239966834183412    0.21795640921201287    0.24033016574510319    0.302204816212347    
  0.3840919826875502    0.44466183964220607    0.46397640205271995    0.4887343620140944    0.4511957568583268    
  0.361968595105529    0.26862968803005527    0.20643639028949287    0.18428238583106024    0.19633651808589403    
  0.232399593801646    0.27284454120872376    0.29062004477951764    0.2728446101936363    0.2323996378607599    
  0.19633656608283007    0.18428232566022698    0.2064363735836592    0.2686296395461077    0.36196860166815875    
  0.45119577734523325    0.4887343620140944    0.49353642879630794    0.45086928286371936    0.3536496050166613    
  0.257739653868133    0.19580856903462818    0.17339144584706465    0.18428239098039492    0.2179564364457132    
  0.25523089320443365    0.2715161439231021    0.2552308730748937    0.21795651165600785    0.18428236488064204    
  0.1733914634330245    0.19580857493316323    0.25773971627583425    0.35364951281301177    0.45086929787597824    
  0.49353642879630794    0.516492214957175    0.47698412877586915    0.3820641784678058    0.2842159901204097    
  0.21976865856820205    0.19580855775691647    0.20643637300673165    0.24033006169220852    0.2776831878791793    
  0.2939415699808512    0.27768314632120317    0.240330115093809    0.20643634534337346    0.19580855306607287    
  0.21976870205983545    0.28421597611587124    0.3820639688494976    0.4769841101662587    0.516492214957175    
  0.48930950963348463    0.4779166420086986    0.42836398308399865    0.3492123965716171    0.2842159239423253    
  0.2577396083993476    0.26862962910489263    0.30220469560658886    0.3360131212310507    0.34974856545316213    
  0.33601323014478907    0.30220475143669867    0.26862962004081614    0.25773957188272895    0.28421599321653673    
  0.34921240793581504    0.4283637494572711    0.4779168466970406    0.48930950963348463    0.2924860376859572    
  0.3389508712313232    0.4197454269163868    0.42836398410503124    0.3820641575800007    0.3536496246713631    
  0.36196864381154054    0.38409199621654383    0.39333664833021326    0.3927108617829229    0.3933367599420592    
  0.38409206116147465    0.3619686227590469    0.35364952383619785    0.382064173401815    0.42836413045648797    
  0.41974541311305036    0.3389510378285648    0.2924860376859572    0.09986244504312042    0.15981505530611423    
  0.3389509265791495    0.4779168520452837    0.47698404744458434    0.4508693336664412    0.45119579034122215    
  0.4446617486521802    0.40787766984832513    0.3843015577104262    0.40787765924324454    0.44466185015365695    
  0.4511957364189526    0.45086930325008634    0.47698405865418897    0.4779168091373464    0.3389508421571829    
  0.15981511225098943    0.09986244504312042    0.04971542408608084    0.09986244895560192    0.29248599966140915    
  0.4893094047817713    0.5164920434061935    0.4935364599737433    0.48873438142308107    0.46397630980914284    
  0.40231994982919067    0.3678786430134972    0.40231994951952266    0.46397641047666605    0.48873441736732415    
  0.49353626226229996    0.5164922366407299    0.4893094515328217    0.2924859239464142    0.09986243593268948    
  0.04971542408608084    0.09635905147896828    0.1531329760927447    0.31921414296448225    0.4378111372010768    
  0.42218825955107914    0.38858760564736294    0.3916337714819538    0.41841427694615113    0.4419400118178532    
  0.4495820126615144    0.4419399678393282    0.4184143698067993    0.39163374493957187    0.38858749336253084    
  0.42218839589346985    0.43781115114251035    0.3192140265227251    0.1531329469310438    0.09635905147896828    
  0.15905804932069983    0.21778551650972994    0.3581112744074722    0.42819005864464516    0.39378608199699694    
  0.3583146348635045    0.36159127775700867    0.3901976197635912    0.4174452403672655    0.4272113999394427    
  0.41744529137080283    0.3901976856602449    0.36159123164385765    0.358314614510668    0.39378616900232405    
  0.4281900980461783    0.3581112650397379    0.21778551611065666    0.15905804932069983    0.3572195646946348    
  0.3880005178569127    0.42389421683786277    0.39054747831560255    0.32581842134167066    0.2892542671012837    
  0.29247244303050085    0.32179886929559354    0.35375819728580493    0.3669615056705205    0.35375818949195603    
  0.32179896478857095    0.2924723910631242    0.2892541669926562    0.3258184346175883    0.3905474609643031    
  0.4238942749153323    0.38800057105877234    0.3572195646946348    0.5335995307968139    0.5091795945458387    
  0.43346836076322703    0.33359452812667334    0.25682129672769827    0.22217273834041393    0.2246655945592331    
  0.2514034840310433    0.2831460755659009    0.2972453296708421    0.283146051477402    0.2514035030380208    
  0.22466565728855714    0.22217268749329713    0.2568213312657415    0.333594557450972    0.43346832019190085    
  0.5091796277465485    0.5335995307968139    0.5656888705345342    0.5179251594717514    0.4054005101400737    
  0.29118140865256953    0.2151885319453126    0.18270279435867065    0.18474266996551222    0.20923838297832026    
  0.23865006506288916    0.25181107232072636    0.23865008774757138    0.20923846921322023    0.18474261771553313    
  0.1827027788629362    0.2151885622197792    0.2911814485014661    0.4054004389177431    0.5179251902173843    
  0.5656888705345342    0.5609588858134433    0.5121801587391606    0.39889240894414224    0.2851330916625601    
  0.209797827366863    0.1777797208991276    0.18002904886373727    0.2045691265142505    0.23397028073927226    
  0.247096888129879    0.23397024548838702    0.20456918537717497    0.18002904902977862    0.17777970509431837    
  0.20979791771647283    0.2851331069655069    0.3988923358686401    0.5121801526325039    0.5609588858134433    
  0.5385747596828595    0.506603394020252    0.4195258245647987    0.31555453889293694    0.23943667412947942    
  0.20613250194749635    0.20916841555978433    0.2363259147564879    0.26889776586953096    0.2834662648661874    
  0.26889779007250975    0.2363259414966595    0.2091684442338358    0.20613245995219281    0.23943675062091174    
  0.31555449646786554    0.41952564041612606    0.506603545068548    0.5385747596828595    0.4088631861164137    
  0.4228476486048329    0.4212848349401841    0.36339718552955524    0.29445045587151275    0.25974823685891807    
  0.2643226250089354    0.29606512519095973    0.3328413206781053    0.3488136739565471    0.332841369592874    
  0.29606515570302844    0.264322466850868    0.25974820461993    0.294450425218793    0.3633972969496369    
  0.42128488451799956    0.4228477059741927    0.4088631861164137    0.23396482589711895    0.28419149517217435    
  0.38035755712818237    0.3995463629670607    0.3500018102187735    0.3157307151954411    0.32200584913359515    
  0.3575861009779186    0.39710265225166225    0.41376059025945655    0.39710260245668055    0.3575860867942032    
  0.3220058709878669    0.31573066469721967    0.35000176323984467    0.3995463937633214    0.3803575135349853    
  0.28419157654118465    0.23396482589711895    0.16710642768326378    0.22347647717517802    0.3529661591037936    
  0.4108300015597935    0.37345609389979895    0.3401352354002435    0.34712696513662666    0.3837542867612788    
  0.42396217602324815    0.4408270423490427    0.42396209592083745    0.38375434179121537    0.34712694905106467    
  0.34013512818706143    0.3734561397849035    0.41082999099158934    0.35296600193738775    0.22347648157095604    
  0.16710642768326378    0.23396488191217638    0.28419154743027913    0.3803574865389122    0.3995463613854639    
  0.3500016990433573    0.3157306568296882    0.3220059203836668    0.3575860363652665    0.3971026002352263    
  0.4137605868593119    0.39710259393984515    0.3575861147585788    0.3220059148791843    0.3157306354325069    
  0.3500017788219958    0.3995464406931011    0.3803574464504623    0.2841915344550275    0.23396488191217638    
  0.40886319938027    0.4228475845536124    0.42128485530581844    0.3633972158103207    0.29445042695365514    
  0.25974821844245743    0.2643225163595719    0.29606506458578363    0.3328414061325656    0.34881368091470727    
  0.33284133860457954    0.29606515135340344    0.26432252635316955    0.25974817822519514    0.29445047635275917    
  0.36339715892689356    0.42128483005584455    0.42284764062677943    0.40886319938027    0.5385747672139753    
  0.5066034217717672    0.41952575756456395    0.3155545489378469    0.23943673419222888    0.20613247617504635    
  0.20916837847348585    0.23632589468799015    0.26889777598871883    0.2834663017989503    0.26889779503694616    
  0.23632593978596977    0.20916843539654217    0.20613247987690553    0.23943674692825634    0.31555450276813723    
  0.41952570197573213    0.5066034137874202    0.5385747672139753    0.5609589194154633    0.5121801047498122    
  0.39889243149135145    0.2851331356536855    0.20979784828960948    0.1777797045094348    0.18002910565366145    
  0.2045691361572491    0.23397028100079553    0.2470969156382522    0.2339702556666708    0.20456921266219827    
  0.18002906273007244    0.1777797204105617    0.20979788587069545    0.28513314611940527    0.3988923489845424    
  0.5121801525144664    0.5609589194154633    0.5656889013957122    0.5179250587869108    0.40540052341630706    
  0.29118141366701367    0.21518853272935318    0.18270277480762404    0.1847426171402373    0.2092383499665216    
  0.23865012591136267    0.25181109231476984    0.23865007209391473    0.2092384230680021    0.1847425906904944    
  0.18270278965715775    0.21518858285958056    0.2911813884488459    0.4054004094359959    0.5179251742491155    
  0.5656889013957122    0.5335995218478192    0.5091794826769818    0.43346831138854175    0.33359458303023876    
  0.256821291997831    0.22217276808973047    0.22466564129000138    0.25140346582910333    0.28314601604771483    
  0.2972453287676524    0.28314607499072525    0.25140349514777566    0.22466563615798973    0.22217269639656628    
  0.2568213778194622    0.3335945782059583    0.4334681287133645    0.5091796224604662    0.5335995218478192    
  0.35721964428370556    0.38800053504455945    0.4238943025816875    0.3905474815011181    0.3258184483212809    
  0.28925430246326056    0.29247247119969644    0.3217988918959017    0.35375811241567057    0.36696154881842624    
  0.35375817240639174    0.32179888916978594    0.29247238911088314    0.28925420045040756    0.32581842712896475    
  0.39054757722023886    0.4238942769757758    0.38800059392398584    0.35721964428370556    0.1590580175169853    
  0.21778545371048694    0.35811131103829663    0.4281900635364779    0.39378613132661733    0.3583146615024197    
  0.3615912582655653    0.3901975917815432    0.41744529056725266    0.42721138756418164    0.4174452634224559    
  0.3901976349128632    0.36159123209518856    0.3583146468704178    0.3937861143245943    0.4281900537514685    
  0.3581112726812331    0.21778556885945086    0.1590580175169853    0.09635905147896828    0.1531329760927447    
  0.31921414296448225    0.4378111372010768    0.42218825955107914    0.38858760564736294    0.3916337714819538    
  0.41841427694615113    0.4419400118178532    0.4495820126615144    0.4419399678393282    0.4184143698067993    
  0.39163374493957187    0.38858749336253084    0.42218839589346985    0.43781115114251035    0.3192140265227251    
  0.1531329469310438    0.09635905147896828    0.2679849253555162    0.31013560920187505    0.3815224347000659    
  0.38108703333182786    0.3297955576864539    0.3005200378815288    0.3128044388808125    0.3561732788910236    
  0.40516878869585354    0.4265831284946988    0.4051687715723379    0.35617331097556    0.31280440256064745    
  0.30051999296546383    0.3297956453265162    0.38108704133949806    0.38152233107097444    0.3101355663570607    
  0.2679849253555162    0.32532020255128913    0.3558939811225919    0.3948602427337784    0.3682158950036718    
  0.31043579643757835    0.28083575315252646    0.29189087480650244    0.3330319512369757    0.37970206990786737    
  0.40002362989522483    0.3797020861544339    0.3330319715948104    0.2918908451180657    0.2808357325809941    
  0.3104358689323511    0.3682159997184824    0.39486020171198943    0.3558940017849901    0.32532020255128913    
  0.4497585956036888    0.4451245332629529    0.40828209691173606    0.33305659067185234    0.2652121923331909    
  0.23556579202522954    0.24398268104811982    0.27952494875694667    0.3206263033199628    0.33867732414291984    
  0.3206263456162984    0.2795250437224852    0.2439826776156754    0.23556570976545274    0.265212164113742    
  0.33305659538966    0.4082821403182012    0.44512455365260517    0.4497585956036888    0.5234651626776798    
  0.4866616073831041    0.3946676767002841    0.2930422467293265    0.22209156918936554    0.1932023047024048    
  0.19957258347001586    0.2298594789709001    0.26523970535764174    0.2809556932555293    0.26523973166062903    
  0.22985945706800262    0.1995725861869642    0.19320224275688683    0.22209160538229442    0.29304226905905834    
  0.39466764956407363    0.4866616914126069    0.5234651626776798    0.5355826076076152    0.48858092710874723    
  0.38071856288895467    0.27346037046557764    0.20305227334594791    0.17453310573881053    0.1798445563075068    
  0.20751433406322903    0.23952558571367924    0.2536634840671376    0.2395255982196621    0.20751440585971503    
  0.179844541327443    0.17453306457401047    0.20305233138802734    0.2734604149613916    0.38071851394263384    
  0.4885809398196787    0.5355826076076152    0.5497179815189825    0.5053119646239133    0.3993958742826838    
  0.2908198828229893    0.21860690572163435    0.1888493436374878    0.1937112131607911    0.22134156424639737    
  0.25340409064043823    0.26760341647223784    0.2534040539132734    0.22134155100386263    0.19371118860635003    
  0.18884930896124208    0.21860695154744217    0.2908199011076199    0.3993958429029549    0.5053119920931418    
  0.5497179815189825    0.5144976375938725    0.49772014626890176    0.4359514976278725    0.3452079989588672    
  0.2723658488364395    0.23996799993458637    0.24505302365879691    0.27402824221487054    0.30642712569384617    
  0.32040583921534205    0.306427125457548    0.2740283332918355    0.24505303208024948    0.23996798358071209    
  0.27236593586086116    0.3452080050119847    0.43595129470862226    0.4977202440269412    0.5144976375938725    
  0.31423069253818653    0.35604319020404473    0.4214030037760007    0.412673768634742    0.3562743677423133    
  0.32174017704005986    0.3262651674579516    0.35306486358581907    0.3769361123362749    0.3851238878234904    
  0.37693617596429824    0.3530649368911187    0.32626502940561863    0.321740117648456    0.3562743565586361    
  0.4126738483028391    0.4214029348341858    0.3560432193189223    0.31423069253818653    0.11463749523042623    
  0.17442097076304436    0.3408832852545512    0.4542017214377708    0.43787231304232926    0.40519908937152294    
  0.4068211905127262    0.4229757909422572    0.4263768520134533    0.4230070230759213    0.4263768302451769    
  0.4229758300809491    0.40682129049378396    0.405199098146003    0.43787222658202557    0.45420176825505376    
  0.3408833055338148    0.17442104003082323    0.11463749523042623    0.0601750287405035    0.11211880465922092    
  0.29546346756510966    0.4633988514252089    0.4717964141469167    0.44189614253348936    0.44154201943031723    
  0.4498457072440513    0.4407445819509057    0.4310256449432179    0.4407444151020519    0.44984578788520074    
  0.4415420591263566    0.44189606101235296    0.47179647462967383    0.46339883801595966    0.2954634076682008    
  0.11211882983844496    0.0601750287405035    0.11463750519768849    0.1744210760324428    0.3408832585287796    
  0.45420168202555866    0.43787221320642045    0.40519909190896397    0.4068212913701127    0.4229757838646762    
  0.42637684019373623    0.4230070011137172    0.4263767713674834    0.4229757684759232    0.40682135947314824    
  0.40519899652300295    0.437872307232454    0.4542017964866138    0.3408832961442782    0.17442100354226484    
  0.11463750519768849    0.3142306856639797    0.3560431416816875    0.42140307894062246    0.41267377213512296    
  0.3562743505156637    0.3217401548918828    0.32626515115075083    0.353064834853708    0.3769361867171938    
  0.38512397367214385    0.3769361128342824    0.35306491692114805    0.3262650503607815    0.3217400886140539    
  0.3562744126672399    0.41267382237757927    0.4214029602117714    0.35604322391107085    0.3142306856639797    
  0.5144976936849236    0.4977202059413866    0.4359515083302266    0.34520801355718633    0.27236590807386485    
  0.23996796609644006    0.24505304678095768    0.27402825717392004    0.30642708855156797    0.3204058993616882    
  0.30642718490350396    0.27402830254442506    0.24505308107429424    0.23996795014145217    0.2723659123353544    
  0.3452079573218832    0.435951397809776    0.4977202049808884    0.5144976936849236    0.5497180424249756    
  0.5053119623257992    0.39939590786013907    0.29081996377924596    0.21860695676916359    0.18884929806858602    
  0.19371125825525864    0.22134155108914347    0.2534041137522994    0.267603482704699    0.25340403871351097    
  0.2213416139046068    0.19371124714538487    0.1888493134856417    0.21860699249953652    0.2908199815908461    
  0.3993957640027413    0.5053120687993111    0.5497180424249756    0.5355826116457257    0.48858083768513827    
  0.3807185077538546    0.2734603623877845    0.2030522854576009    0.174533076596143    0.179844558432248    
  0.20751430539821272    0.23952560334830983    0.2536634964055894    0.23952553582498842    0.20751433450580034    
  0.17984449079806744    0.17453309469002118    0.20305235521706233    0.27346035373593053    0.38071844398997295    
  0.4885809582108808    0.5355826116457257    0.5234651147293929    0.48666160322622803    0.39466769299198623    
  0.29304224414829516    0.2220915519946654    0.19320233730616082    0.19957256266312443    0.22985946808276758    
  0.2652396276125666    0.28095567580586106    0.265239736787983    0.22985949037265987    0.199572582070143    
  0.19320223071745202    0.2220916134261269    0.2930422378559883    0.39466752309462017    0.48666163538287316    
  0.5234651147293929    0.44975864600797083    0.44512458311449005    0.4082821163868256    0.3330565512970572    
  0.26521212111710424    0.2355658369893515    0.24398273959305042    0.27952498456751623    0.32062625678220147    
  0.3386773262664954    0.3206263180755615    0.2795250227689599    0.24398269977785086    0.23556577673215662    
  0.2652121469257481    0.33305672462375596    0.4082821116052027    0.44512465245042343    0.44975864600797083    
  0.32532015873060643    0.35589391313322616    0.39486032758358713    0.36821597118061483    0.310435830497221    
  0.28083578064041553    0.2918908421003365    0.33303196624305137    0.37970204940161434    0.4000236177624217    
  0.37970207697806735    0.3330319922998951    0.2918908265270931    0.28083576379695974    0.3104358028774674    
  0.368215963003324    0.39486018584957366    0.35589402892067484    0.32532015873060643    0.2679849253555162    
  0.31013560920187505    0.3815224347000659    0.38108703333182786    0.3297955576864539    0.3005200378815288    
  0.3128044388808125    0.3561732788910236    0.40516878869585354    0.4265831284946988    0.4051687715723379    
  0.35617331097556    0.31280440256064745    0.30051999296546383    0.3297956453265162    0.38108704133949806    
  0.38152233107097444    0.3101355663570607    0.2679849253555162    0.4310249473617375    0.42300775377080024    
  0.3851231038523317    0.3204065285846308    0.2676027777123259    0.25366409160722375    0.2809550601671221    
  0.33867793426700893    0.40002284637367436    0.4265839053691789    0.4000227971787947    0.3386779829907603    
  0.280955048006245    0.2536640463524776    0.26760284557075653    0.3204064974019979    0.3851229558191347    
  0.4230077340721482    0.4310249473617375    0.4407453520965234    0.42637615259232065    0.3769367847174678    
  0.3064264952705593    0.2534046270281615    0.23952500117169057    0.2652403474877244    0.32062560197372003    
  0.3797027813049148    0.4051681307184082    0.3797027697795263    0.32062567086761473    0.2652402964699672    
  0.2395249900755691    0.253404665229242    0.30642655633897153    0.3769367533265407    0.42637616105887904    
  0.4407453520965234    0.4498450489205359    0.42297657316089793    0.35306417787445726    0.27402892616354435    
  0.22134107501049066    0.20751488275958713    0.22985898775585145    0.2795255693031988    0.33303130392878505    
  0.35617405013908937    0.33303133073201757    0.27952564845326416    0.22985895114142757    0.2075148306346236    
  0.22134106218888078    0.27402892034812065    0.3530641610814096    0.4229765850175986    0.4498450489205359    
  0.4415427967486166    0.4068205527262557    0.3262657831300002    0.24505244530568554    0.1937117195627048    
  0.17984402051627985    0.1995731127259332    0.24398205797133865    0.2918914528017138    0.3128037588986979    
  0.291891489642022    0.24398204774696966    0.19957314231383824    0.1798440029486558    0.1937117538604138    
  0.24505244550061098    0.3262657064932302    0.4068205996843957    0.4415427967486166    0.4418953535297716    
  0.4051998796264542    0.32173950077620905    0.23996864828119488    0.18884875793754197    0.17453361416758653    
  0.19320178680309485    0.23556639168252694    0.2808351159954032    0.30052068124832926    0.280835126771445    
  0.23556648412045902    0.1932017715241667    0.1745335847966874    0.18884880751694    0.2399686466582366    
  0.32173948454319584    0.4051998994596756    0.4418953535297716    0.47179726506475445    0.43787146217730605    
  0.3562750566606917    0.27236525944359413    0.2186074915018317    0.20305177826635856    0.22209213797129862    
  0.2652114599626579    0.3104365393096523    0.32979492633283813    0.31043648608142166    0.2652114730991789    
  0.22209213862696345    0.20305174053576328    0.21860752494191846    0.2723653127479446    0.3562750208123463    
  0.4378715200919799    0.47179726506475445    0.4633979925353096    0.45420242566386154    0.41267307760298066    
  0.3452087025286912    0.2908191911554339    0.27346092690643686    0.2930415787373037    0.33305715989824614    
  0.36821517084958727    0.3810877564480492    0.3682151780725434    0.33305728120547234    0.29304158741413344    
  0.27346090513158455    0.29081926501194216    0.3452086742579515    0.41267289508604743    0.45420250777819604    
  0.4633979925353096    0.29546404371293694    0.34088264085981784    0.4214037599013184    0.4359507063471359    
  0.39939663111761575    0.3807178087024841    0.394668477454664    0.4082813320544058    0.3948610059133813    
  0.3815217855150591    0.3948610692463183    0.4082814395537459    0.3946683446851521    0.38071776383240086    
  0.3993966486214853    0.4359507957462283    0.42140368689275487    0.340882665074458    0.29546404371293694    
  0.11211836708164173    0.17442153741211455    0.35604247338059153    0.4977210586663585    0.5053111890554367    
  0.488581657294925    0.4866607287421813    0.4451253113360829    0.355893247969474    0.3101363132860196    
  0.35589322833671955    0.44512533100884516    0.48666082800533583    0.48858167186922025    0.505311150177912    
  0.4977211507062436    0.356042474075107    0.17442156738103357    0.11211836708164173    0.060175394554085555    
  0.11463703271364574    0.31423144302099676    0.5144968692476422    0.5497188107658331    0.5355817002045059    
  0.5234660094684305    0.4497577215000892    0.32532090605775565    0.2679843007864131    0.3253207581580301    
  0.4497578054136477    0.5234659911184129    0.5355816049724132    0.5497188490463077    0.5144968379162748    