#     DFTpy    
  CRYSTAL 
    
  PRIMVEC    
  3.848    0.0    0.0    
  0.0    3.848    0.0    
  0.0    0.0    2.12    
  PRIMCOORD    
  4    1    
  Si    0.0    0.0    0.0    
  Si    1.924    1.924    1.06    
  Si    0.0    1.924    0.53    
  Si    1.924    0.0    1.59    
  BEGIN_BLOCK_DATAGRID_3D    
  3d_datagrid_density    
  BEGIN_DATAGRID_3D#0    
  17    17    11    
  0.0    0.0    0.0    
  3.848    0.0    0.0    
  0.0    3.848    0.0    
  0.0    0.0    2.12    
  0.054650410753010706    0.11067810108066077    0.3443755704414902    0.6436125268490992    0.7509413996543601    
  0.7209066851701527    0.6037726071523555    0.4507939493964199    0.383314946249148    0.4507939439574432    
  0.6037725963870845    0.7209065794023357    0.7509413849608269    0.643612531046808    0.3443756255099911    
  0.11067812338882774    0.054650410753010706    0.11067813725271451    0.1791596570111666    0.4041024758699181    
  0.6334714948303231    0.6978220360319969    0.673553060629034    0.5940249059265247    0.4805449289134145    
  0.4265506071062809    0.48054489632885783    0.594025020101062    0.6735529436579136    0.6978221111440891    
  0.6334717057451678    0.40410244581548266    0.1791596640026858    0.11067813725271451    0.3443756421698415    
  0.40410243709312593    0.5281535577591697    0.5884133811424799    0.5737188993244785    0.5585057219134835    
  0.5484249305357916    0.5220779185884491    0.5046567417045157    0.5220779248453294    0.5484249202719617    
  0.5585057581032331    0.5737188205250148    0.5884133789171172    0.5281535790501511    0.40410249218778105    
  0.3443756421698415    0.6436125196055494    0.633471484753244    0.5884133100337547    0.5122555374259321    
  0.45320964100379957    0.44418566105809143    0.47508746126768386    0.5118649343577619    0.5268685607242264    
  0.511864915226586    0.4750874150285278    0.44418561977750326    0.45320963484737914    0.5122556468522561    
  0.5884132817296482    0.6334716126155119    0.6436125196055494    0.750941359650824    0.6978221752804387    
  0.5737188973849924    0.4532096973068398    0.38638042189126726    0.3818546224118881    0.42512955866997826    
  0.4832623351317852    0.5106807958791187    0.48326240938448695    0.42512958188112615    0.381854586587587    
  0.3863803281283312    0.45320984656399915    0.5737189431590148    0.6978220793333556    0.750941359650824    
  0.7209066162870711    0.6735529513537319    0.5585055793494693    0.4441856478910857    0.3818544787224848    
  0.38079811463444063    0.428858110890126    0.4934671001119004    0.524131740812784    0.49346713797937086    
  0.42885821416063286    0.38079798982899876    0.3818545301450097    0.4441857123190858    0.5585056438368038    
  0.6735529965145041    0.7209066162870711    0.6037726789018084    0.5940251046954339    0.5484250427878038    
  0.4750874230361393    0.425129568046905    0.42885821357857307    0.48164849610327704    0.5492327203016116    
  0.5803787511498899    0.5492326994922416    0.48164853161764143    0.4288582047640957    0.42512957320636935    
  0.4750874560959323    0.5484249522378299    0.5940250884702866    0.6037726789018084    0.4507938620850208    
  0.4805448579665669    0.5220778947797573    0.5118649948615189    0.48326234724167555    0.4934671903030092    
  0.5492327192143358    0.6163031879794443    0.6462170144324209    0.6163031592430176    0.5492326258355628    
  0.493467094108571    0.4832624140446689    0.5118650126140527    0.522077932692707    0.4805448655939286    
  0.4507938620850208    0.38331488675946856    0.42655062610271666    0.504656748495843    0.5268684564977469    
  0.5106807363694121    0.5241317905197385    0.5803787521401741    0.6462170212691468    0.675196310295852    
  0.6462170271492064    0.5803787590665774    0.5241317304569095    0.510680809977303    0.5268685581224579    
  0.5046566785885855    0.4265506951552218    0.38331488675946856    0.45079392027391585    0.48054492195991666    
  0.522077960524959    0.5118649629135429    0.4832623903632326    0.4934672333185138    0.5492326222428816    
  0.6163032053690893    0.6462168808570488    0.6163032261075073    0.5492327084697676    0.4934671820169388    
  0.4832623235798288    0.5118649486815541    0.5220778746337055    0.4805448394320807    0.45079392027391585    
  0.6037725849218755    0.5940250158981258    0.5484248899240743    0.4750874176046365    0.42512960769114383    
  0.4288582043496741    0.4816485294513419    0.549232749700956    0.5803787382607659    0.5492327000448133    
  0.4816485025908049    0.4288581890373683    0.42512959133410777    0.47508747703160276    0.5484250311897645    
  0.594025023493956    0.6037725849218755    0.7209065417135757    0.6735530527626216    0.5585056840505469    
  0.44418564788105724    0.38185455061880785    0.3807980388706802    0.4288581804946864    0.49346708119308397    
  0.5241316750609906    0.49346718101948994    0.4288581244660942    0.38079805495135083    0.3818545111826856    
  0.4441857055107366    0.5585057069203607    0.6735529257209016    0.7209065417135757    0.7509414238847901    
  0.6978221665251719    0.5737188872597128    0.45320967081532265    0.3863803536445335    0.3818545772805363    
  0.42512951539469784    0.4832623682876975    0.5106807686906508    0.4832624698194078    0.42512959454494403    
  0.3818546011772346    0.38638031973710796    0.45320969783153836    0.5737188961654937    0.6978220734042268    
  0.7509414238847901    0.6436126522176946    0.6334715026137423    0.5884131882103336    0.5122556104989138    
  0.45320966697556775    0.44418572559639014    0.4750873912737067    0.5118649949845673    0.5268684572762794    
  0.5118649406293908    0.47508738294546876    0.4441856206847085    0.45320973050370333    0.5122555883349184    
  0.5884132499517001    0.6334715797504368    0.6436126522176946    0.34437563037859587    0.40410251050809887    
  0.5281534770289974    0.5884132773225492    0.5737188517723737    0.5585057002926206    0.5484249678014613    
  0.5220778791501117    0.5046567536617631    0.5220779232624952    0.5484249213166255    0.5585057485862877    
  0.5737188850897966    0.5884133192138731    0.5281535857915589    0.40410248406578025    0.34437563037859587    
  0.11067807863632546    0.17915968978503866    0.40410249620403565    0.6334715919933734    0.6978221716465491    
  0.6735530280756893    0.5940249841739004    0.4805448581226695    0.42655064261257236    0.48054498509103905    
  0.5940249915505337    0.6735530413742311    0.6978219754706887    0.6334715175289491    0.4041024571546237    
  0.17915967543811148    0.11067807863632546    0.054650410753010706    0.11067810108066077    0.3443755704414902    
  0.6436125268490992    0.7509413996543601    0.7209066851701527    0.6037726071523555    0.4507939493964199    
  0.383314946249148    0.4507939439574432    0.6037725963870845    0.7209065794023357    0.7509413849608269    
  0.643612531046808    0.3443756255099911    0.11067812338882774    0.054650410753010706    0.09481957033344332    
  0.15789314668374152    0.3701038677511493    0.5873308388121908    0.6470908091844965    0.6433623226981753    
  0.6338733164467585    0.6118164711855385    0.5971751711966193    0.6118165030900251    0.6338734156555875    
  0.643362369806856    0.6470908589820575    0.5873308860474661    0.37010392755292193    0.15789315688214933    
  0.09481957033344332    0.1648775902018964    0.23406287495814881    0.42537038062167515    0.580228417515307    
  0.6056026280633514    0.5985648095475311    0.6003079270745838    0.5949841108968863    0.5884826419003961    
  0.5949840127528446    0.6003079974336765    0.5985646291386011    0.6056026373183778    0.5802285135855715    
  0.42537033631616844    0.23406288231017208    0.1648775902018964    0.4165905682400193    0.46227300421246664    
  0.5398891926838169    0.5491743014387629    0.5111195599903091    0.49704502321569927    0.5173182685870054    
  0.5433274377647569    0.5532610214009165    0.5433274136462342    0.5173181691387124    0.4970451349601309    
  0.5111195596188471    0.5491743084380987    0.5398892089784637    0.46227299649004777    0.4165905682400193    
  0.7087661852706341    0.6836847504923927    0.6045186070019728    0.4991557373780177    0.42418013008666566    
  0.406199147523313    0.4351555863655464    0.4790978535689023    0.49981426054825967    0.479097969875415    
  0.4351555311423898    0.4061991272163325    0.424180077253304    0.4991557123091487    0.6045186244632881    
  0.6836847722459342    0.7087661852706341    0.8105016402811628    0.7506501981213625    0.6091630169263772    
  0.4691898015092878    0.38645136125770024    0.3685464681461055    0.39934438697330205    0.44774064820640325    
  0.47155886817259207    0.44774064393643254    0.39934441447237035    0.3685464338750895    0.38645130009150247    
  0.4691898964621754    0.6091630954264463    0.7506500676257136    0.8105016402811628    0.7308543764681512    
  0.696145529960769    0.598849062249446    0.4839566072926653    0.4085461767687505    0.3924457050181386    
  0.4244322604701395    0.4732934877690567    0.4968688125990956    0.4732935512125543    0.42443227292419405    
  0.39244563532980087    0.40854622559244397    0.48395673298683206    0.5988490437818357    0.6961455318089359    
  0.7308543764681512    0.48164017081005767    0.5117155763192034    0.5487824981603063    0.5251618301170367    
  0.4785801244804622    0.46799794760681257    0.4993157900912369    0.5424763607892048    0.5617290869531248    
  0.542476304507617    0.4993158814399649    0.4679978701333524    0.47858014998888054    0.5251619179166253    
  0.5487824301483494    0.5117155908431175    0.48164017081005767    0.2370329500874967    0.3026346518280685    
  0.4578643558109634    0.5563021791190101    0.5586327026012239    0.5567502526134519    0.5826319055136583    
  0.6126565700860473    0.6241590663300536    0.612656526926866    0.5826319204967989    0.5567503022212842    
  0.5586326337741244    0.5563021857833793    0.4578644240104832    0.3026346733265119    0.2370329500874967    
  0.15739920927224635    0.22455540518602612    0.4116496095233455    0.5653009908556531    0.5944631102678295    
  0.596911043087794    0.6187235887650692    0.6411935653912121    0.6485735224326089    0.6411935774461343    
  0.6187236897261906    0.5969109451313948    0.5944631131024577    0.5653011818451262    0.4116496335813224    
  0.22455541478501284    0.15739920927224635    0.2370329180048651    0.3026346700688922    0.4578644704282448    
  0.5563021181888538    0.5586326277687433    0.5567504206040393    0.5826318645978446    0.6126566174324367    
  0.6241589289845143    0.6126565416475074    0.5826319456213539    0.5567502615231182    0.5586325990484594    
  0.5563021542359002    0.45786439746768337    0.3026346618453175    0.2370329180048651    0.481640097687505    
  0.5117155601968053    0.5487824669185642    0.5251618713190758    0.4785801589089563    0.46799789080023035    
  0.4993158298209607    0.5424763687077157    0.5617290965969812    0.5424763708644494    0.49931574607909013    
  0.46799784104905773    0.47858018839992755    0.5251619379464763    0.5487825344169049    0.5117155838634532    
  0.481640097687505    0.7308543484420457    0.6961455376658585    0.5988491466136965    0.48395666649231023    
  0.40854618774659857    0.3924457032263858    0.42443226657116256    0.47329344018634145    0.49686887688579273    
  0.47329348960499806    0.42443226116591865    0.39244567804262587    0.4085461730062696    0.48395664018599754    
  0.5988492241690154    0.6961454602043258    0.7308543484420457    0.8105015563139285    0.7506501981353432    
  0.6091630085353162    0.46918977019105135    0.3864513368337157    0.3685464550085946    0.399344402723057    
  0.4477406645300993    0.471558916870571    0.4477407136193982    0.3993444600619823    0.36854642654709424    
  0.3864513307077228    0.4691898844818881    0.6091629643011688    0.7506500746565934    0.8105015563139285    
  0.7087663699625292    0.6836847493136633    0.6045184949464218    0.4991557820821219    0.424180129657418    
  0.40619920755179906    0.43515547599250876    0.4790979331664631    0.4998141368395273    0.47909788981586965    
  0.4351555423570526    0.4061991832647652    0.42418018882606817    0.499155756155924    0.6045185139389123    
  0.6836847170111185    0.7087663699625292    0.41659057076829936    0.4622730244170105    0.5398891882254333    
  0.5491741599012631    0.5111195524880469    0.4970450806528309    0.5173182833744654    0.5433274710698455    
  0.553261002128342    0.543327371207033    0.5173182904230839    0.497045052727958    0.511119485268886    
  0.5491742536632531    0.5398891992426608    0.46227295343313035    0.41659057076829936    0.16487753269792788    
  0.23406290771133179    0.42537042093570776    0.5802284900215613    0.6056026881181382    0.5985646874162441    
  0.6003079570205377    0.5949840165104131    0.5884827078101952    0.5949841045348279    0.6003080292383284    
  0.5985647108875374    0.6056026617380769    0.5802284940904018    0.4253703905170235    0.234062906320096    
  0.16487753269792788    0.09481957033344332    0.15789314668374152    0.3701038677511493    0.5873308388121908    
  0.6470908091844965    0.6433623226981753    0.6338733164467585    0.6118164711855385    0.5971751711966193    
  0.6118165030900251    0.6338734156555875    0.643362369806856    0.6470908589820575    0.5873308860474661    
  0.37010392755292193    0.15789315688214933    0.09481957033344332    0.25728284377668476    0.3192261220201481    
  0.4604081101184025    0.5453837864332666    0.547932495516809    0.5556196551170235    0.5980785140903625    
  0.6484520801244775    0.6700094217271618    0.6484520621769764    0.5980785416119678    0.5556195970307499    
  0.5479325120764638    0.5453839737518063    0.46040813110451867    0.3192261933410175    0.25728284377668476    
  0.33813539102225365    0.39066451910119776    0.4933433353904699    0.5334929512368003    0.5168787700258013    
  0.5204281304478139    0.5633619839464822    0.6163637417477067    0.6396135784043389    0.6163636104277534    
  0.5633620096968761    0.5204279696394809    0.5168787666085313    0.5334930470009387    0.49334326988300997    
  0.39066451436779115    0.33813539102225365    0.5497380854933396    0.5599142822306176    0.5528475639448694    
  0.49992531538461127    0.44917253626774956    0.4445446510396461    0.4863421058113872    0.5427830831412686    
  0.5688562305922266    0.5427830578422126    0.486342101501378    0.4445446269504026    0.44917241458817064    
  0.4999253418482632    0.5528475927989622    0.5599143295734174    0.5497380854933396    0.736086697784462    
  0.6932843516907476    0.5830072055373391    0.4649294056735946    0.3940197685835966    0.3837645874292222    
  0.4220901216448722    0.4776962984337343    0.504510449530832    0.47769623279964507    0.42209010454785273    
  0.3837645629846285    0.39401971463557023    0.4649295253063959    0.5830073463029105    0.6932843269518703    
  0.736086697784462    0.7894103169878007    0.7319341241814771    0.5966187937045045    0.46356430083116623    
  0.3864081129843019    0.37311015203801606    0.4081374257758139    0.4597894898938175    0.4848006526043274    
  0.4597894740050706    0.4081374773422138    0.3731101736275194    0.3864080495983996    0.4635643359265975    
  0.5966187628265438    0.7319339572581851    0.7894103169878007    0.6771616466865363    0.6608500803216093    
  0.6004301563139006    0.508905505908558    0.4395589837083262    0.4239545357436854    0.45273415023301633    
  0.4928842412505927    0.5108244753255856    0.4928842498477223    0.4527341606885409    0.42395453697120733    
  0.43955901589628416    0.5089056158640813    0.6004300888423262    0.6608500620699849    0.6771616466865363    
  0.36848465745115166    0.4238584730685909    0.5315168780030171    0.5707059123325643    0.5439653752193016    
  0.5285158755995341    0.5354315886933649    0.538442776648513    0.535985958542449    0.5384425870737942    
  0.5354316654351668    0.5285158155309122    0.5439653900691274    0.5707060573700227    0.5315169430511715    
  0.42385853429005177    0.36848465745115166    0.12425609560506147    0.1927138366699138    0.40534457386798667    
  0.6059436440689424    0.6537376210646982    0.6398898279268395    0.6068770881424423    0.552120812621931    
  0.5221805539837222    0.5521208805511751    0.6068771999583384    0.6398898763078901    0.6537375929732862    
  0.6059435446660552    0.40534451283159134    0.19271386500271986    0.12425609560506147    0.06371013213357403    
  0.12124969721062484    0.3456921936889907    0.6131299187856964    0.7012440500097099    0.68761302612836    
  0.6319275037579125    0.5482279225870608    0.5060001610610978    0.548227964432406    0.6319275613815065    
  0.6876128925396936    0.7012440503345133    0.6131300921382109    0.3456922519012187    0.12124970823701345    
  0.06371013213357403    0.12425609883903445    0.1927138666894502    0.4053445772559834    0.6059435633706804    
  0.6537376272701024    0.6398899805792121    0.6068770764508618    0.5521208539057723    0.5221804753690057    
  0.5521208351349441    0.606877179278394    0.6398897937627049    0.6537376202741357    0.6059436895498376    
  0.4053446154523689    0.1927138354987163    0.12425609883903445    0.3684846869640621    0.4238585349124691    
  0.5315168503950308    0.5707059952862389    0.5439653915528702    0.5285157859209758    0.5354316323392355    
  0.5384427002540687    0.5359859436183085    0.538442596849155    0.5354315488261872    0.5285158536893133    
  0.5439654165426827    0.5707060569614998    0.5315168971010473    0.42385846025379964    0.3684846869640621    
  0.677161711554165    0.6608501354444888    0.6004301079542446    0.5089054697452868    0.43955897139955674    
  0.4239545853816952    0.4527341695888309    0.4928842366877958    0.5108245509018531    0.4928842514386602    
  0.4527341613471439    0.4239545697978164    0.4395589669032352    0.508905634078794    0.6004301159852518    
  0.6608500863494654    0.677161711554165    0.7894104699317144    0.731933937490097    0.596618820369658    
  0.46356425648439614    0.38640807405969435    0.3731101558388912    0.4081374693535885    0.4597894932638189    
  0.48480070823006444    0.459789540596753    0.4081374495905186    0.37311015138983267    0.38640810715916163    
  0.46356438286622953    0.5966187648375632    0.7319338722507455    0.7894104699317144    0.7360867436643672    
  0.6932843614135058    0.5830070698513944    0.46492946575280636    0.39401978817838235    0.38376459416675746    
  0.4220900517343935    0.47769625467417404    0.5045103359584054    0.4776962062791259    0.42209004989414833    
  0.38376455331833553    0.39401977143959777    0.46492938815287754    0.5830072458023544    0.6932843829024424    
  0.7360867436643672    0.5497381352879596    0.559914381786238    0.5528476175469909    0.4999252842707493    
  0.4491725161475779    0.4445446606882537    0.4863421299404656    0.5427830846369504    0.5688562696403361    
  0.5427830640380026    0.4863420669059535    0.44454468262472396    0.4491724719072814    0.4999253341208573    
  0.5528476469628802    0.5599142716136707    0.5497381352879596    0.33813536401741845    0.3906645603456437    
  0.49334333454699486    0.5334929897387425    0.5168787462603037    0.5204280287838495    0.5633619290812645    
  0.6163637010416348    0.6396136517425262    0.6163637497225065    0.5633620187724948    0.5204279944348261    
  0.5168787189973439    0.533492943309723    0.493343338782356    0.39066452188122724    0.33813536401741845    
  0.25728284377668476    0.3192261220201481    0.4604081101184025    0.5453837864332666    0.547932495516809    
  0.5556196551170235    0.5980785140903625    0.6484520801244775    0.6700094217271618    0.6484520621769764    
  0.5980785416119678    0.5556195970307499    0.5479325120764638    0.5453839737518063    0.46040813110451867    
  0.3192261933410175    0.25728284377668476    0.505998061297095    0.5221824785471912    0.5359839335272398    
  0.5108262948680441    0.4847988058336937    0.5045123639586275    0.5688541708305755    0.6396157953418882    
  0.670007230875816    0.6396158245177894    0.5688541582168237    0.5045123488503864    0.4847987521641538    
  0.5108264540739843    0.5359838391327308    0.5221826078256436    0.505998061297095    0.5482300151060838    
  0.5521189010700597    0.5384446084965541    0.4928823846286461    0.45979128043282236    0.4776944971834297    
  0.5427850061496939    0.6163616874998293    0.6484541231165036    0.6163615476258191    0.5427849763150981    
  0.4776944023338773    0.45979128668763614    0.49288251961347795    0.5384445142716967    0.5521188522377691    
  0.5482300151060838    0.6319254376284057    0.6068791660826199    0.5354296500482232    0.45273598890832745    
  0.4081357159547237    0.4220918606086274    0.4863402376815906    0.5633640447587891    0.5980765286489729    
  0.5633639721848    0.4863402803556253    0.4220918577431577    0.4081356884188355    0.45273602679274194    
  0.5354296702689153    0.6068792626537975    0.6319254376284057    0.6876150686777556    0.6398877268636234    
  0.5285176799772431    0.42395275386465187    0.37311170320291276    0.38376291176670274    0.4445464187950964    
  0.5204260927182562    0.5556215288331436    0.5204260459018407    0.4445463719256835    0.3837629116044651    
  0.37311165195047397    0.4239528272650276    0.5285177753737824    0.6398876748158996    0.6876150686777556    
  0.701241805492496    0.6537398755252248    0.5439634446493197    0.43956079621252536    0.38640642186743485    
  0.3940215526652993    0.4491706384215495    0.516880700929566    0.5479305948645663    0.5168806512404861    
  0.4491707338334662    0.39402156097953617    0.38640639229055784    0.43956088462541226    0.5439635112216037    
  0.6537396859473015    0.701241805492496    0.6131320395932408    0.6059415106953877    0.570707924021103    
  0.5089037087509517    0.463566034123617    0.46492765034657724    0.49992710452285677    0.5334909941112429    
  0.545385823500355    0.5334911019411136    0.4999271094876607    0.4649276453442422    0.4635660805913847    
  0.5089036457267244    0.5707078797843536    0.6059414837956122    0.6131320395932408    0.3456906159360051    
  0.40534634102971195    0.5315149411888652    0.6004320523485812    0.5966166744625043    0.5830092702318764    
  0.5528456494845563    0.4933452648030204    0.46040642580951147    0.4933451144725556    0.5528457239243814    
  0.5830093317595219    0.5966166880738396    0.6004321797708934    0.5315149955422023    0.4053463851974918    
  0.3456906159360051    0.12125081862729432    0.19271253324443477    0.42386020859256907    0.6608480771072991    
  0.7319361855661476    0.6932822195320585    0.5599161845161799    0.3906627472325384    0.31922770707270465    
  0.3906628271473272    0.5599162810984867    0.6932822599819497    0.7319360901446668    0.6608479248101541    
  0.4238601785543197    0.19271258061193336    0.12125081862729432    0.06370927772549526    0.12425719278371641    
  0.3684829748786935    0.6771637859217714    0.7894081445139671    0.7360889699351024    0.5497361740068059    
  0.3381369971971842    0.2572814365659751    0.3381369545769265    0.5497361332084588    0.7360889526672034    
  0.7894080613603021    0.6771639418946814    0.36848299551132163    0.12425720799131879    0.06370927772549526    
  0.12125080999736523    0.19271254372551333    0.42386021509405153    0.6608479673272034    0.731936129042761    
  0.6932823885963818    0.5599161844982081    0.39066278327128057    0.3192276799914749    0.3906627733430892    
  0.5599162006165053    0.6932821737058653    0.7319361352705823    0.6608480867615348    0.42386022224559083    
  0.19271251166649725    0.12125080999736523    0.3456906787157317    0.4053464303392187    0.5315149576583976    
  0.6004321807781224    0.5966166959880741    0.5830092951598724    0.552845674314524    0.4933452115916012    
  0.46040638851208654    0.4933451771684023    0.5528456226224973    0.5830092306304222    0.5966167225827531    
  0.600432168761997    0.5315149418845105    0.40534635552321346    0.3456906787157317    0.6131321131693835    
  0.6059414785630124    0.570707854280835    0.508903630352031    0.46356600405601295    0.4649277305642714    
  0.4999271045744392    0.533490999106142    0.5453858714300113    0.5334910561343443    0.4999270897041299    
  0.4649276442856934    0.4635660112130622    0.508903772059643    0.5707079186610649    0.6059414888914657    
  0.6131321131693835    0.7012418794388384    0.6537397478161139    0.543963495510055    0.43956077992401316    
  0.3864063986957259    0.3940215778457378    0.4491707301163584    0.5168806845300059    0.5479305891870825    
  0.5168807251188403    0.4491707535702663    0.39402155318622245    0.38640641964695577    0.43956092056575885    
  0.5439634922289215    0.6537396986477548    0.7012418794388384    0.6876151060674721    0.6398877264228945    
  0.528517587702978    0.4239528657467402    0.3731117129680688    0.3837629736937241    0.44454631308697035    
  0.520426073599886    0.5556214550528411    0.5204260390789901    0.444546350277823    0.38376286385865344    
  0.373111697991356    0.4239527890281214    0.5285177291932557    0.639887777241474    0.6876151060674721    
  0.6319254785825524    0.606879258270647    0.5354296568869393    0.45273595228813596    0.40813572651192237    
  0.42209184815649947    0.48634032217882595    0.5633639859384676    0.598076516313323    0.5633639631263816    
  0.4863402769353645    0.42209188684857113    0.40813565929305196    0.4527360319229912    0.5354297341160152    
  0.606879220168793    0.6319254785825524    0.5482299539084113    0.5521188950703926    0.5384446002028118    
  0.4928824230366012    0.45979124348298067    0.4776944201354549    0.5427849579410134    0.6163615875890721    
  0.6484542146181592    0.6163616594706564    0.5427849993492466    0.47769445933129806    0.4597912511067812    
  0.4928823636882034    0.5384445536389165    0.5521188324388764    0.5482299539084113    0.505998061297095    
  0.5221824785471912    0.5359839335272398    0.5108262948680441    0.4847988058336937    0.5045123639586275    
  0.5688541708305755    0.6396157953418882    0.670007230875816    0.6396158245177894    0.5688541582168237    
  0.5045123488503864    0.4847987521641538    0.5108264540739843    0.5359838391327308    0.5221826078256436    
  0.505998061297095    0.648575510421281    0.624156952214965    0.5617309301211219    0.4968669890810792    
  0.4715606008533837    0.49981243383010665    0.5532628181104554    0.5884806666154363    0.5971772420690915    
  0.5884807297249693    0.5532628981713749    0.49981243574963213    0.4715606233419809    0.4968669986944281    
  0.5617310476154571    0.6241569916681081    0.648575510421281    0.6411915193705034    0.6126586745727    
  0.5424744832564361    0.47329528401563126    0.4477388307887001    0.4790998021160257    0.5433254318502316    
  0.5949861645702406    0.6118142772660554    0.5949860756760808    0.5433255173832128    0.47909969847608386    
  0.4477389104405058    0.4732954142606948    0.542474412449482    0.6126586361459748    0.6411915193705034    
  0.6187257425263587    0.5826300066615773    0.4993176324231626    0.42443064609015163    0.3993461619835205    
  0.4351537867266437    0.5173201327108669    0.6003059399907279    0.6338755579577917    0.6003059463889396    
  0.5173201048789017    0.43515381713136014    0.3993460999457293    0.4244307084791075    0.4993176171672152    
  0.5826299949432219    0.6187257425263587    0.5969089514781323    0.5567522615939969    0.46799602337823987    
  0.39244736890825144    0.3685446658079321    0.4062008513648939    0.4970431903893452    0.5985666587671071    
  0.6433602598972483    0.5985667981733117    0.4970432057365229    0.40620083482363445    0.3685446699776801    
  0.3924473734119627    0.46799606054026344    0.5567522696761059    0.5969089514781323    0.594465121899444    
  0.5586308273667614    0.47858202414969536    0.40854457242407743    0.38645302896483025    0.42417855193586174    
  0.5111213610072987    0.6056006316852394    0.647092945275333    0.6056006440166827    0.5111214016318145    
  0.4241785017346845    0.3864529774990764    0.408544620757603    0.4785820769543458    0.558630661485852    
  0.594465121899444    0.565299066516053    0.556304085500111    0.5251598789174454    0.48395842026073355    
  0.46918788726453864    0.49915766424212993    0.5491722322999036    0.5802304057364416    0.5873288499752211    
  0.5802305061368053    0.549172253572471    0.49915750632458555    0.4691879061133732    0.4839585286619531    
  0.5251598670495855    0.5563040394519686    0.565299066516053    0.4116513749457608    0.4578627105313814    
  0.5487844171602478    0.5988471624240326    0.609164986516808    0.6045166398670292    0.5398911356673485    
  0.4253686513216707    0.3701056634453909    0.42536862126429603    0.5398912122482149    0.6045165611883516    
  0.6091650649803916    0.5988471994859149    0.5487843753523294    0.4578627218224859    0.4116513749457608    
  0.22455401630392696    0.302636202486885    0.5117136440308075    0.6961477059696788    0.7506478305597948    
  0.6836868829415222    0.46227113280827775    0.23406429176183755    0.1578919131391957    0.23406427135179855    
  0.46227112359172007    0.6836870010740513    0.7506477696949666    0.6961477735480172    0.5117135451170126    
  0.3026362456462437    0.22455401630392696    0.1574004419760242    0.23703149398495768    0.4816419616009283    