#     DFTpy    
  CRYSTAL 
    
  PRIMVEC    
  5.2412413793103445    0.0    0.0    
  0.0    5.2412413793103445    0.0    
  0.0    0.0    2.887586206896551    
  PRIMCOORD    
  4    1    
  Si    0.0    0.0    0.0    
  Si    2.6206206896551723    2.6206206896551723    1.4437931034482756    
  Si    0.0    2.6206206896551723    0.7218965517241378    
  Si    2.6206206896551723    0.0    2.1656896551724136    
  BEGIN_BLOCK_DATAGRID_3D    
  3d_datagrid_density    
  BEGIN_DATAGRID_3D#0    
  23    23    13    
  0.0    0.0    0.0    
  5.2412413793103445    0.0    0.0    
  0.0    5.2412413793103445    0.0    
  0.0    0.0    2.887586206896551    
  0.058593355722661174    0.10661307891848719    0.270343965939099    0.3986598125550797    0.3550293303128189    
  0.27585657399726243    0.24247913277809285    0.2585861217948783    0.3097051306938723    0.36230476123111943    
  0.38308947082688194    0.3837351673328685    0.38308952904319693    0.3623047987337397    0.3097051530434183    
  0.2585861402560974    0.24247910881173984    0.27585659169150034    0.35502931593817416    0.3986597899275881    
  0.2703439729747041    0.106613096903704    0.058593355722661174    0.10661309124091187    0.1615365648537183    
  0.3118600984520007    0.3952886420949546    0.33508553893288845    0.25827180795824733    0.22703055921702017    
  0.24192446353121638    0.29068383444711715    0.3451368406230753    0.3733268208357434    0.37841336390346303    
  0.3733267820146056    0.34513684395292976    0.2906838247154881    0.2419244737355543    0.22703054346052534    
  0.2582718069046473    0.3350855406359297    0.39528866358782144    0.31186007096226587    0.16153656848138168    
  0.10661309124091187    0.27034396620526924    0.31186005803997163    0.3792710007673177    0.363065680030125    
  0.28095456420178216    0.2143240411144932    0.1890005880201344    0.20086333420290076    0.24165285198896155    
  0.29362190043212477    0.3310802623256615    0.3432911095824737    0.33108025467459    0.2936219118091276    
  0.24165283610141777    0.2008633316842591    0.18900058326397554    0.21432403599437555    0.28095452778306956    
  0.3630657045663436    0.3792710390484377    0.3118600455870464    0.27034396620526924    0.3986597778684    
  0.3952886817623245    0.36306571816299843    0.2903277637189    0.2134437597508667    0.1634805009693504    
  0.14506447810632223    0.15334679503756524    0.1828397951786159    0.22318823567036652    0.25739270522779295    
  0.27068280439635795    0.2573927169600483    0.2231882453675887    0.18283976414551645    0.15334679364715548    
  0.14506447214841878    0.1634805019815954    0.2134437215791593    0.2903277775215946    0.36306570702282515    
  0.39528870283404494    0.3986597778684    0.35502930543422534    0.3350855215344043    0.2809545221284391    
  0.2134437328714312    0.15684129014378315    0.12205052162069753    0.10894743244672973    0.1141820084306272    
  0.13373198961400332    0.16094009204646018    0.18514649715960568    0.1949709157937203    0.18514647417896157    
  0.16094013232674287    0.13373196284850974    0.11418201609008816    0.10894744945626753    0.12205051904597546    
  0.15684127771483977    0.21344373622797072    0.28095453667802756    0.3350855452963967    0.35502930543422534    
  0.27585657558943116    0.2582718240243363    0.2143240286872255    0.16348048279129723    0.12205052443129738    
  0.096480401230276    0.08652047421398833    0.08968460856043076    0.10275613257653451    0.1211206152474031    
  0.13753385947520197    0.14412969602767814    0.13753384362107685    0.12112062480855562    0.10275612425700588    
  0.08968461932132497    0.08652048117275406    0.0964803978122658    0.12205051478867461    0.1634804720001578    
  0.21432403622886573    0.2582718392608192    0.27585657558943116    0.24247913351719258    0.22703057480560415    
  0.18900056932843132    0.1450644679431804    0.10894744242994198    0.08652048526540043    0.07746334991726227    
  0.07937180486328778    0.08945552758927737    0.10395520822796762    0.11695532223892    0.12214102291176425    
  0.1169552892462068    0.1039552166590174    0.08945553777134575    0.07937181212234086    0.07746335899813739    
  0.08652047709785625    0.1089474513632954    0.14506446143558854    0.18900061280927993    0.22703054649765014    
  0.24247913351719258    0.25858612805271064    0.24192444035350347    0.20086333621055516    0.1533467739694006    
  0.11418201069038117    0.08968460951602264    0.07937179883986252    0.08067513737997668    0.09067046009114216    
  0.10525546933937101    0.11841365571999814    0.12373315273896913    0.11841364237183737    0.1052554910192877    
  0.09067044343029527    0.0806751375132864    0.0793718049412325    0.08968461669046508    0.1141820033052461    
  0.1533467661703928    0.20086331112796402    0.24192446711718907    0.25858612805271064    0.30970513342268735    
  0.2906838450561584    0.2416528402619014    0.18283978711456372    0.1337319837821433    0.10275612028124438    
  0.0894555291383629    0.09067046922692594    0.10281584503272478    0.12071630653385482    0.13692254487246927    
  0.14354750238002947    0.1369225450467016    0.12071629685828615    0.1028158253325653    0.0906704618942963    
  0.089455520042101    0.10275612591036182    0.13373196936634094    0.18283977100212823    0.24165285627094596    
  0.290683838899141    0.30970513342268735    0.3623048119887148    0.3451368382111825    0.2936218976907632    
  0.2231882329929975    0.16094010033567335    0.12112062532792107    0.10395522135370835    0.10525547820891526    
  0.12071630644589686    0.1439651338075258    0.16510123288851125    0.17374761586018195    0.16510121592328916    
  0.14396517505983109    0.12071631377105338    0.10525547878666838    0.10395521529867578    0.12112062664953809    
  0.16094007763880894    0.22318824625495762    0.2936219380287728    0.3451368331081286    0.3623048119887148    
  0.38308949085458516    0.37332681317871436    0.3310802585833084    0.25739267194368165    0.18514649481280268    
  0.13753384780541955    0.11695529459374181    0.11841363918262464    0.1369225550011389    0.16510123548000186    
  0.190920919101596    0.20156097575297321    0.19092092521923537    0.16510120752352558    0.13692252416203712    
  0.11841363260679774    0.11695529820919841    0.1375338554493234    0.18514649675751438    0.25739268288823    
  0.3310802764179538    0.37332677481910204    0.38308949085458516    0.38373520420094054    0.37841334496698376    
  0.3432911070954977    0.2706828192974495    0.19497090471616366    0.1441296996978897    0.12214103093326535    
  0.12373318179101095    0.14354750360350227    0.17374761194993005    0.2015609764793419    0.2131100808207897    
  0.20156098394261304    0.17374766771612682    0.14354750141254644    0.12373317534694507    0.12214102983567439    
  0.14412970691392868    0.19497089274996307    0.27068279287935987    0.3432911569839269    0.37841337423048826    
  0.38373520420094054    0.3830894873292563    0.37332680969042353    0.3310802591465214    0.25739267632687596    
  0.18514647380477028    0.13753383776143718    0.11695529136814739    0.11841364483024486    0.13692252720616424    
  0.16510123865707352    0.19092091368782413    0.20156096860640038    0.19092091265400837    0.1651012128172612    
  0.13692253563173215    0.11841364276276553    0.11695529064261521    0.13753383674904684    0.18514650857888929    
  0.25739267208238875    0.3310802559421534    0.3733268375901434    0.3830894873292563    0.3623047841611478    
  0.3451368388435893    0.2936219007883986    0.22318823939628304    0.1609401071831517    0.12112062494100835    
  0.10395521796730185    0.10525546505022026    0.1207163118986995    0.143965144928387    0.16510123461847573    
  0.17374764342325702    0.16510123947466193    0.14396518502032793    0.12071630616347115    0.10525546843923558    
  0.10395520809014117    0.12112061985404814    0.1609400847731118    0.22318825113809723    0.29362195061776303    
  0.345136833431742    0.3623047841611478    0.30970514198352816    0.29068383560059746    0.24165283414083744    
  0.18283980089903595    0.1337319735567133    0.10275613336067609    0.08945552178721448    0.09067047069237912    
  0.10281583337745705    0.12071631058562367    0.13692255557793298    0.143547509879039    0.1369225414948343    
  0.12071629637553713    0.10281582652385496    0.09067046755268314    0.08945553016101472    0.10275612577229397    
  0.13373196057975575    0.18283977840391374    0.24165283370291793    0.29068385438497196    0.30970514198352816    
  0.2585861472133903    0.24192445985354072    0.2008633524598128    0.15334676623015656    0.11418201485746003    
  0.08968460348525821    0.0793718046530011    0.0806751277772045    0.09067046297849633    0.10525546297776468    
  0.11841364524749777    0.12373317282019974    0.11841363886706684    0.10525547619470932    0.09067046289606435    
  0.08067512242532161    0.07937181101878941    0.08968461684250773    0.11418200334195688    0.1533467639368441    
  0.20086333341495044    0.24192443988424875    0.2585861472133903    0.24247911352934873    0.22703057209730507    
  0.1890005768531311    0.1450644650604789    0.10894744803062394    0.0865204811235621    0.07746335813936309    
  0.07937180914424212    0.08945553446242094    0.1039552181800443    0.11695530222284448    0.12214103385675686    
  0.11695529606787618    0.10395522018733028    0.0894555195702549    0.07937181124709006    0.07746335486498133    
  0.0865204805892666    0.1089474445771145    0.14506447323956964    0.18900059576134193    0.22703054561740077    
  0.24247911352934873    0.27585658746641634    0.25827183667933085    0.2143240317314099    0.1634804882875085    
  0.12205051842520254    0.09648039811317093    0.0865204799688072    0.08968461278632414    0.10275613317362325    
  0.12112060059941847    0.13753387526739086    0.14412967988757458    0.13753385722774633    0.12112062371435775    
  0.10275612590877474    0.0896846165256235    0.08652047823190075    0.09648038967390134    0.12205052017184513    
  0.1634804830020875    0.21432406750096622    0.25827181341553435    0.27585658746641634    0.3550293319855856    
  0.33508552904653066    0.28095456293352294    0.21344374798848023    0.1568412826586501    0.1220505197685234    
  0.10894743910004885    0.1141820153688122    0.13373196814953475    0.16094007969547983    0.1851465026984825    
  0.19497088732964923    0.18514649095032007    0.16094010058678793    0.13373196684159833    0.11418200412575547    
  0.10894744464461716    0.122050527313651    0.15684128786961665    0.21344373309314246    0.28095454361554334    
  0.33508555016704833    0.3550293319855856    0.398659794325895    0.3952886799460365    0.36306570631944624    
  0.29032777239924673    0.2134437647805663    0.16348050719462576    0.14506448927098178    0.15334678215487194    
  0.18283979652389698    0.22318823077422634    0.25739270379770157    0.2706828034710429    0.25739269783078467    
  0.22318824226547207    0.18283977384892616    0.15334678660255774    0.14506448556877846    0.16348051100661565    
  0.21344374682925835    0.29032775520829335    0.36306571858069236    0.3952886596649287    0.398659794325895    
  0.2703439718181847    0.311860081382457    0.3792709998420988    0.36306569991723975    0.2809545358185774    
  0.21432402475434428    0.18900058616780496    0.20086334792081698    0.2416528432934026    0.29362186284933944    
  0.3310802808937546    0.34329109663886703    0.33108023974084244    0.29362191337154625    0.24165284592766104    
  0.20086332056708875    0.189000592646112    0.2143240413989799    0.2809545284613418    0.3630657443582483    
  0.3792710306804435    0.31186005273959483    0.2703439718181847    0.10661309436109441    0.1615365604420542    
  0.3118600691987842    0.3952886496786664    0.33508556337198697    0.2582718110495321    0.22703057694916315    
  0.24192443797353957    0.2906838235867549    0.34513685503290925    0.37332680639730154    0.3784133448504115    
  0.3733268007569551    0.3451368221962569    0.290683790988881    0.2419244608232678    0.22703055036402933    
  0.2582718176551163    0.3350855353101596    0.3952886454077996    0.31186008158079453    0.16153654766255549    
  0.10661309436109441    0.058593355722661174    0.10661307891848719    0.270343965939099    0.3986598125550797    
  0.3550293303128189    0.27585657399726243    0.24247913277809285    0.2585861217948783    0.3097051306938723    
  0.36230476123111943    0.38308947082688194    0.3837351673328685    0.38308952904319693    0.3623047987337397    
  0.3097051530434183    0.2585861402560974    0.24247910881173984    0.27585659169150034    0.35502931593817416    
  0.3986597899275881    0.2703439729747041    0.106613096903704    0.058593355722661174    0.10701445487431183    
  0.16111813064239736    0.3070235407162051    0.38279698981154037    0.3160229171225952    0.23302677452605122    
  0.19284918160387549    0.1934294246415926    0.22460412717646538    0.27124132911967624    0.3110782073133263    
  0.32647720496585125    0.31107822357512427    0.27124138725530605    0.22460410536567627    0.19342944247314636    
  0.19284917159872977    0.2330268192532649    0.31602291960117085    0.38279699477467716    0.30702354539815896    
  0.1611181323738204    0.10701445487431183    0.16272650833728183    0.21699110207668895    0.339088328487519    
  0.37599075479978905    0.2987295138248862    0.21920627555312439    0.1817387877179764    0.1822155007157329    
  0.21120056396771586    0.2550671336825859    0.29294424838019323    0.3076923337012423    0.29294424345001385    
  0.2550671480407314    0.21120053074501485    0.1822155214331293    0.18173877352802686    0.21920627049450053    
  0.2987295144220703    0.37599075260469395    0.33908831800998895    0.2169910953815657    0.16272650833728183    
  0.3171236667519794    0.3471839880315388    0.38279289024644125    0.3412370224497193    0.2529390587812264    
  0.18479526990021988    0.1541979724513908    0.1544716149099901    0.17781462587981128    0.2136943969678718    
  0.24555836984849436    0.25827960392923627    0.2455583511105181    0.21369441578752954    0.17781461787077008    
  0.15447162175252557    0.1541979524602883    0.1847952710177876    0.2529390273152513    0.3412370189008228    
  0.3827929373260464    0.3471839963725551    0.3171236667519794    0.40917251754482914    0.39896457679772    
  0.3541882564079237    0.27499127321389216    0.19681339797556133    0.1451978360482555    0.12241795322346032    
  0.12242135288757423    0.13921456664898965    0.16503593961569749    0.1885301130672218    0.198167390814112    
  0.18853010737930168    0.16503595540778987    0.13921456831470308    0.12242134695718807    0.12241796874490707    
  0.14519781327694886    0.19681338803793966    0.274991249542229    0.35418826845054    0.3989646111792108    
  0.40917251754482914    0.35988871445834864    0.3378821179501021    0.27987663680649266    0.2093635686324662    
  0.15056318751863193    0.11337284823379525    0.0967031311671283    0.09636142893167518    0.10786453025854455    
  0.1255778728465397    0.14182304432749182    0.14850378064047853    0.14182304777292526    0.12557788456544933    
  0.10786449926834185    0.09636143636137849    0.09670313534264076    0.11337284746630152    0.1505631781230612    
  0.20936359281326666    0.2798766297356089    0.3378821179230189    0.35988871445834864    0.2955620719709797    
  0.275899364054957    0.22692342550723066    0.17038473046853847    0.1242617685162997    0.09514064017622445    
  0.08190521602685594    0.08123533426667047    0.08950175236820739    0.1025442347332708    0.11460400414025457    
  0.11950278924831931    0.11460399186432711    0.10254424320158634    0.08950173898698242    0.08123534310504563    
  0.08190522042399861    0.09514063671908339    0.12426175952680424    0.17038472433394558    0.22692342985875086    
  0.2758993771811564    0.2955620719709797    0.28243453967410814    0.26356173144057127    0.21697213644265934    
  0.1632806739008401    0.11928961285118662    0.09145240293472728    0.07866414576154561    0.07764901292233019    
  0.08494717713851972    0.0967145078829027    0.10766077317063436    0.11210148864656337    0.10766076335611921    
  0.09671453240414492    0.08494717029331925    0.07764901573896228    0.078664144717432    0.09145239229082854    
  0.1192896147145364    0.16328067087846465    0.2169721570126663    0.26356174068658783    0.28243453967410814    
  0.3232727315530995    0.30208024444727516    0.24875085456211682    0.18614373195536676    0.13433907970858447    
  0.10138893598956761    0.0861105010184094    0.08470051383573957    0.093154783371018    0.10672638610755898    
  0.11930242150757393    0.12447698840054325    0.11930241254516143    0.10672641709576103    0.09315477409816629    
  0.08470050349720025    0.08611051040899834    0.1013889411039945    0.13433909545721293    0.18614373329258074    
  0.2487508239066518    0.30208026102700813    0.3232727315530995    0.38481963133112596    0.3657413272725571    
  0.3098104793892801    0.23393906309260948    0.16650823091357317    0.12274774805502463    0.10250925349567634    
  0.10062113948805933    0.11191079957256662    0.13012281270545795    0.14699016216781766    0.15398505364335088    
  0.14699016934319717    0.13012281017630004    0.1119108005966995    0.10062114096745536    0.10250925550988871    
  0.12274776013212932    0.16650820227711022    0.2339390425150046    0.30981051895122336    0.36574130831372653    
  0.38481963133112596    0.3858822298442254    0.38721272585681754    0.3624820739543095    0.29016923889028123    
  0.20761273902276503    0.15039374785904336    0.12382214895115112    0.12129360843052886    0.13631518692951297    
  0.16105032890101456    0.1839803877296666    0.19343516324580728    0.1839803766559264    0.16105035198622952    
  0.1363152053160845    0.12129360775105068    0.12382214815485322    0.15039374331960517    0.20761272701273686    
  0.2901692541089174    0.3624821210114668    0.3872127119172356    0.3858822298442254    0.3114635431765964    
  0.34023123117750564    0.3729902027272083    0.3302455765204303    0.24270877628888873    0.1746540791578756    
  0.14244658496592938    0.1393737549789829    0.15777872919717792    0.18838987933655493    0.21689627819999072    
  0.2286788800958564    0.21689627925969798    0.1883898556368426    0.1577787261736463    0.13937376067921145    
  0.14244657488952844    0.17465406963076494    0.24270878541004845    0.33024555659615434    0.3729902130400205    
  0.3402312270805458    0.3114635431765964    0.2686595133560579    0.3074939520265898    0.36715527720541524    
  0.34340002918273876    0.2565722990565839    0.18440768543666114    0.1498654263509642    0.1466208966003884    
  0.1664586484871653    0.1994432877357633    0.2302909697632054    0.24312400052344685    0.23029097303821244    
  0.19944332596537526    0.16645866482220134    0.14662088836990894    0.14986543364672777    0.1844076857493631    
  0.25657225905125686    0.3434000037190951    0.36715532876203055    0.3074939718773661    0.2686595133560579    
  0.31146356022122307    0.3402312267540578    0.37299022992612885    0.3302455574790167    0.2427087865095938    
  0.17465407138340075    0.14244657941956837    0.13937376486860506    0.15777871327592657    0.18838990043775375    
  0.2168962781435065    0.22867888946669254    0.21689627495848335    0.18838986859604911    0.15777872493506717    
  0.13937378249767712    0.14244657522528492    0.17465407460825128    0.24270881070914405    0.3302455496929437    
  0.3729901592159178    0.34023125888295813    0.31146356022122307    0.38588222837058345    0.38721272367792325    
  0.3624820845945418    0.2901692313394402    0.207612732846049    0.15039374921301463    0.1238221453424761    
  0.12129359946632991    0.13631519663477504    0.16105032728844587    0.18398038330596977    0.19343519298474193    
  0.1839803674629339    0.16105035800750636    0.13631519170011183    0.12129360141742171    0.1238221381900958    
  0.1503937458753354    0.20761271709800086    0.29016925462191184    0.3624821267474116    0.38721271134278895    
  0.38588222837058345    0.3848196405702303    0.3657413285789814    0.30981050408008315    0.233939064121419    
  0.16650821120017803    0.12274776493164996    0.10250925193995224    0.10062113849589134    0.11191080049981461    
  0.13012281396605008    0.14699017228907552    0.15398504389459938    0.14699016075652377    0.13012281262235403    
  0.11191078655189092    0.1006211440326083    0.10250925357139591    0.12274775485959198    0.16650819902805714    
  0.23393906347698112    0.30981050519671394    0.3657413372951951    0.3848196405702303    0.32327276019787704    
  0.30208026322902287    0.24875084628492466    0.18614375201999223    0.13433909585238613    0.10138892525795742    
  0.08611050105681613    0.0847005051659725    0.09315478407521788    0.10672640033152532    0.11930241683905057    
  0.12447700583476422    0.11930241127375568    0.10672640764165406    0.09315477419564575    0.08470050241143531    
  0.08611050757321397    0.10138893484279207    0.1343390917791914    0.18614373567979814    0.2487508320366879    
  0.30208024843690834    0.32327276019787704    0.2824345074812567    0.26356173519726733    0.2169721264369201    
  0.1632806718761867    0.1192896301632347    0.09145240005478131    0.07866414938752136    0.0776490087283711    
  0.08494717905707706    0.09671450983070644    0.1076607749114371    0.11210148391829879    0.10766076822677415    
  0.09671453057357185    0.08494716101571573    0.07764901486766247    0.07866415039126673    0.09145240231125527    
  0.11928961225705662    0.1632806647517019    0.21697214057562586    0.2635617398739916    0.2824345074812567    
  0.2955621003533178    0.27589936737049764    0.22692341569129115    0.17038473317272163    0.12426174550804302    
  0.0951406437278152    0.08190521518645046    0.0812353420445858    0.08950173936593203    0.10254423152923882    
  0.11460401639438815    0.11950279024746581    0.11460399094701551    0.1025442358849317    0.08950173592197298    
  0.08123534108012183    0.08190521454171996    0.09514063704429572    0.12426176535760541    0.17038473550863414    
  0.22692343484609634    0.27589935952481526    0.2955621003533178    0.3598887375471891    0.33788209575668615    
  0.27987665046800286    0.20936359451373027    0.15056319500254473    0.11337284283152814    0.09670313091263312    
  0.09636142398310307    0.10786452177794695    0.12557785924980774    0.1418230715151003    0.1485037714599055    
  0.14182304999455717    0.12557786533815793    0.10786452362474216    0.09636142503117419    0.09670313914028199    
  0.11337285258303388    0.15056319596292472    0.20936358166209826    0.2798766464893988    0.3378821215753931    
  0.3598887375471891    0.40917251442954844    0.39896458087454184    0.3541882376283012    0.27499127338593227    
  0.19681341206046785    0.14519782599018052    0.12241796374841794    0.12242135151957605    0.13921456214403    
  0.16503593649306952    0.18853011622152074    0.1981673885009705    0.18853008562484724    0.1650359560036386    
  0.13921456341278318    0.12242134277736763    0.12241796903106623    0.14519782014775015    0.19681340216383866    
  0.27499124335742314    0.3541882505597133    0.3989645765484275    0.40917251442954844    0.3171237090636815    
  0.3471840044387867    0.3827929000171853    0.34123701849839755    0.2529390475674374    0.18479526562867066    
  0.15419797475731567    0.15447160786408395    0.17781462620660882    0.21369438112802733    0.24555838593421228    
  0.25827958700193365    0.24555836168215395    0.21369442472602063    0.1778146074080789    0.15447160622171616    
  0.15419796018153556    0.18479526667585175    0.2529390313537916    0.34123705967251583    0.3827929461665958    
  0.3471839953912703    0.3171237090636815    0.1627265118635015    0.21699109625416582    0.33908833205325195    
  0.37599076586926145    0.2987295288009234    0.21920627308229984    0.18173879145223718    0.18221549480022364    
  0.21120055604413493    0.25506713530662095    0.292944218502388    0.30769232579178285    0.29294423742449105    
  0.2550671331898316    0.21120055657715928    0.18221550383222046    0.18173878862841403    0.21920624868647204    
  0.2987294904741311    0.3759907355739892    0.3390883170559426    0.21699109607701805    0.1627265118635015    
  0.10701445487431183    0.16111813064239736    0.3070235407162051    0.38279698981154037    0.3160229171225952    
  0.23302677452605122    0.19284918160387549    0.1934294246415926    0.22460412717646538    0.27124132911967624    
  0.3110782073133263    0.32647720496585125    0.31107822357512427    0.27124138725530605    0.22460410536567627    
  0.19342944247314636    0.19284917159872977    0.2330268192532649    0.31602291960117085    0.38279699477467716    
  0.30702354539815896    0.1611181323738204    0.10701445487431183    0.2686595215197202    0.30749397006559803    
  0.3671552773411368    0.3434000203254904    0.2565722890400382    0.18440767695366664    0.1498654481256425    
  0.14662087078938846    0.16645864877705957    0.19944330129227683    0.23029096812428948    0.2431239960520076    
  0.2302909777896407    0.19944331738488127    0.16645865413378652    0.1466208885420092    0.14986544764943152    
  0.18440770234669437    0.2565722837404265    0.3434000007575801    0.3671553018266467    0.3074939848733761    
  0.2686595215197202    0.3114635278753332    0.3402312366316277    0.37299020114018483    0.3302455410402265    
  0.242708782264335    0.17465405317589952    0.14244657947383607    0.1393737721493396    0.15777873467104628    
  0.18838988032312323    0.2168962954492544    0.2286788775555673    0.21689629124355642    0.18838989473786916    
  0.15777872304801285    0.1393737678298437    0.1424465631654153    0.17465408594657802    0.24270877949796169    
  0.3302455719239875    0.372990202743705    0.3402312525827347    0.3114635278753332    0.3858821952829887    
  0.3872127238341289    0.3624820736091028    0.29016923077741696    0.20761274277100555    0.15039374932669924    
  0.12382214617033324    0.12129361063270418    0.13631520088101623    0.16105032108382267    0.1839803804506593    
  0.19343518403336998    0.1839803635595662    0.1610503552206224    0.1363151866122344    0.1212935989908701    
  0.12382213809451686    0.1503937549687426    0.207612732875251    0.2901692368361497    0.36248213096937476    
  0.38721272373553867    0.3858821952829887    0.3848196237038277    0.3657413372564428    0.30981050351572154    
  0.23393906460650934    0.16650821061839433    0.12274776775707119    0.10250925478946411    0.1006211415126424    
  0.11191080344488219    0.1301228181787919    0.14699016596719575    0.15398504493528786    0.14699016458915126    
  0.13012282325082325    0.11191079292650802    0.10062114468549077    0.10250926160972726    0.12274774830534937    
  0.16650820126818167    0.23393906131809275    0.3098104869750387    0.36574135838819805    0.3848196237038277    
  0.32327273752603086    0.30208025018509405    0.2487508449036706    0.186143741153214    0.1343390951554889    
  0.1013889351583837    0.0861104981078869    0.08470051306075717    0.09315479254937725    0.10672639104652262    
  0.11930240914731258    0.12447701121259715    0.11930241796398064    0.10672641430627437    0.09315476073701728    
  0.08470050739826822    0.08611051304597657    0.10138893731775903    0.1343390844548052    0.18614373526132705    
  0.24875083104297394    0.30208024499692565    0.32327273752603086    0.2824344906691673    0.2635617471886454    
  0.21697212273950842    0.16328065596398733    0.1192896223717151    0.09145239634647931    0.07866414337578005    
  0.07764901191434583    0.08494718120449861    0.0967145284414721    0.1076607808069342    0.11210148591839857    
  0.10766076487631172    0.09671452974789747    0.08494716488662082    0.07764901496273788    0.07866415127047055    
  0.09145239307365176    0.11928962216981331    0.16328066499453486    0.2169721450048253    0.2635617394047864    
  0.2824344906691673    0.29556210672436567    0.27589935915646846    0.22692341015634776    0.17038473587279618    
  0.12426175998373427    0.09514064772804053    0.0819052126471885    0.08123533748258902    0.08950174218792989    
  0.10254423327519258    0.11460400324949639    0.11950279017810359    0.11460398482713774    0.10254423203673309    
  0.0895017471266972    0.08123533739724574    0.08190522212316008    0.09514063114861245    0.1242617627064314    
  0.17038474152763733    0.22692345435370226    0.27589935870139665    0.29556210672436567    0.35988871102118786    
  0.33788210727334966    0.27987663019156733    0.20936357408067058    0.15056317723282242    0.11337284010939351    
  0.09670313109789842    0.09636143386860027    0.10786451144614677    0.12557785949681022    0.14182306603171427    
  0.14850376757739656    0.1418230345660926    0.12557788692695437    0.10786450804930259    0.09636143195780388    
  0.09670313519449335    0.1133728454292977    0.15056318475734703    0.20936360301684082    0.2798766133324264    
  0.3378821289641667    0.35988871102118786    0.409172507539846    0.3989645731953808    0.3541882419451726    
  0.2749912697905375    0.1968134198414883    0.1451978309626496    0.12241796502815797    0.12242132996034401    
  0.1392145654751981    0.1650359466369372    0.18853010246420604    0.19816738879908802    0.18853010474337237    
  0.16503595041751826    0.13921456621895978    0.12242134532669874    0.12241795659795184    0.1451978236625108    