#     DFTpy    
  CRYSTAL 
    
  PRIMVEC    
  6.236413793103448    0.0    0.0    
  0.0    6.236413793103448    0.0    
  0.0    0.0    3.435862068965517    
  PRIMCOORD    
  4    1    
  Si    0.0    0.0    0.0    
  Si    3.118206896551724    3.118206896551724    1.7179310344827585    
  Si    0.0    3.118206896551724    0.8589655172413793    
  Si    3.118206896551724    0.0    2.5768965517241376    
  BEGIN_BLOCK_DATAGRID_3D    
  3d_datagrid_density    
  BEGIN_DATAGRID_3D#0    
  27    27    15    
  0.0    0.0    0.0    
  6.236413793103448    0.0    0.0    
  0.0    6.236413793103448    0.0    
  0.0    0.0    3.435862068965517    
  0.06031751427087496    0.10886954236708646    0.2668738723255996    0.36581828537833044    0.2860390699148172    
  0.17984994240386654    0.12000100761545092    0.10027704923575852    0.10992249785509589    0.1460698475169055    
  0.20541952935548477    0.27187032906819375    0.3186416436403891    0.33379938919032254    0.31864161590977136    
  0.2718703465483054    0.2054195598444345    0.14606987158590687    0.10992248626374206    0.10027700885547042    
  0.12000101591965265    0.1798499441098678    0.2860391192901873    0.36581824827994514    0.2668738641855148    
  0.10886954465792173    0.06031751427087496    0.10886955520414984    0.16375007602072517    0.30609026637894604    
  0.3614343645422556    0.27013060883843326    0.16972120530165283    0.11413688418231897    0.09575778840164494    
  0.10472608333182575    0.13835886094887412    0.19369335783773714    0.256701483520086    0.30308505985760326    
  0.31900012701555985    0.3030850096022624    0.25670146986871556    0.19369331583793303    0.13835885050357208    
  0.10472609683143289    0.0957577712031371    0.11413689461918892    0.169721166534722    0.27013065186666113    
  0.3614342486184579    0.30609026465941347    0.1637501213383012    0.10886955520414984    0.26687375135187125    
  0.30609023609441977    0.3628716214045021    0.3269951057616036    0.22607242026449395    0.14332881585564863    
  0.09896307398645053    0.08419656524610711    0.09152095423601439    0.11855547511740767    0.162985487377005    
  0.21506846980312436    0.25637204828676763    0.2717725111476896    0.2563720445794378    0.21506840717774514    
  0.16298545440201018    0.11855548455992736    0.09152095857660945    0.0841965385129072    0.09896306274783041    
  0.14332882400395186    0.2260724682164497    0.3269951588711812    0.3628716231078171    0.3060902266046316    
  0.26687375135187125    0.3658183000031191    0.3614343762662491    0.32699521386099845    0.25082101461371065    
  0.1687028077003138    0.11092831847255463    0.08018218088513769    0.06980373268590916    0.07508766764917182    
  0.09405820503571467    0.12483171508352088    0.16121833350368836    0.19112458938573834    0.202720552927056    
  0.19112462412128378    0.16121841334461215    0.12483166469210816    0.09405822814051788    0.07508766719430092    
  0.06980370138198196    0.08018220907173422    0.11092831983804734    0.168702890121284    0.2508210217420789    
  0.3269951529439775    0.36143436851721866    0.3658183000031191    0.2860390885449549    0.27013052684070277    
  0.22607240499798556    0.16870285296124282    0.11744642093141874    0.082280227385907    0.0630941231386465    
  0.05645893467781063    0.059821754792046114    0.0717860244391908    0.0907490475640768    0.11268431787511206    
  0.1306539766872519    0.13768799606307752    0.13065394676466002    0.11268438927802807    0.09074903966228669    
  0.07178603784663735    0.059821753766233145    0.05645891738507551    0.06309413226828221    0.08228023387459829    
  0.11744646955546222    0.16870283411801187    0.2260724126073043    0.2701305738821752    0.2860390885449549    
  0.17984996872047126    0.16972116464429418    0.14332884179421554    0.1109283114132606    0.08228025022415894    
  0.061976686220666016    0.05048768436157454    0.04640748266599664    0.04834615855673826    0.05538259341398121    
  0.06624958242925132    0.07839513447162903    0.08815233188590735    0.09194598987525036    0.08815233660737073    
  0.07839519403439618    0.06624955091402374    0.055382601131998284    0.04834615823642819    0.04640748443029441    
  0.050487682920221814    0.061976691552869126    0.08228025377640741    0.11092831661351876    0.1433288304889799    
  0.16972115483274816    0.17984996872047126    0.12000096375997726    0.11413685456016727    0.0989630442059646    
  0.08018217897214323    0.06309412143400797    0.0504876512699699    0.04302426150861651    0.0401866681959406    
  0.04118447012928949    0.045307763238437986    0.051557341960392675    0.05837299183592076    0.06373071896968723    
  0.06576288877378865    0.06373072922007843    0.058372998720201595    0.05155732598162392    0.045307763218313306    
  0.04118446913446705    0.04018664821245823    0.04302426561168489    0.050487670402886625    0.06309413888350644    
  0.08018217251831018    0.09896302835989679    0.11413689138912493    0.12000096375997726    0.10027703386392471    
  0.09575774180241543    0.08419654704150276    0.06980370355631155    0.056458931170415234    0.04640748003294879    
  0.04018666562157118    0.037516689697305344    0.03786602195606044    0.04057086748734697    0.04472972382202646    
  0.049224179862397965    0.05269706133746931    0.05398214768502549    0.05269705940861708    0.049224197875976344    
  0.04472971652845894    0.040570876342394015    0.037866014872578437    0.03751667763340941    0.0401866708226152    
  0.04640749014245667    0.05645895172358106    0.06980369994097056    0.08419652727901224    0.09575776480111843    
  0.10027703386392471    0.10992251177901534    0.10472607682758087    0.09152098238799945    0.07508766010978114    
  0.059821772899547876    0.048346173634630854    0.041184476681624865    0.037866011331066866    0.037702754028201065    
  0.03995193651058388    0.043683111560364    0.047743732973297065    0.05087516319672383    0.05204006236524447    
  0.05087518701783073    0.04774377951871688    0.043683100142438216    0.0399519404846272    0.03770276552932024    
  0.03786600682263795    0.041184483441564064    0.048346155872080444    0.05982178688241756    0.07508768078438341    
  0.09152095941825598    0.10472609218461551    0.10992251177901534    0.14606988261770568    0.1383588183115321    
  0.11855549652459572    0.09405821108771689    0.07178604800359102    0.05538258562464619    0.04530777890419724    
  0.040570883656264704    0.03995193023790861    0.042383977474702975    0.046755565651114536    0.05165364712716606    
  0.05549474935218987    0.056950911158723604    0.05549471682905361    0.05165370114139594    0.04675553205001874    
  0.04238397878972271    0.039951930385283684    0.04057087690823561    0.04530778015885112    0.05538259093258479    
  0.07178606162986814    0.09405819409530145    0.11855549121747098    0.1383588591525458    0.14606988261770568    
  0.2054195301648514    0.1936932841322109    0.16298548767157953    0.12483167940438658    0.09074902848545371    
  0.066249556326493    0.05155733750370332    0.04472971687763908    0.043683092363638314    0.046755530494690584    
  0.05252617106098366    0.05919940300358084    0.0645358233991636    0.06658573130484093    0.06453579746568763    
  0.05919943018884997    0.05252615274222861    0.04675554472634338    0.043683093068500246    0.04472972426987087    
  0.05155735490751537    0.06624953982947707    0.09074904781827191    0.12483166144409218    0.16298549341210605    
  0.19369335639934002    0.2054195301648514    0.2718702337070727    0.2567014121271639    0.21506841507686883    
  0.16121838076523762    0.11268433421531265    0.07839514478538365    0.05837300754927854    0.04922416267859055    
  0.04774375740628183    0.05165365926456182    0.05919941353301171    0.0681045793619227    0.0753138715162787    
  0.0781018160792949    0.0753138489295444    0.06810459328011809    0.0591994302575547    0.05165364992770339    
  0.04774375194041796    0.04922417387262726    0.05837300859177592    0.07839514412481846    0.11268437556547864    
  0.16121836428717612    0.2150684069847685    0.2567014551857961    0.2718702337070727    0.31864160741487074    
  0.3030850107558594    0.2563720263663532    0.19112461354122348    0.13065400160015528    0.08815236306568104    
  0.06373072926689037    0.05269706441566061    0.05087517204250148    0.055494761036054926    0.06453579479086058    
  0.07531386536693185    0.08411657311010202    0.08754954332569112    0.08411655044691059    0.07531385772735567    
  0.06453584418775443    0.05549473981178344    0.05087516955958469    0.052697052451590974    0.06373073545736771    
  0.08815237998348528    0.13065402265025497    0.19112459697487383    0.25637205174743355    0.3030850776262024    
  0.31864160741487074    0.3337993392758969    0.3190002056297162    0.27177254441132787    0.2027205636745064    
  0.1376880961493121    0.0919460318366205    0.06576292117267495    0.0539821827180362    0.05204008545425777    
  0.056950922642773245    0.06658576432204291    0.0781018509969318    0.08754957616606195    0.0912500021868097    
  0.08754954460929647    0.07810186574320546    0.0665857392449834    0.056950923009512065    0.05204008324582923    
  0.05398216446690875    0.06576294510319193    0.09194602529067537    0.1376880470492353    0.20272057408598376    
  0.2717725976833895    0.3190002184142839    0.3337993392758969    0.31864160338356756    0.3030849430704737    
  0.25637206761770753    0.19112460521194247    0.13065398595260624    0.08815237584439259    0.0637307242932982    
  0.05269707670538027    0.05087517428835322    0.05549473730562842    0.06453582191724265    0.07531387343977652    
  0.08411654154814743    0.08754953679531376    0.08411653608247442    0.0753138950211719    0.064535773535816    
  0.055494750848920534    0.05087516708852307    0.052697057583855005    0.06373074647866406    0.0881523573567198    
  0.13065401898719606    0.1911245267602966    0.256372089525903    0.3030850746192385    0.31864160338356756    
  0.2718703422460146    0.2567014456045105    0.21506843268151768    0.16121841276095064    0.11268432457722113    
  0.07839514769916281    0.05837298686697042    0.0492241717183548    0.047743757588050925    0.051653643246456035    
  0.05919940234606171    0.06810455027734624    0.07531385339768117    0.0781017840099452    0.07531385162776348    
  0.06810460367612926    0.05919940801607615    0.05165365331634394    0.047743749713831496    0.049224175475546    
  0.05837299635103148    0.0783951569944118    0.11268436156638388    0.1612183640150984    0.21506836582491137    
  0.25670142837066834    0.2718703422460146    0.20541954050228298    0.19369327369288128    0.16298551339276815    
  0.12483170981170007    0.09074904203694073    0.06624955513613853    0.05155734240272183    0.044729729319371296    
  0.04368309989011977    0.04675553063806518    0.05252618508283241    0.059199454800076996    0.06453583068599732    
  0.06658572845284708    0.06453582037584851    0.05919943220484117    0.05252612765035628    0.04675553582091869    
  0.04368310033941816    0.04472970651007421    0.051557346451073384    0.06624954479443178    0.09074905553612271    
  0.12483165618540074    0.16298546178093054    0.19369333114617118    0.20541954050228298    0.146069905761516    
  0.13835885164004935    0.11855549054681655    0.09405820514753002    0.07178603981371415    0.05538257670644991    
  0.04530775706883492    0.0405708791044273    0.0399519354332422    0.04238397642487753    0.04675556029034929    
  0.051653646812309134    0.055494735679357574    0.05695089106524702    0.05549472030223377    0.051653684684838594    
  0.04675553950752877    0.04238398797910242    0.039951942030883605    0.04057087313611396    0.04530777357286083    
  0.05538258643126259    0.07178604640038087    0.09405817863295482    0.11855546486155788    0.13835886225835728    
  0.146069905761516    0.10992250205828295    0.10472610140907114    0.09152097698584505    0.0750876529746209    
  0.0598217663089893    0.04834616839819081    0.041184485084813094    0.037866019727623344    0.03770275283056868    
  0.03995194868149872    0.04368310971405347    0.047743739583570186    0.050875171664781414    0.05204006163887678    
  0.050875160515115016    0.04774376283215895    0.043683096879431706    0.03995193092599088    0.03770275537346147    
  0.037866003111353894    0.04118448218311432    0.048346161821566994    0.059821772594721816    0.0750876675712391    
  0.09152093811781428    0.1047260994028497    0.10992250205828295    0.1002770457425996    0.09575776524248959    
  0.08419655882778299    0.06980371186630938    0.056458934849520574    0.04640747984175097    0.04018666983284544    
  0.03751669442329881    0.03786600606093023    0.04057086258731234    0.04472971602951753    0.049224178717732214    
  0.052697047821648316    0.0539821453926913    0.052697053754964855    0.04922419390543076    0.04472969789871337    
  0.04057086657726828    0.03786601341148872    0.03751668375265331    0.04018667056959073    0.046407487254969834    
  0.05645892504588467    0.06980369972576157    0.08419653344336757    0.09575775717644579    0.1002770457425996    
  0.12000097624147049    0.11413685271875038    0.09896303597890618    0.08018218443824107    0.06309412201822354    
  0.05048767896289073    0.04302425610156008    0.04018666686670954    0.04118446574773055    0.04530776189353607    
  0.051557342948675575    0.05837300195062131    0.0637307099742123    0.06576290244828818    0.0637307399268751    
  0.05837300096716422    0.051557332475335685    0.04530776870684525    0.041184472319767775    0.04018665939404455    
  0.04302427174307268    0.05048767769615288    0.06309415130618311    0.08018218717244538    0.09896301334867248    
  0.11413687666838082    0.12000097624147049    0.17984998778688338    0.16972114143480413    0.14332882565086014    
  0.1109282925481427    0.08228024663890769    0.061976679956017085    0.05048767951112568    0.04640749027937624    
  0.04834616968863073    0.05538258748439403    0.06624956045883837    0.07839516523778475    0.08815232063685026    
  0.09194600209460535    0.08815236346965397    0.07839516889425088    0.06624955665768618    0.05538260140460997    
  0.04834617088730554    0.046407476333534065    0.050487684315978484    0.061976699260787756    0.08228025498925054    
  0.11092831180399766    0.14332880812638019    0.16972115877300328    0.17984998778688338    0.2860391085786075    
  0.2701305585603588    0.22607238480531192    0.1687028487833536    0.11744642976703921    0.08228023831614749    
  0.06309413115593318    0.056458940739120285    0.059821752618328894    0.071786010011977    0.09074906824001415    
  0.11268433382943377    0.13065400089741433    0.13768799212852278    0.13065394567712793    0.11268438623191925    
  0.09074900222595045    0.07178603456971754    0.059821755468042664    0.056458919829695454    0.063094133418267    
  0.08228020730355462    0.11744645717392321    0.16870284729871998    0.22607242611215    0.2701305430859758    
  0.2860391085786075    0.3658182604478768    0.36143433784955575    0.3269951852727229    0.2508209743551196    
  0.16870285122126066    0.11092830659345933    0.0801821879063082    0.06980370610095507    0.07508767744896266    
  0.09405817468548187    0.12483170626470769    0.16121835232563395    0.1911246136614487    0.20272056453752638    
  0.19112462692964163    0.16121837514189524    0.12483168016437908    0.09405822793976074    0.07508765219186755    
  0.06980369560146983    0.08018222703211568    0.11092831203845384    0.16870289064707916    0.25082099947962433    
  0.32699515858812833    0.361434437820079    0.3658182604478768    0.26687368922362137    0.30609027693908947    
  0.36287165542231403    0.32699517477675066    0.22607243122432025    0.14332884983133828    0.09896305003346222    
  0.08419655208480809    0.09152097540090993    0.11855546843571448    0.16298546628871688    0.21506839771928649    
  0.2563721053484785    0.2717725149745274    0.2563720347668573    0.21506846861311443    0.16298546487435453    
  0.11855548681647286    0.09152095419495569    0.08419655531776371    0.09896306981607494    0.1433288265790053    
  0.22607245946815738    0.3269952104523751    0.3628716126990184    0.3060903081141928    0.26687368922362137    
  0.10886955688917499    0.16375007486649704    0.30609031721141017    0.36143439256244764    0.27013063676678195    
  0.16972116181048272    0.11413687306857905    0.09575777254929764    0.10472608162887627    0.13835888889114936    
  0.19369332269668812    0.25670143563503295    0.30308499156746027    0.3190001175640861    0.30308498910113674    
  0.25670147434078366    0.19369335137928234    0.13835884618670954    0.10472606206263993    0.09575774832088599    
  0.11413690011190882    0.169721157195908    0.2701305547874828    0.3614343096962446    0.3060902693290644    
  0.16375012940545233    0.10886955688917499    0.06031751427087496    0.10886954236708646    0.2668738723255996    
  0.36581828537833044    0.2860390699148172    0.17984994240386654    0.12000100761545092    0.10027704923575852    
  0.10992249785509589    0.1460698475169055    0.20541952935548477    0.27187032906819375    0.3186416436403891    
  0.33379938919032254    0.31864161590977136    0.2718703465483054    0.2054195598444345    0.14606987158590687    
  0.10992248626374206    0.10027700885547042    0.12000101591965265    0.1798499441098678    0.2860391192901873    
  0.36581824827994514    0.2668738641855148    0.10886954465792173    0.06031751427087496    0.11174848513393333    
  0.16688046856725425    0.3083674728511225    0.3613168961754676    0.2678079452481399    0.1652780549795751    
  0.1068352212069283    0.08353696545892059    0.0834382026221129    0.10095693251629867    0.1325002302979045    
  0.17081220321350113    0.20265358868664998    0.21509298211228917    0.2026535671165833    0.17081223752124827    
  0.13250028465800356    0.10095693126380131    0.08343819110083502    0.08353695430318372    0.10683523402739843    
  0.1652780639550185    0.2678079448684256    0.3613168581570852    0.3083674652078938    0.16688047598179584    
  0.11174848513393333    0.16686749269850998    0.22113256054203442    0.33653854897542185    0.35225713947162035    
  0.25254852990399734    0.15620225981945798    0.10197866234171427    0.08027674243196396    0.08018445138577548    
  0.09652974243551261    0.12588232857173398    0.16150362893328932    0.19119577623406162    0.20283797237865464    
  0.19119575114961518    0.16150362206036903    0.12588226993692103    0.09652974516127573    0.08018446786146434    
  0.08027673038783659    0.10197868154618345    0.1562022230595481    0.2525484861774319    0.3522570592677986    
  0.33653853278955337    0.2211326768956714    0.16686749269850998    0.30863648371807983    0.33688572192142996    
  0.3652578584557237    0.31137758976545027    0.21133996120161935    0.13271476877817692    0.0893299166783409    
  0.0717806148858876    0.07176799969981562    0.08507589044175559    0.1087412230383826    0.13731849228974488    
  0.16120358251150402    0.17062479546261336    0.16120353913080795    0.13731850039615165    0.10874118740238405    
  0.08507589301012937    0.07176798862913338    0.07178058727576217    0.08932991468877596    0.13271475702326574    
  0.21134001989085383    0.3113776500372736    0.36525780525707996    0.33688568627250987    0.30863648371807983    
  0.3630959343316354    0.35404483684907634    0.3125221419659213    0.23640950475786496    0.15866595427465974    
  0.10387294117181547    0.07353465913709813    0.061037492119563434    0.06110588805833544    0.07069723957212116    
  0.08747375703519054    0.10742045019820361    0.12395719301619942    0.13047774616580662    0.12395717179398585    
  0.10742050497113755    0.0874737413861729    0.07069723342045364    0.061105897514694286    0.06103746425706512    
  0.07353468212938942    0.10387295263442678    0.158665999288984    0.23640949832221725    0.31252204511089254    
  0.35404486394473716    0.3630959343316354    0.2731070125050339    0.25748191786680286    0.21489156453555763    
  0.16046493990537225    0.1120583285582504    0.0783164503433136    0.05909589829282688    0.05100044480487542    
  0.05105766412099234    0.057336582162993456    0.06813077752288284    0.08061739823934577    0.09076190902359252    
  0.09473089443822083    0.09076188160118005    0.0806174464301974    0.068130771695682    0.05733658710203344    
  0.0510576745178099    0.05100043795684947    0.05909590769777116    0.07831644976631635    0.11205837776754876    
  0.16046493656405214    0.2148915356006121    0.2574819135415687    0.2731070125050339    0.17571350611236186    
  0.16580940071397968    0.14007687382722425    0.10854124872007898    0.08056358389945402    0.060446467122246404    
  0.04856774629941358    0.043448808907662916    0.04344326065563816    0.047356683640576394    0.053967264893691844    
  0.0614115906146906    0.06731532707920121    0.06958110570224244    0.06731533324698312    0.06141163394852536    
  0.053967251832312726    0.04735667661728986    0.043443265223060905    0.04344879676351203    0.04856774575578126    
  0.060446473093283375    0.08056359218243044    0.10854125986377963    0.14007685957996763    0.16580936454835032    
  0.17571350611236186    0.12499057958845522    0.11871308011982981    0.10252523393460261    0.08252999284129488    
  0.06438447217720795    0.05096232361062344    0.042740227991235176    0.03902049674040667    0.03887925744721676    
  0.04144803470854498    0.045719361449180915    0.050446814247223734    0.05410730323157703    0.05545757520896813    
  0.05410731090091159    0.05044681885580176    0.04571935423128265    0.04144803274327417    0.03887925540568397    
  0.039020473778146714    0.04274022979277506    0.050962345335682814    0.06438449298459817    0.08252998734027199    
  0.1025252058417333    0.1187130930388421    0.12499057958845522    0.11510396791294931    0.1094888577697665    
  0.09515023666349125    0.07741343635973226    0.06114288727288946    0.04899098742185277    0.041390865554655064    
  0.03777210559459376    0.03737324946953554    0.039368880017761614    0.042784459585615796    0.04654697546846604    
  0.049436538804233716    0.050487665459306594    0.04943654246968087    0.046546988681264403    0.04278446127644471    
  0.03936887650248752    0.03737324500264384    0.03777207960571239    0.041390876953771576    0.048990995671209465    
  0.06114290476026024    0.0774134483239818    0.09515023162897221    0.10948888935791254    0.11510396791294931    
  0.14041280907680445    0.13296458169449213    0.11400989821846791    0.09072128769203339    0.06952197240167728    
  0.053829412686034736    0.04412802294983928    0.039474876664969356    0.03866090425085227    0.040643779690777995    
  0.044352131188876175    0.048500137440760004    0.051741776944203156    0.052965784764038584    0.051741779207958145    
  0.048500172373403906    0.044352117754018164    0.04064378408066819    0.038660914978659366    0.039474867075094316    
  0.04412803125274995    0.05382939909592425    0.06952198446296316    0.09072130304249613    0.11400985297938533    
  0.13296459367065533    0.14041280907680445    0.2030172136280502    0.19121191288050576    0.16061689048250852    
  0.12292560648653335    0.08932921821985776    0.06515944409628137    0.05060277243435924    0.043679498122202315    
  0.04225139037006508    0.04470831828863982    0.049668809742001455    0.05539414376025436    0.059969808358083285    
  0.06174775161304897    0.059969761770729796    0.05539419933386219    0.04966878148280229    0.0447083218148048    
  0.042251393145652565    0.04367949372439347    0.050602782059884374    0.06515945319606846    0.0893292399006669    
  0.12292560670602937    0.16061686944292436    0.19121194850742998    0.2030172136280502    0.29258769086056613    
  0.27669998332401224    0.23202122359874353    0.17297708228446385    0.11948984773905302    0.08185228565635924    
  0.05987385846664576    0.04958309973467062    0.04735430481267348    0.0506762255102697    0.0576593792722052    
  0.06597889429372304    0.07274458130560134    0.07538682229790451    0.0727445123727645    0.06597894207204329    
  0.05765934759931621    0.050676248793411115    0.04735431787166523    0.04958308494085421    0.0598738904582425    
  0.08185227232539291    0.11948984715226232    0.17297703045106824    0.2320212372950648    0.2767000620758273    
  0.29258769086056613    0.3593444886065158    0.3487199230333087    0.3053064240571637    0.23010586887360293    
  0.15433912929973226    0.10055710829910633    0.06994108531041102    0.0558814542731996    0.0527868876880073    
  0.05714383337177434    0.06649819616991551    0.07784322888682906    0.08716105434726266    0.09080511075300722    
  0.08716101805466597    0.077843219042494    0.06649819416747159    0.057143831941491946    0.05278689120760569    
  0.05588144391844194    0.0699410999257133    0.1005571084908777    0.15433916339525927    0.23010580767987945    
  0.30530641676128933    0.3487199263209336    0.3593444886065158    0.3626048034832311    0.36765750978941825    
  0.3484056050483485    0.2738760401934919    0.18279553326671683    0.11571837378360349    0.07788216695889842    
  0.06074820658794488    0.056976806977116476    0.06220993752838623    0.07352013772559414    0.08734150234351415    
  0.09879366093235578    0.10330413637895612    0.09879365407694271    0.08734150810533138    0.07352017407926993    
  0.062209918858541643    0.056976798230473594    0.06074819451480485    0.07788216576599126    0.11571841169758773    
  0.18279550525841076    0.27387597227600075    0.34840554500103504    0.36765759255894725    0.3626048034832311    
  0.34947868551908406    0.3629793751811535    0.35933305390877196    0.28967373719443335    0.19384000104879182    
  0.12163086869614587    0.08090627083201829    0.06255686985527102    0.05853642352661387    0.06412507861323541    
  0.0761977785629355    0.09099010701974289    0.10331156151770232    0.10819525084523529    0.10331155834269938    
  0.09099013986066497    0.07619776596220978    0.06412507978272909    0.058536406616253304    0.06255685549680104    
  0.0809062927704164    0.12163088042016909    0.19384002547586748    0.28967372193481566    0.35933314477258543    
  0.3629794212325645    0.34947868551908406    0.3626048008779664    0.36765749785774965    0.3484055782632677    
  0.27387601832195024    0.18279548569956328    0.11571840464685343    0.07788215655689322    0.06074821650276549    
  0.056976813542795025    0.06220991874435523    0.0735201498709836    0.08734150850038054    0.09879360904536612    
  0.10330415682916913    0.09879363206247159    0.08734153569383034    0.07352016052242882    0.0622099145834902    
  0.05697680613006412    0.06074819570339449    0.07788218642385893    0.11571838998206439    0.18279551604385022    
  0.2738759278999445    0.34840556612022855    0.36765764211503765    0.3626048008779664    0.359344540240443    
  0.3487198996280788    0.3053064277198298    0.230105832776792    0.15433912138679934    0.10055710748288935    
  0.06994107479296663    0.055881450470550154    0.05278689297067128    0.05714381342598482    0.06649820558867153    
  0.07784318107485134    0.08716102470727746    0.09080508669863539    0.08716101190495965    0.07784322988552868    
  0.06649820869993134    0.05714381065294969    0.05278688153961801    0.05588144940759717    0.06994108120195665    
  0.10055711420804028    0.15433917181163653    0.2301057978138972    0.30530640066572656    0.3487198800878975    
  0.359344540240443    0.29258773433249363    0.27670006374248374    0.23202127029306036    0.17297709162430472    
  0.11948985142497061    0.08185227154022685    0.05987386237510027    0.04958310795206797    0.04735432498020515    
  0.05067624090381767    0.05765936797915133    0.06597892262274402    0.07274453614167835    0.07538682958159951    
  0.07274454082155314    0.06597894324032781    0.057659337564704614    0.05067624689290592    0.04735432882471205    
  0.049583089955033945    0.05987387205833859    0.08185226812939021    0.11948986845848078    0.17297700068112803    
  0.23202119808564453    0.2767000681750888    0.29258773433249363    0.20301724313868819    0.19121196441346977    
  0.16061687073186745    0.12292561682701446    0.08932920225150945    0.06515945910443874    0.050602758859492475    
  0.04367949157860846    0.04225139189476713    0.04470831722387364    0.04966880656385385    0.05539414934439334    
  0.05996981372155186    0.06174776969401329    0.05996980386518263    0.055394167429601605    0.049668796323720656    
  0.04470833518360414    0.042251393004263664    0.043679480643225646    0.05060275703830083    0.0651594597620142    
  0.08932922354317191    0.12292559554561548    0.16061684660364392    0.19121197046421998    0.20301724313868819    
  0.14041279905338416    0.13296458101742176    0.11400989389944499    0.09072127078338763    0.06952196846097261    
  0.05382940543809974    0.04412802036161744    0.03947488762186923    0.038660891814179754    0.04064379142121853    
  0.04435213549503011    0.04850013269033225    0.05174177122703778    0.05296578493412166    0.051741773436239404    
  0.048500156883710635    0.04435211723972014    0.04064377563342135    0.03866090817885644    0.03947486883823072    
  0.044128035916976976    0.05382941541755392    0.06952197504803606    0.09072131054679565    0.1140098534893323    
  0.13296460276394861    0.14041279905338416    0.1151039792403663    0.10948889197791768    0.09515024882202544    