#     DFTpy    
  CRYSTAL 
    
  PRIMVEC    
  6.335931034482758    0.0    0.0    
  0.0    6.335931034482758    0.0    
  0.0    0.0    3.4906896551724134    
  PRIMCOORD    
  4    1    
  Si    0.0    0.0    0.0    
  Si    3.167965517241379    3.167965517241379    1.7453448275862067    
  Si    0.0    3.167965517241379    0.8726724137931033    
  Si    3.167965517241379    0.0    2.61801724137931    
  BEGIN_BLOCK_DATAGRID_3D    
  3d_datagrid_density    
  BEGIN_DATAGRID_3D#0    
  27    27    15    
  0.0    0.0    0.0    
  6.335931034482758    0.0    0.0    
  0.0    6.335931034482758    0.0    
  0.0    0.0    3.4906896551724134    
  0.06029421527604696    0.11050479962055987    0.2721450801332915    0.36414476567838117    0.2762020626769279    
  0.16976031104124906    0.11173608142364264    0.09296903612915124    0.10246147539192708    0.1376326844980029    
  0.1959895064502854    0.262672787277215    0.3107466136871732    0.32671929889673385    0.3107466185883118    
  0.26267279725393217    0.1959894594387936    0.13763263835629896    0.10246147588450875    0.0929690499143962    
  0.11173606716633364    0.16976028225267517    0.2762020978769015    0.36414482581264607    0.2721449535668128    
  0.11050478135829724    0.06029421527604696    0.11050480361359956    0.16723156895298263    0.3110908487857598    
  0.3579956872082321    0.2600034663095947    0.1599394034695153    0.10619508379444834    0.08872973413879948    
  0.0975217029665411    0.13013448331506472    0.184300390664587    0.24707707761030784    0.29427437168869225    
  0.3108386838099747    0.2942744133098806    0.24707709251795432    0.18430033485268105    0.13013445316084762    
  0.09752169756966765    0.08872975357137429    0.10619507359056685    0.15993933905633084    0.26000346467648017    
  0.3579958025243851    0.31109092992731424    0.16723154373115887    0.11050480361359956    0.2721450774577862    
  0.31109093131374793    0.3633262359212549    0.3194901119454243    0.2158197691533463    0.1344833028007045    
  0.09187277042474934    0.07789338713480631    0.08501367516425848    0.11105513026233432    0.15416889166611988    
  0.20528188325412478    0.24638138491447653    0.2619392521231318    0.24638133841068835    0.20528182573014553    
  0.15416893228172107    0.11105513793204712    0.085013703564448    0.07789342382250398    0.09187277231947243    
  0.13448329049648058    0.2158197238499018    0.31949028110404437    0.3633262469055782    0.3110908649489761    
  0.2721450774577862    0.3641447969159727    0.3579958674521838    0.31949017274838687    0.2408794893915501    
  0.15942861912672943    0.10349612399791698    0.07422437074575126    0.06447991630955435    0.06957218874239204    
  0.08770367704867121    0.11724425383899557    0.15236869418030094    0.18145297829111393    0.19280322785453588    
  0.18145296387979912    0.15236866279252304    0.11724428504341823    0.08770366062644444    0.06957217998560437    
  0.0644799036783861    0.0742243684181578    0.1034961203621067    0.1594286103745608    0.24087954532812958    
  0.31949011421012385    0.3579957448479969    0.3641447969159727    0.2762021465218986    0.26000345870273817    
  0.21581975339862008    0.15942858408178634    0.10985337975964286    0.07632807755961833    0.05829802198888709    
  0.0521557382279395    0.05537703132193584    0.0666949962470529    0.08464385122102192    0.10548961795381678    
  0.12265890348967382    0.12937471853245067    0.12265895291180814    0.10548962678877066    0.08464386342810888    
  0.06669497464845972    0.055377032227345364    0.052155749700267    0.05829801918879471    0.07632806596875133    
  0.109853361481859    0.15942862592055354    0.21581973917127248    0.26000341411883143    0.2762021465218986    
  0.1697602795776351    0.1599393441888353    0.13448327761814075    0.10349610899102611    0.07632808365880973    
  0.057286837165430524    0.046644580962372215    0.042923332475118856    0.04478378986219703    0.051372498736552294    
  0.06152464379004526    0.07291123552044458    0.08209074316966189    0.0856453742549545    0.08209076805247618    
  0.07291123404906509    0.06152462591211322    0.05137251462071994    0.044783798390051525    0.0429233431294842    
  0.04664456762758453    0.0572868619121102    0.07632804554134537    0.10349615870533325    0.13448324822817814    
  0.15993934729616788    0.1697602795776351    0.11173611692086864    0.10619510830718412    0.09187277763327815    
  0.07422435585013451    0.058298020039089855    0.04664459635504175    0.039791645569655414    0.03723259659059116    
  0.038214226294729675    0.04204473739027158    0.04781632350407469    0.0541087085809082    0.059059433621490666    
  0.06094002094848198    0.0590594287694969    0.054108719927344576    0.0478163073801234    0.042044742895815314    
  0.03821422523216245    0.03723258726055156    0.03979163218037103    0.04664458778212144    0.0582980221986687    
  0.07422439187411504    0.09187277590027747    0.10619509606277565    0.11173611692086864    0.09296906938009201    
  0.08872974892319355    0.07789340175686814    0.0644798963829255    0.052155748860982364    0.04292336119839393    
  0.03723261301966177    0.03484087230383966    0.035212268847848324    0.03769824682063577    0.041508340844554625    
  0.04560792028175394    0.04876855223428753    0.04994785751025894    0.048768577830038164    0.045607935181595165    
  0.04150832815993355    0.03769824657702506    0.0352122717856979    0.034840865644009116    0.03723259504815917    
  0.042923354727876804    0.052155757378051885    0.06447993017631788    0.07789338304094817    0.08872972289989245    
  0.09296906938009201    0.10246147843449042    0.09752168703013483    0.08501366244828415    0.06957215585692927    
  0.05537702909905012    0.044783791346011376    0.03821422673909026    0.03521224221866782    0.03508425168218801    
  0.03714573570010057    0.040551712120447496    0.044242968376327296    0.04708681456605005    0.048148487308602356    
  0.0470868489836953    0.044242970550232685    0.040551708389512456    0.0371457234521669    0.0350842559750227    
  0.035212259365230335    0.03821421639135519    0.04478380747224861    0.05537701046179336    0.06957220150097428    
  0.08501364893541227    0.09752168609270562    0.10246147843449042    0.13763275315402312    0.130134465245862    
  0.11105511822723335    0.08770367482758817    0.06669497314417042    0.05137250683601136    0.042044733748090604    
  0.0376982320775974    0.03714573053833921    0.03940134286641514    0.04340414074149571    0.047864584190764954    
  0.05135659569207802    0.052670804517395024    0.05135660206881179    0.047864580994500444    0.043404128596442805    
  0.039401342801434244    0.03714573324957939    0.03769825215209623    0.042044735857520325    0.05137251980378332    
  0.06669496739021666    0.08770367757594684    0.11105512329915394    0.13013446255117206    0.13763275315402312    
  0.1959895115456025    0.18430037172155284    0.15416883828992733    0.11724423833173792    0.08464384780759311    
  0.061524641848551304    0.04781632343653257    0.041508334772013974    0.04055171002321535    0.04340412235814179    
  0.048712845653574206    0.05481895926233583    0.05968899474495799    0.06153820143351923    0.059689004581110386    
  0.05481895351600073    0.048712837718641135    0.0434041247353176    0.04055171506158586    0.04150833975213193    
  0.047816311775133    0.06152464937407609    0.08464384084692621    0.1172442546081216    0.15416885348610856    
  0.18430034580205493    0.1959895115456025    0.2626728440443496    0.24707713870237133    0.20528186550268593    
  0.15236869084931084    0.10548966111005276    0.07291124854421208    0.05410871285749366    0.0456079167851032    
  0.04424298380423434    0.04786461562181491    0.0548189779387062    0.06297969706869307    0.0695838604868008    
  0.07213560540425147    0.06958384434496535    0.06297972496769504    0.05481896799904919    0.04786458529796723    
  0.044242992081021004    0.04560793579447463    0.05410871193801043    0.07291123258113585    0.10548960984968374    
  0.15236873429347214    0.20528189608838018    0.24707711004632404    0.2626728440443496    0.31074665627753767    
  0.29427437228195436    0.24638129367851835    0.18145296789197304    0.12265895142710906    0.08209076533125506    
  0.059059397701554064    0.04876855526791189    0.04708682366400454    0.05135659074633429    0.05968898698673044    
  0.06958380483299229    0.07765978422252857    0.08079942727821122    0.07765983031723316    0.06958380717070993    
  0.0596890171631827    0.05135658535434842    0.047086837144521165    0.04876855968426156    0.05905941026786686    
  0.0820907597856332    0.12265890919352172    0.18145304090606343    0.24638131056497498    0.2942743299520687    
  0.31074665627753767    0.32671932969509343    0.3108386176140728    0.26193923663137575    0.19280321546681797    
  0.12937468480285214    0.0856453807166986    0.06093998649938677    0.04994783434438    0.04814847687868111    
  0.05267081661506608    0.06153820018902091    0.07213554600191505    0.0807994084920067    0.08417064783597038    
  0.08079941068590288    0.072135570306703    0.06153817019415643    0.05267079842101824    0.04814849403160706    
  0.049947836463316776    0.06094000179280859    0.08564535787711401    0.1293747301585864    0.19280325148485097    
  0.2619391539606746    0.31083866927798626    0.32671932969509343    0.31074665792521655    0.2942743718435752    
  0.24638130196148744    0.18145292777654368    0.12265894533529717    0.0820907771391236    0.05905941324994911    
  0.04876854931104311    0.04708682589675133    0.05135659988414801    0.05968902461128365    0.06958382315420063    
  0.07765978509499599    0.08079943960490987    0.07765982860175348    0.06958380934094381    0.05968900506990693    
  0.051356585200340706    0.04708684877321057    0.04876855493809341    0.05905941067199603    0.08209077008950882    
  0.12265892277484416    0.18145299397168096    0.24638130415631004    0.29427438428163205    0.31074665792521655    
  0.26267286555632385    0.24707714692549607    0.20528184294244584    0.1523686952008155    0.10548967814873954    
  0.07291124805473922    0.05410871731036229    0.045607927098738364    0.044242976778128974    0.047864600757799386    
  0.054818968898852724    0.06297971107112801    0.06958381629714841    0.07213560248885323    0.06958383472705285    
  0.06297970759717868    0.05481896914605568    0.04786457899375512    0.04424299282042003    0.045607938570418304    
  0.05410871019439715    0.07291124031197527    0.10548961599111509    0.1523687662290827    0.2052818532947833    
  0.2470770839854664    0.26267286555632385    0.19598947342666562    0.18430035847626466    0.1541688485776922    
  0.11724425898667455    0.08464383127884517    0.06152463004410862    0.04781632473179646    0.041508333995760406    
  0.04055171673345244    0.043404144376074046    0.048712839675737085    0.05481894074701443    0.05968898761486933    
  0.0615381719128062    0.05968899055957803    0.05481893444067448    0.048712864957640274    0.04340412584821549    
  0.04055171282257948    0.04150833662415448    0.04781631095327812    0.06152463298832317    0.08464386193413287    
  0.11724427219556803    0.15416880551710238    0.1843003651346359    0.19598947342666562    0.13763271590060733    
  0.13013448521158213    0.1110551105346754    0.08770366513775762    0.06669497833832895    0.05137251137644525    
  0.04204473736704336    0.03769823293611149    0.03714572630295481    0.03940135247369549    0.04340414287945689    
  0.04786457410893563    0.05135658491172639    0.05267080843624482    0.051356595244410524    0.04786457646516228    
  0.04340413362179372    0.039401341515012844    0.03714572774215294    0.03769823665793365    0.042044739024534004    
  0.0513725118665004    0.06669496835875091    0.08770369000587346    0.11105512135459365    0.1301344775655156    
  0.13763271590060733    0.10246146922708817    0.09752170130146835    0.08501367786817206    0.06957216152383809    
  0.055377047955272936    0.04478379269703667    0.03821423057810448    0.03521225093313193    0.03508424951114981    
  0.03714572245597949    0.04055171646313771    0.044242975576838955    0.04708682195308546    0.048148490206128505    
  0.047086821898061244    0.04424298402958633    0.04055170967308056    0.037145727162312056    0.03508425699642636    
  0.035212254768159854    0.038214219928789116    0.04478380787648646    0.05537700999753777    0.06957217740813554    
  0.0850136549016021    0.09752166549815701    0.10246146922708817    0.09296906868038389    0.08872972865401603    
  0.07789340290582523    0.06447990710004889    0.052155751584184694    0.042923351848711336    0.037232612535606426    
  0.03484086215757931    0.03521226828980745    0.037698242846803405    0.041508336106237186    0.0456079201177886    
  0.04876856022060714    0.04994786526568669    0.048768558218561804    0.045607950993182905    0.041508324502742645    
  0.03769824666265139    0.03521228304185379    0.03484085460251781    0.037232603993267104    0.04292334909231142    
  0.05215574300605768    0.06447994333398582    0.07789340374177171    0.08872974637014819    0.09296906868038389    
  0.11173610258821427    0.10619510075167614    0.09187276864576635    0.07422435674283545    0.0582980173548576    
  0.04664459122763882    0.03979164159309041    0.03723259218042225    0.03821422794164822    0.04204474317103916    
  0.04781631947136994    0.054108699204174236    0.05905942614820048    0.060940019487468515    0.05905942558880873    
  0.05410872223597412    0.047816312176547006    0.04204473766396864    0.038214236250388896    0.03723259452828113    
  0.03979163239928076    0.046644591153266045    0.05829801060493571    0.07422438106336553    0.09187276612403901    
  0.10619509956308583    0.11173610258821427    0.16976030161107616    0.15993937534101743    0.13448326266442287    
  0.10349612723029036    0.07632808636020964    0.05728683078685707    0.04664457680113261    0.042923324938027474    
  0.04478379749528282    0.05137251753723436    0.061524640847431686    0.0729112485561086    0.08209075591323937    
  0.08564538424510315    0.08209077481224629    0.07291123859189093    0.06152463323952028    0.05137251757519434    
  0.04478380748821502    0.042923337334532984    0.046644588732810764    0.057286840047765644    0.07632805699733046    
  0.1034961577853379    0.13448323840647924    0.15993933600497715    0.16976030161107616    0.2762021604053758    
  0.2600034468778361    0.2158197363197666    0.1594285864105352    0.10985336988284441    0.07632807496098835    
  0.05829801893240302    0.05215573380270111    0.055377024316130515    0.06669497003549374    0.0846438357827455    
  0.10548963181843098    0.12265892281694114    0.12937472286716206    0.12265893447675194    0.10548961445983068    
  0.08464383992838292    0.06669495699651415    0.05537703258562063    0.05215574487833581    0.058298021950099366    
  0.0763280743624309    0.10985334827873665    0.15942859840792506    0.21581975227459166    0.26000344597317604    
  0.2762021604053758    0.3641448519008868    0.3579958032598647    0.31949013232285217    0.24087948486878472    
  0.15942860518741736    0.10349615334967269    0.07422437193941449    0.06447991974764891    0.0695721836472918    
  0.08770370026592474    0.11724426947319387    0.1523686773124608    0.1814529396678621    0.19280326707002735    
  0.18145297615040062    0.15236865012891182    0.11724426968806984    0.0877036792443428    0.06957217572299658    
  0.06447991505972393    0.07422436461659208    0.103496132615183    0.15942860906549558    0.24087949804850914    
  0.31949018261306417    0.3579957659211033    0.3641448519008868    0.27214506389167087    0.3110909356029876    
  0.36332629757332985    0.31949016873540126    0.21581980122968636    0.13448328414847627    0.09187278074525922    
  0.0778933935958316    0.08501368337600143    0.11105516526792124    0.15416883630271555    0.20528185404060964    
  0.24638137564941776    0.2619392830017312    0.2463813543332959    0.20528184458575993    0.15416886690251594    
  0.11105511174569357    0.08501368356334428    0.07789342663815355    0.09187277740673291    0.13448325728285845    
  0.21581975634652137    0.31949024183943714    0.3633263147424322    0.3110909260078722    0.27214506389167087    
  0.11050481146519492    0.1672315726414175    0.3110908772171365    0.3579957806528149    0.26000346012800596    
  0.15993935713787327    0.10619511058883156    0.08872975086571326    0.09752169771216791    0.13013448026763522    
  0.18430030539175513    0.2470770980766389    0.29427436222802855    0.3108386733969346    0.2942744512014819    
  0.24707708672025006    0.18430033847360816    0.13013449277576983    0.09752170809251635    0.08872973450214544    
  0.10619510144517263    0.15993936023889094    0.2600035028766742    0.3579958354301664    0.31109090745080864    
  0.16723152287116844    0.11050481146519492    0.06029421527604696    0.11050479962055987    0.2721450801332915    
  0.36414476567838117    0.2762020626769279    0.16976031104124906    0.11173608142364264    0.09296903612915124    
  0.10246147539192708    0.1376326844980029    0.1959895064502854    0.262672787277215    0.3107466136871732    
  0.32671929889673385    0.3107466185883118    0.26267279725393217    0.1959894594387936    0.13763263835629896    
  0.10246147588450875    0.0929690499143962    0.11173606716633364    0.16976028225267517    0.2762020978769015    
  0.36414482581264607    0.2721449535668128    0.11050478135829724    0.06029421527604696    0.11350288587578555    
  0.17043315879734586    0.3131028538898243    0.35745604080008503    0.257583621561776    0.15569924662003254    
  0.09942308469924867    0.07740516152356033    0.07751628948869989    0.09434505232661175    0.12464475413713545    
  0.16173668221129506    0.19268495348791764    0.20483699906021172    0.1926849607261794    0.16173669401179255    
  0.12464472900958472    0.09434504605883312    0.07751627621788595    0.07740517468272312    0.09942305059133788    
  0.15569921787137866    0.25758363347922364    0.35745606651718087    0.31310274168407554    0.17043317974659203    
  0.11350288587578555    0.17043435642806107    0.22604129821054544    0.3402274942363805    0.34689699293972565    
  0.24225349607268168    0.14696291942460316    0.09484762380241922    0.07434842303239352    0.07443981713403325    
  0.09011771752443808    0.11826577395357225    0.15262631123050185    0.18137751748548359    0.1927134089179538    
  0.18137760194531316    0.15262633777814663    0.11826575124816605    0.09011768036175181    0.07443982206524055    
  0.07434843788139568    0.09484760210623946    0.14696290002468318    0.24225348132223384    0.34689706065488896    
  0.34022744487105666    0.22604126069003297    0.17043435642806107    0.31369676890099957    0.34089913983796294    
  0.3637117703472741    0.30285773417266976    0.2012293882760379    0.1243761230963104    0.08292516550094399    
  0.06642143304091346    0.06654020773232497    0.07924473761248087    0.10183766805785771    0.1291949022252449    
  0.15209146521343467    0.1611567896581267    0.15209147037088114    0.12919485236428915    0.10183769838522175    
  0.07924471884099887    0.06654022986098236    0.06642146887482878    0.08292515269910718    0.12437609803669782    
  0.2012293875314985    0.3028578442344166    0.36371176584171694    0.34089899273309127    0.31369676890099957    
  0.3597519634977485    0.34914342837548795    0.3041924097781786    0.22633671484230658    0.14965096900093877    
  0.09684052460174568    0.06810876787167834    0.05645048995922827    0.05660964237595977    0.065705042445603    
  0.08159709666123954    0.10052516560143224    0.11619686912621337    0.12235381184869762    0.11619687462957125    
  0.10052514109659354    0.081597127713544    0.06570502421400148    0.05660963204985078    0.05645049061013689    
  0.0681087582076249    0.09684051935532513    0.1496509667542953    0.22633675122724356    0.30419230544209075    
  0.34914333450476026    0.3597519634977485    0.26292826157673815    0.24716309163205077    0.2046850415467228    
  0.15134775176988488    0.10469708183094402    0.07266215616606153    0.05466163147330342    0.04718548375258966    
  0.04731262226151773    0.053229669600215364    0.06334391341216347    0.07505424585648002    0.08457383750457773    
  0.08827574264799248    0.08457388335665239    0.07505427366596389    0.06334392504247528    0.053229649449124804    
  0.04731262728195846    0.04718549478490525    0.054661640497162295    0.07266214682487421    0.10469704528211442    
  0.1513477932695204    0.20468504563372153    0.2471630877637814    0.26292826157673815    0.16557158790739956    
  0.15597806731405867    0.13122971957272733    0.10114860355951524    0.074689599675059    0.05588820046088385    
  0.044918139605808156    0.04024913955869083    0.0403042024998603    0.04396818260371135    0.05009228861727918    
  0.05697990397853202    0.062456790662749645    0.0645502302611811    0.06245680887179904    0.05697991224656366    
  0.050092281315175645    0.04396818940909146    0.04030420633540743    0.04024914710470921    0.0449181345406451    
  0.05588821535325259    0.07468958056928104    0.10114865649642346    0.1312297055866763    0.15597806186413918    
  0.16557158790739956    0.11627584603577532    0.11031830436660696    0.09506137792021278    0.07634070109341423    
  0.05945041368726029    0.04706730315615897    0.039544637067300194    0.036190176868476184    0.03611946435768066    
  0.03850481262422955    0.04242622251664431    0.0467435961353568    0.05009194626175543    0.051332578723045356    
  0.050091937463968374    0.04674360240316231    0.0424262160230167    0.03850480883222134    0.036119464516390865    
  0.036190171760296784    0.039544639263585535    0.047067308006645436    0.05945040272647805    0.07634074459156813    
  0.09506136999056526    0.11031830363738927    0.11627584603577532    0.10686333847798336    0.10155334408643744    
  0.08807318002617226    0.07151714384705754    0.056441725038078094    0.045264270647273126    0.03831990799633076    
  0.035072269398133765    0.03476186145456274    0.036601765213731846    0.03971748837957253    0.043130435803908906    
  0.04575246378868323    0.046712395783930424    0.04575247976765658    0.04313043981080229    0.039717478588027426    
  0.03660176429570431    0.03476187141437902    0.035072262850361226    0.03831988134447686    0.04526426802457216    
  0.05644172511386853    0.07151717535672936    0.08807315347264734    0.10155332501034466    0.10686333847798336    
  0.13151045016600346    0.12438218244381671    0.10628532646146954    0.08421531498886023    0.06435925470240177    
  0.049801048059511466    0.04088164294831302    0.03665972681109717    0.03595978500394507    0.03779365784673227    
  0.04117128461669747    0.04493712538435524    0.047882333461306915    0.048995720919278986    0.04788236580091233    
  0.044937130635238944    0.04117129195226587    0.03779364460523975    0.035959785570140325    0.03665973305113266    
  0.04088164426796781    0.04980105624182202    0.06435925188998991    0.08421535201542565    0.10628530565433421    
  0.12438219284321553    0.13151045016600346    0.1930667288816599    0.18144486951509683    0.15154194162987475    
  0.1151396733225425    0.08315668662741836    0.06043105805819396    0.046890890178860736    0.04052834952025429    
  0.039253569039434    0.04154604705026143    0.04609644902558888    0.051336593910515115    0.05551579161594775    
  0.05711990847994893    0.055515828534426735    0.05133659468888606    0.04609643280313722    0.041546036315520604    
  0.0392535664124843    0.04052837595492667    0.04689088574789105    0.06043105787100006    0.08315668836756693    
  0.11513968534162974    0.15154192958264553    0.18144486849691874    0.1930667288816599    0.28369842689405467    
  0.2673146529353164    0.22213002722648173    0.1637791900700411    0.1119730144114458    0.07612945066512733    
  0.05549641964132718    0.04596539347181917    0.04393975020708697    0.047034296978233046    0.05349053247808172    
  0.0611655882669899    0.0673733301356265    0.06977256411782576    0.06737335254793388    0.06116557830295172    
  0.053490522401470945    0.04703429435448131    0.043939758502316455    0.04596539399207515    0.05549639128474788    
  0.07612943959338492    0.11197298621776566    0.16377918993034218    0.22213002184264524    0.26731463129427985    
  0.28369842689405467    0.35574984277096794    0.3434114541464265    0.2967416919235426    0.22016548678401987    
  0.14559073545199924    0.09384515405620472    0.06485456949384387    0.051739007662484696    0.04890896957724429    
  0.05299175961548454    0.06170111547663066    0.07219708700357885    0.08080395748007066    0.08417359191799739    
  0.08080395528660142    0.07219712653137418    0.06170111282088749    0.05299174424730583    0.04890897894713958    
  0.051739017887585254    0.06485456637030633    0.09384511927401896    0.1455906715697149    0.22016561454077452    
  0.29674168764684555    0.34341141638709705    0.35574984277096794    0.36418457329397086    0.36713811042275607    
  0.3425621220944792    0.2640755356286305    0.1732276471516249    0.10825912173643158    0.07227354984217718    
  0.0562213131900221    0.05275591780718726    0.057662405302017945    0.06820882678488693    0.08105077923829586    
  0.09166702340107002    0.09585823219947262    0.09166705646395311    0.08105077863243612    0.06820880330666225    
  0.057662386436630075    0.05275591890411207    0.05622132740379223    0.07227356257162976    0.10825910717289475    
  0.1732276255783267    0.2640756094280372    0.342562169437029    0.3671379927935828    0.36418457329397086    
  0.35266280483297024    0.3642704292736497    0.3548832669586636    0.28009147045672494    0.18393682819214288    
  0.11384531808342821    0.07511250780529632    0.05791700073960266    0.054209022573841754    0.059415853449627715    
  0.07065687745051517    0.08443230778707835    0.09586281474667827    0.10038004336824222    0.09586279262080362    
  0.08443231641067334    0.0706568305066641    0.059415831499010474    0.054209033156741776    0.057917021375173454    
  0.07511252009119321    0.1138452719103336    0.1839368398198497    0.2800915009720861    0.354883179516342    
  0.36427045328651503    0.35266280483297024    0.3641846352218965    0.3671380494386378    0.34256208998628945    
  0.2640755458069056    0.17322761496014744    0.10825911557450138    0.07227357238913981    0.05622131255889969    
  0.05275592207067262    0.05766239616211381    0.06820883288243383    0.08105077603731926    0.09166702369284567    
  0.09585822203968533    0.09166705156169862    0.0810507951308848    0.06820884118365023    0.05766237512236647    
  0.05275592998179622    0.05622132757874554    0.07227355298041795    0.10825910415849495    0.1732275933171328    
  0.26407557988435026    0.3425620963114105    0.3671380642082942    0.3641846352218965    0.3557499198321868    
  0.3434114362657598    0.29674165252097795    0.2201655417850236    0.14559074084322304    0.09384515468909578    
  0.06485456851137104    0.051739002710835744    0.048908971176965764    0.05299176933287811    0.06170111734852319    
  0.07219709812915522    0.08080395831020633    0.08417359704793691    0.08080395320098936    0.07219709221063543    
  0.06170112723504592    0.05299174898679718    0.048908986299522186    0.05173902469934719    0.06485455455500311    
  0.09384514984430023    0.14559069895270618    0.22016559747962453    0.29674164708474443    0.34341136503276076    
  0.3557499198321868    0.283698399933701    0.2673146597584916    0.22213003153541908    0.16377915835328427    
  0.11197298573193196    0.07612943191857456    0.055496405848623094    0.04596538033065691    0.04393975290042016    
  0.04703429747295376    0.05349053159297093    0.0611656064222261    0.0673733578204544    0.06977253170589258    
  0.06737334086432929    0.06116558286551922    0.05349054775797913    0.04703429343322136    0.043939751845994315    
  0.04596538987484762    0.055496397231978585    0.07612942598047438    0.11197299649549272    0.16377916649114432    
  0.2221299652925696    0.2673146439808028    0.283698399933701    0.19306667960270724    0.1814448751766343    
  0.15154197048943616    0.11513966689540929    0.0831566935216379    0.06043105000030113    0.046890887923661556    
  0.040528362566018356    0.039253565408672475    0.041546047348422016    0.046096451172917455    0.051336590684027655    
  0.05551580714107625    0.057119890688608226    0.055515810104113265    0.051336601716877324    0.0460964425519553    
  0.04154604326042818    0.03925356833259572    0.04052836721552594    0.046890884953219934    0.06043105061613004    
  0.08315668141934929    0.11513969098072194    0.15154195607176188    0.18144490219507828    0.19306667960270724    
  0.13151044064438977    0.12438220259789347    0.10628533925229885    0.08421532321136561    0.06435927917962847    
  0.04980105559906855    0.04088164575339724    0.03665972679952331    0.03595978459056875    0.03779364267559271    
  0.041171290341106774    0.04493713943143405    0.04788234360793096    0.04899571346405592    0.04788235429507502    
  0.04493714953049729    0.04117129049045649    0.037793644676265274    0.03595978240938674    0.03665973207490204    
  0.040881638141301156    0.04980106261267598    0.06435923787452452    0.08421534443442284    0.10628531930217554    
  0.12438217630308972    0.13151044064438977    0.10686332844680002    0.10155331747508173    0.08807317078847123    