#     DFTpy    
  CRYSTAL 
    
  PRIMVEC    
  6.037379310344827    0.0    0.0    
  0.0    6.037379310344827    0.0    
  0.0    0.0    3.3262068965517235    
  PRIMCOORD    
  4    1    
  Si    0.0    0.0    0.0    
  Si    3.0186896551724134    3.0186896551724134    1.6631034482758618    
  Si    0.0    3.0186896551724134    0.8315517241379309    
  Si    3.0186896551724134    0.0    2.494655172413793    
  BEGIN_BLOCK_DATAGRID_3D    
  3d_datagrid_density    
  BEGIN_DATAGRID_3D#0    
  27    27    15    
  0.0    0.0    0.0    
  6.037379310344827    0.0    0.0    
  0.0    6.037379310344827    0.0    
  0.0    0.0    3.3262068965517235    
  0.06019592103295591    0.1054313763306347    0.2557265360614919    0.36781960508273487    0.30634860643677647    
  0.20219068483748537    0.13895858744905373    0.11717942526674696    0.12697997488331134    0.16492032283717253    
  0.22564553938240808    0.29050411266016585    0.33396636417783826    0.347379364564768    0.3339663240123848    
  0.2905041190109608    0.22564552988169673    0.16492032323636252    0.1269799809832877    0.1171794226931764    
  0.13895859515109418    0.20219066557647547    0.3063485983130054    0.367819612531707    0.255726540312783    
  0.10543135732135736    0.06019592103295591    0.10543134538919638    0.1566141514069743    0.29515742924373956    
  0.36698170484708775    0.29111598786992016    0.19131516119898198    0.13235940905808655    0.11210184983478837    
  0.12131227182216169    0.1567566216169932    0.21381503133559346    0.2762921276977518    0.3202783550395907    
  0.3346519596847289    0.3202783682834938    0.27629217055998967    0.21381499292284975    0.15675661833370985    
  0.12131228436211    0.11210184293896819    0.13235942729430408    0.19131518014614948    0.29111602621955485    
  0.36698171056157614    0.29515743791893223    0.15661414001658333    0.10543134538919638    0.25572652625726366    
  0.29515744631280094    0.36013371468922234    0.34110740208582413    0.24773606160401457    0.16301611587574347    
  0.11528062735993692    0.09888594096988584    0.10651989018914886    0.13536951569991518    0.18209006805526587    
  0.23549543371115236    0.27658806744579595    0.2913988076944995    0.27658803876234467    0.23549544176128073    
  0.18209004345059393    0.13536952147837258    0.10651991487402086    0.09888594505274248    0.1152806299848647    
  0.16301610701414926    0.24773604331877325    0.3411074051494375    0.3601336926746477    0.2951574462386588    
  0.25572652625726366    0.36781962504850607    0.36698176433386476    0.3411074299941645    0.2711387242091363    
  0.18885365104786284    0.1277299337801589    0.09391343704428723    0.0821542557523054    0.08774121442981449    
  0.10837587555386699    0.14155189315649638    0.1801455874401146    0.21148140230668455    0.22350611531497847    
  0.21148137069863718    0.18014562326054448    0.1415519159351207    0.10837588092578397    0.0877412192236335    
  0.08215424041246185    0.0939134461007    0.127729942600595    0.18885364525880924    0.2711387025067126    
  0.34110742059143406    0.36698170397183777    0.36781962504850607    0.3063485741888911    0.2911160156974225    
  0.2477360392407836    0.18885364269446764    0.13434790668499277    0.09582990930668027    0.07413504883111004    
  0.06641170977072675    0.07003815618040397    0.08333552315555545    0.104340328756073    0.128411655167756    
  0.14803445737124463    0.15570410193272116    0.14803443945193057    0.12841165891651285    0.10434034052505543    
  0.08333551638020478    0.07003816912197101    0.06641171131538885    0.07413504852041533    0.09582992070829831    
  0.13434789298921476    0.18885362138739922    0.2477360644295855    0.2911159937717725    0.3063485741888911    
  0.2021906698349999    0.19131516844648433    0.16301612800437118    0.12772993136327834    0.09582992218575619    
  0.07276691542558388    0.05935027772851716    0.05440077648110548    0.056482585926317004    0.06446848865250929    
  0.0768718977908855    0.0906990520547712    0.10172638971769254    0.10599390677379487    0.10172637565393088    
  0.09069905573312095    0.07687189909528411    0.06446848451536276    0.05648259622168876    0.054400783329299436    
  0.05935028030040624    0.07276693007409983    0.09582989936026398    0.1277299176970802    0.16301611651929115    
  0.19131518715454615    0.2021906698349999    0.13895859193533816    0.13235943455180138    0.11528063031539319    
  0.09391343209282348    0.07413505448692725    0.059350275710578604    0.05045514226078362    0.04691214958291113    
  0.04791709627909245    0.052682188458468365    0.06003732165862697    0.06809571424759758    0.07438358841429007    
  0.0767555498046584    0.07438358830185618    0.06809571341578692    0.06003732704705853    0.05268218529075877    
  0.04791710044516927    0.04691215530088295    0.0504551405147158    0.059350282068714816    0.07413505074054023    
  0.09391342810678936    0.11528062972913888    0.13235942098613176    0.13895859193533816    0.11717940307038076    
  0.11210185296104586    0.09888593319993756    0.08215424674218577    0.06641170572387209    0.05440077555313178    
  0.046912150713370786    0.043582807261517156    0.04387718679125817    0.04707694107702661    0.05210185683756384    
  0.057578792867310755    0.061794672321397244    0.06334894964688065    0.0617946727147572    0.05757879320059414    
  0.05210186129312145    0.04707693937384326    0.04387719013565729    0.043582808085462645    0.04691215035083385    
  0.054400778950472836    0.06641171922794381    0.08215424935078501    0.09888593342200402    0.11210183512350534    
  0.11717940307038076    0.1269799981972727    0.12131228548925323    0.10651991086542804    0.08774120739296369    
  0.0700381591972259    0.05648258577996581    0.04791710088989472    0.04387718477234517    0.043636588973865985    
  0.04632479349782343    0.05084519691669793    0.0558319614450096    0.059684918717926194    0.061120544305870245    
  0.05968491171024044    0.05583196603755085    0.05084520409656796    0.04632478834673543    0.04363658991794409    
  0.04387719068096152    0.04791709250631029    0.056482590966453715    0.07003815314219163    0.08774120995881757    
  0.10651990708650856    0.12131229319678154    0.1269799981972727    0.16492032730853617    0.15675661754463804    
  0.13536952645974748    0.108375864602113    0.08333551664609042    0.06446847742432327    0.052682181563503745    
  0.0470769348685431    0.04632478988157334    0.04919722623032048    0.054451604332057854    0.060410761122101996    
  0.06513503984615035    0.06696002629950934    0.06513504175951426    0.06041076728808356    0.054451607783809544    
  0.04919722230972997    0.04632480369445872    0.04707694645748004    0.0526821841145271    0.0644684831266864    
  0.08333551546342532    0.10837585897427386    0.13536952563989077    0.1567566146171096    0.16492032730853617    
  0.22564551232461608    0.2138150461149786    0.18209006012520315    0.14155192240289355    0.10434033487470289    
  0.07687190474693961    0.06003732420544066    0.052101871603165976    0.05084521445210939    0.05445162473298186    
  0.0613363242269052    0.0693488972030363    0.0758278287627594    0.07836073576638582    0.07582782317575801    
  0.06934890945102883    0.0613363310405086    0.05445160750085606    0.0508452116979534    0.05210186391051147    
  0.06003732694380021    0.07687191043083313    0.10434034290461873    0.14155190892742484    0.18209005398827047    
  0.21381501243010925    0.22564551232461608    0.29050411530779585    0.2762922048732454    0.2354954280047009    
  0.18014560853075692    0.12841164295644877    0.0906990523709551    0.06809570177725989    0.05757878550378374    
  0.055831963903434485    0.060410753906052425    0.0693489135798655    0.07996387737899244    0.08861325012018331    
  0.09197508169566167    0.08861324697500796    0.07996390828930844    0.06934890914894536    0.06041076122949136    
  0.05583196670641493    0.057578790064344014    0.0680957093366448    0.09069905427003497    0.12841164412632236    
  0.18014558837243638    0.2354954473677535    0.27629215359456727    0.29050411530779585    0.3339663255847599    
  0.3202783851470263    0.2765880449616357    0.21148140989719216    0.14803444561559653    0.1017263935072208    
  0.0743835714397663    0.0617946781581813    0.05968492055224805    0.06513503128235865    0.0758278209987698    
  0.08861324396006962    0.09912478650170807    0.10323075080858143    0.09912478196829923    0.08861325181451174    
  0.07582782788670142    0.06513504605685802    0.05968491252507058    0.061794670135688144    0.07438358645718404    
  0.1017263947637036    0.14803442776882636    0.21148138917293766    0.27658807243493133    0.3202783455375787    
  0.3339663255847599    0.3473793478541428    0.33465201172002734    0.2913988137186273    0.22350611837602485    
  0.15570411463587652    0.10599392345874512    0.07675556010311399    0.06334896690309441    0.061120555094061675    
  0.06696001875265274    0.07836073442646868    0.09197509907795394    0.10323077546050269    0.10765496248317495    
  0.10323076046008678    0.09197509683865139    0.07836074750131856    0.06696001750142594    0.06112056368511934    
  0.06334896059902521    0.07675556593414239    0.1059939188905088    0.15570410043964664    0.2235061083017904    
  0.29139879238792843    0.33465199242547555    0.3473793478541428    0.3339663239306579    0.32027837176622637    
  0.27658805001972464    0.2114813837440099    0.14803443016734932    0.10172639581140935    0.07438357997446127    
  0.06179468195933057    0.05968491298076961    0.06513502989159298    0.07582782433560423    0.08861324957201938    
  0.09912479459801918    0.10323074893706276    0.0991247916453549    0.0886132502308143    0.07582782467909531    
  0.0651350289757264    0.05968492579004435    0.0617946635419107    0.07438358730850005    0.10172638496467479    
  0.14803443932585872    0.21148137586309798    0.27658805842984124    0.32027838395421265    0.3339663239306579    
  0.2905040927525099    0.27629217988654264    0.23549545323038368    0.1801455997767072    0.1284116233922271    
  0.09069905261588071    0.06809571255790145    0.05757878881586718    0.05583197311756359    0.060410753390610285    
  0.0693489131816034    0.07996385953294075    0.08861325296688222    0.09197508706175461    0.088613260935215    
  0.07996390561158186    0.06934890139770285    0.060410753430674494    0.055831967725912916    0.05757879937639137    
  0.0680957102980339    0.09069905076144937    0.12841165090002335    0.1801455802947806    0.23549541733932106    
  0.27629215036191707    0.2905040927525099    0.2256455601549651    0.213815067701338    0.1820900660641365    
  0.14155191624045382    0.10434033429263335    0.0768719107217677    0.060037327317199456    0.05210186888906821    
  0.05084520707764071    0.05445161360223092    0.061336323990436134    0.06934891681006597    0.07582781959574345    
  0.0783607331272104    0.07582782391559334    0.06934892324012301    0.061336346350311446    0.05445161793468106    
  0.05084521199034699    0.05210186047534248    0.06003732973137719    0.07687191737695614    0.10434033510424762    
  0.14155191047220952    0.1820900504826198    0.2138150072533598    0.2256455601549651    0.1649203273980109    
  0.1567566371987278    0.13536951021129565    0.1083758654547719    0.08333551636785616    0.06446848103935428    
  0.05268218682072595    0.04707693437729508    0.04632479083258433    0.04919722586664989    0.054451603928720865    
  0.060410757062427774    0.06513504045130913    0.06696002093271905    0.06513504054521875    0.06041076170250921    
  0.05445161048458045    0.04919722187980145    0.04632479124995449    0.04707693812987347    0.052682182637917636    
  0.06446847888227843    0.08333551152844937    0.10837587923505412    0.1353695216068826    0.15675662242614297    
  0.1649203273980109    0.12697998368571725    0.12131227636152256    0.10651990703773467    0.08774120780479204    
  0.07003816029599293    0.056482584673505254    0.047917093865433545    0.04387718627217464    0.04363658758280413    
  0.04632479569736766    0.05084520230323792    0.055831959562238916    0.05968492023410624    0.06112055441871192    
  0.059684916843649065    0.055831969177499476    0.050845192715326636    0.04632478654609479    0.043636598007495794    
  0.043877190628679    0.04791709250126102    0.056482595109494764    0.07003814853772211    0.08774120725695557    
  0.10651989859854005    0.12131229373168646    0.12697998368571725    0.11717941284843282    0.11210185476708669    
  0.09888594556579337    0.08215424301250131    0.06641171165610392    0.05440077513305854    0.046912158436091284    
  0.043582808770151256    0.04387719128899255    0.04707694495028757    0.05210186134027772    0.05757879069584996    
  0.06179467622681483    0.06334895305402673    0.06179466800868996    0.057578796856665074    0.05210184929067417    
  0.047076942543775945    0.04387719333327391    0.043582811326659726    0.04691215156410327    0.05440077359342058    
  0.06641171101238476    0.08215423937876806    0.09888595300907646    0.11210184918979693    0.11717941284843282    
  0.13895859286895904    0.13235944166560504    0.11528063157690913    0.09391343583418438    0.07413504688183453    
  0.05935027423239564    0.05045513992136361    0.0469121504781848    0.04791709266840163    0.052682188951094645    
  0.06003732471808914    0.06809571847269812    0.07438358851753692    0.0767555471885709    0.07438358039184087    
  0.0680957139665312    0.06003732780524481    0.052682186810070024    0.047917089596741846    0.04691215518020259    
  0.05045513968945068    0.059350274444190915    0.0741350440313192    0.0939134390003795    0.11528062916150064    
  0.13235942704854076    0.13895859286895904    0.20219066461339957    0.19131516946895355    0.1630161265008226    
  0.12772992544276948    0.09582991267688551    0.07276692027228418    0.05935027793563016    0.054400773488322826    
  0.056482583406145245    0.06446848392667029    0.07687189793551386    0.09069904439942147    0.10172638883658278    
  0.1059939016222319    0.10172639707365529    0.09069906099671027    0.07687189867109455    0.06446848456156788    
  0.056482592525072844    0.05440078412202273    0.05935027686779951    0.07276692713527569    0.09582990607687716    
  0.12772993339972916    0.16301611970595264    0.19131517942390538    0.20219066461339957    0.30634856719867476    
  0.29111598844982967    0.2477360786973932    0.18885364278017705    0.13434791600702134    0.09582990592272551    
  0.0741350498657091    0.06641170975567406    0.07003815464480327    0.08333551552698838    0.1043403336109428    
  0.1284116478661243    0.14803443874013825    0.15570411092212078    0.14803443489243678    0.1284116505635245    
  0.10434033204481459    0.08333552438332177    0.07003815878290941    0.06641171512098591    0.07413505221136092    
  0.09582990822350973    0.13434790971555485    0.18885364098960458    0.2477360671698563    0.2911159967269447    
  0.30634856719867476    0.367819625604325    0.3669817542711186    0.34110745145382865    0.27113872915537807    
  0.1888536381083642    0.12772994458616915    0.09391343576257502    0.08215425167399057    0.08774122327332137    
  0.10837587600534133    0.14155188716688558    0.1801456047826608    0.2114814120372112    0.22350612920778193    
  0.2114813978818417    0.18014560411194772    0.14155188412344596    0.10837587230774472    0.08774122470476178    
  0.08215423815851215    0.0939134417836731    0.1277299529415613    0.18885364836619833    0.2711386979012482    
  0.34110742086397833    0.36698174473038275    0.367819625604325    0.25572652754296993    0.2951574698927278    
  0.3601337189129152    0.34110741065147926    0.24773606076010135    0.16301611252247122    0.11528062198003945    
  0.09888593133101821    0.10651989997549544    0.13536952027250163    0.1820900729032108    0.23549542645487198    
  0.27658807029802024    0.29139879389651036    0.2765880516118483    0.23549543623870609    0.18209006355707993    
  0.13536950645788845    0.10651990081831779    0.09888594613706816    0.1152806338076468    0.1630161140077087    
  0.24773606697441977    0.3411073866716961    0.36013369724716404    0.29515743945076695    0.25572652754296993    
  0.10543134450101578    0.15661416270786352    0.29515739511408484    0.3669817245987163    0.29111601102046597    
  0.1913151780230176    0.1323594162143528    0.11210185438919784    0.12131227369442225    0.1567566326176882    
  0.21381501438902628    0.2762921113976628    0.320278372224848    0.334651972547937    0.3202783623418789    
  0.2762921516543287    0.21381500415876079    0.15675663231996015    0.12131228238442003    0.11210184522522754    
  0.13235943916764817    0.19131517754276436    0.29111601606319987    0.3669817093006273    0.29515743817852724    
  0.1566141408855567    0.10543134450101578    0.06019592103295591    0.1054313763306347    0.2557265360614919    
  0.36781960508273487    0.30634860643677647    0.20219068483748537    0.13895858744905373    0.11717942526674696    
  0.12697997488331134    0.16492032283717253    0.22564553938240808    0.29050411266016585    0.33396636417783826    
  0.347379364564768    0.3339663240123848    0.2905041190109608    0.22564552988169673    0.16492032323636252    
  0.1269799809832877    0.1171794226931764    0.13895859515109418    0.20219066557647547    0.3063485983130054    
  0.367819612531707    0.255726540312783    0.10543135732135736    0.06019592103295591    0.10800619794026725    
  0.1595046677267097    0.29774886270501516    0.3673677956513833    0.28877621722295915    0.18632013720536975    
  0.12378941021513555    0.09781891228350142    0.09717556467407945    0.11602296090890744    0.14995897313664722    
  0.19062438987513408    0.22414412045386486    0.23705337936924875    0.22414407027940939    0.19062439597278572    
  0.14995896264146927    0.11602294788581788    0.09717558918377503    0.09781889408577411    0.12378941791298137    
  0.18632013244248902    0.2887761949599062    0.3673677711057158    0.2977488524561694    0.15950466850602896    
  0.10800619794026725    0.1594428371334167    0.2109077569032311    0.32772891671587756    0.3615208380031645    
  0.2738586991448478    0.17651791138402367    0.11827646342657105    0.09408299307324687    0.09353024446282229    
  0.11115530269448255    0.1428412051582606    0.18090053247860718    0.21235693502977446    0.22449307683429415    
  0.21235693243819895    0.18090054381832266    0.14284118225614717    0.11115529549674705    0.09353025816034495    
  0.09408298545739677    0.11827649117374049    0.17651792369386318    0.27385870958393993    0.36152080975370826    
  0.32772892526984326    0.2109077201686202    0.1594428371334167    0.2974319376851334    0.3274669150802718    
  0.3663676510569392    0.3276281561440859    0.23264982537024387    0.15118543917158433    0.10397881313482696    
  0.0842455907886217    0.08388201821954415    0.09837488213429793    0.12420499365992656    0.15520712888827237    
  0.18098013336037602    0.1910037780048299    0.18098011314207865    0.1552071705929022    0.12420498153673866    
  0.09837486923340842    0.08388202808188974    0.08424558593029867    0.10397880475450175    0.15118543338104595    
  0.23264982687596963    0.327628132578755    0.3663676389020817    0.32746686984639206    0.2974319376851334    
  0.3683819061637438    0.36251204015516925    0.32850608750941585    0.25714557249178965    0.1781794184355161    
  0.11965137827204775    0.08597901818057442    0.07166468548233682    0.07145410027914717    0.08206213953647468    
  0.10068987409630087    0.12273255701417973    0.14102376649512147    0.1482104790059711    0.14102373141665123    
  0.12273257369250513    0.10068989506122594    0.08206214266593566    0.07145410652372525    0.07166467108121717    
  0.08597902546205424    0.11965138104802764    0.17817941691599742    0.2571455761379061    0.3285060492015066    
  0.3625119687653477    0.3683819061637438    0.2944038706381092    0.2791022066961646    0.23670023002696547    
  0.18046544627289482    0.1284956408639638    0.09118010698908526    0.06927239055796687    0.059763671218845765    
  0.059618573731076464    0.06667469794229755    0.07892004811488819    0.09306874618288785    0.10458989135934839    
  0.10910507150604076    0.10458987305112805    0.09306874280686057    0.07892007185750426    0.0666746988669064    
  0.059618575216853396    0.05976367962224122    0.06927238866331069    0.09118011056271223    0.12849564305879427    
  0.180465451734356    0.2367002539908323    0.2791021698543675    0.2944038706381092    0.19842066837366598    
  0.1877423656761878    0.1599783763568105    0.1254211922229144    0.09403220684911705    0.07095763473397175    
  0.05696342574342327    0.05073113231013224    0.05055053542421743    0.05503083813779758    0.0627381878130816    
  0.07144166563921395    0.07834522491182482    0.08099958481307104    0.0783452122558579    0.07144166871767925    
  0.0627381888292885    0.055030836757080995    0.05055053904364131    0.05073113123659946    0.056963424224549114    
  0.07095764744530324    0.09403219345381401    0.12542118479753797    0.15997837231069195    0.18774236871638084    
  0.19842066837366598    0.14511313921294192    0.13808184217616082    0.11979403776779476    0.09692408055783425    
  0.07584730612925861    0.059980525598911635    0.05007159521464218    0.04544065040909385    0.045105346904097746    
  0.04808117865997658    0.05318432561510819    0.058861166479398354    0.06328175242544974    0.06494159236031453    
  0.06328176223236662    0.058861170002433405    0.053184325473913704    0.04808117018341266    0.04510535199315257    
  0.04544065106931054    0.050071596226308614    0.05998052538278673    0.07584730360449761    0.09692408499033248    
  0.11979404177340942    0.1380818391892215    0.14511313921294192    0.13417099999721435    0.12791703300649515    
  0.11162043103573616    0.09111979239721896    0.07206021808878561    0.057588683442074684    0.04840440384605089    
  0.04390557174985168    0.04327845425362489    0.04560978901970626    0.04975134846660512    0.05436136523022984    
  0.05792419939592146    0.059247092676785545    0.05792419634664552    0.054361367391119936    0.04975134634473786    
  0.04560978866255604    0.043278455894267015    0.043905575892294484    0.04840440312347521    0.057588684123527696    
  0.0720602279879043    0.09111979694531859    0.11162042837044923    0.12791701720005832    0.13417099999721435    
  0.1605526844315878    0.15251260519155355    0.13166759401186381    0.10554624936183764    0.08133155726438303    
  0.06306025270883743    0.05155940222091233    0.04588858438573793    0.04478985281806455    0.047095504905166403    
  0.05156879227613686    0.05666399346694684    0.06064878982092236    0.06215513321982912    0.06064878420783033    
  0.056663995684175184    0.05156879538576674    0.04709550476713617    0.044789855713473235    0.04588858409509824    
  0.05155939495568086    0.06306025960150885    0.0813315454253963    0.10554625499789974    0.1316675823892792    
  0.15251262554177675    0.1605526844315878    0.22463211113568354    0.2124980536738807    0.18057483492432838    
  0.14023036914655468    0.10319987743353061    0.07588054697853545    0.059069758688852295    0.05088224400458221    
  0.04909223411354862    0.05192605348597156    0.05780840950046279    0.06469730786343211    0.07024234248708727    
  0.07240208786099164    0.07024235041805352    0.06469730968308994    0.05780840674139962    0.05192605084694027    
  0.04909224250522142    0.05088224991273078    0.05906976724235129    0.07588055439633512    0.10319988086344317    
  0.14023037206122402    0.1805748307424484    0.2124980493580065    0.22463211113568354    0.31049072893004087    
  0.29569271874605424    0.2525771416601241    0.19273714354792917    0.13602116071520265    0.09467600555898359    
  0.06982954276942983    0.057915727218360614    0.05523240062190015    0.05906611004924171    0.06723324492687517    
  0.07702608911771457    0.08507691353262448    0.08823907968021925    0.08507690164533571    0.077026098468078    
  0.06723324999469524    0.05906610174147828    0.0552324013146484    0.05791571838814161    0.06982955206728145    
  0.09467600835030912    0.1360211601256395    0.19273709985825171    0.2525771561032998    0.29569269692094374    
  0.31049072893004087    0.3651543522208245    0.3580462528233251    0.32187280423557724    0.25053475275265474    
  0.17318038823285342    0.11552392988126786    0.08149083199122575    0.06545200743248647    0.0617936006813614    
  0.06675881442281081    0.0775429619977232    0.09075239273580131    0.10171051732331175    0.10598973734226817    
  0.10171050511807281    0.09075240275135778    0.07754295113696794    0.06675881643838778    0.061793597695082386    
  0.06545201167668685    0.08149084503296503    0.11552392807336474    0.17318041159024752    0.2505347155669517    
  0.32187278805056607    0.3580461811356226    0.3651543522208245    0.3578062079321829    0.36682469564158754    
  0.358525935934396    0.293346339536958    0.20315609477748048    0.13228402877997297    0.09063130454211038    
  0.07125022082358914    0.06683310068881733    0.07278159701860473    0.08575001559566546    0.10173759888071017    
  0.11510587029700096    0.12033674011796335    0.11510586659400913    0.10173759869686963    0.08575001726811872    
  0.07278160240179372    0.06683311264015608    0.07125022062278909    0.0906313154913355    0.13228401477386467    
  0.20315609954989522    0.293346327062651    0.35852593463617455    0.3668246328053205    0.3578062079321829    
  0.3415138007508744    0.3584367979170446    0.3662500039170768    0.30838853307836134    0.21475455555949458    
  0.13881506940608948    0.09410142612063128    0.07339103124554741    0.06870122441811273    0.07509121525124542    
  0.08895140398137957    0.10601316524498536    0.12033493826003576    0.12596826684782178    0.12033491472624105    
  0.1060131583823847    0.08895142537770136    0.07509119952853341    0.06870122534753668    0.07339102930445832    
  0.09410143918550695    0.13881506128754592    0.21475452484954916    0.3083885318362446    0.3662499777350064    
  0.35843680385878124    0.3415138007508744    0.3578062226808021    0.36682465136438086    0.35852595471629417    
  0.2933463322193369    0.20315610695292202    0.13228402743446707    0.0906313065708888    0.07125021732450272    
  0.06683310777129786    0.0727815939208888    0.08575001487656989    0.10173761572006611    0.11510586660278836    
  0.12033674329120389    0.1151058575351638    0.10173760557188423    0.08575001460013892    0.07278159313771179    
  0.06683311527992734    0.07125020867339182    0.09063132105151978    0.1322840233456172    0.20315612920033904    
  0.2933463182166878    0.35852597140252684    0.3668246749067752    0.3578062226808021    0.36515434843495265    
  0.3580462202765748    0.32187281201917295    0.25053475277167003    0.17318038420135615    0.11552393425697058    
  0.08149083579598598    0.06545200603985556    0.06179360325362294    0.06675880640518253    0.07754295876849714    
  0.09075236920628141    0.10171052051892739    0.10598974547865343    0.10171051514299001    0.09075240586197358    
  0.07754294889798699    0.06675880300668925    0.0617936028838935    0.06545201970649998    0.0814908386993861    
  0.11552393764863948    0.1731804007682186    0.25053469483673296    0.3218728004071862    0.3580461771853014    
  0.36515434843495265    0.31049076643839735    0.29569273872375035    0.2525771576385937    0.1927371158981522    
  0.13602114111882888    0.09467600763652775    0.069829557137018    0.05791572023869197    0.05523240544234089    
  0.05906609664890334    0.06723324509482305    0.07702610987755108    0.08507689936557629    0.08823907589215263    
  0.08507688664214146    0.07702611542687438    0.06723325497006906    0.059066105508793765    0.05523240457549928    
  0.05791571908227267    0.06982955174539589    0.09467601210964006    0.1360211503951028    0.1927371156321135    
  0.25257714701723827    0.2956926949311389    0.31049076643839735    0.2246321058696419    0.21249806362616708    
  0.18057481208590395    0.14023036086845045    0.1031998814129899    0.0758805517242478    0.059069761433195284    
  0.050882242898300796    0.049092233892832356    0.05192605537826196    0.05780840610485525    0.06469729972751469    
  0.07024234355747289    0.07240209708320752    0.07024233978178034    0.06469731304262612    0.057808408410577564    
  0.0519260523533633    0.04909224085073482    0.05088224826070704    0.05906975884522289    0.07588055268413677    
  0.10319988066894906    0.14023038845845762    0.1805748390181306    0.21249803956760246    0.2246321058696419    
  0.1605526652894786    0.15251260748629517    0.13166758981274088    0.1055462442374117    0.08133155356751254    
  0.06306024798438835    0.05155939742907637    0.04588858536334936    0.044789853078917294    0.04709550550074717    
  0.05156879432453672    0.05666398973438947    0.06064879066011788    0.06215513742038879    0.060648783357667616    
  0.056664000874952644    0.05156879119778901    0.04709549708878239    0.0447898571883661    0.04588858744533852    
  0.05155939261668084    0.06306025709167172    0.08133155222819238    0.10554625631293686    0.13166758411183674    
  0.15251262131146184    0.1605526652894786    0.1341710127057785    0.12791703655437353    0.11162042942875133    
  0.09111979332533653    0.07206022072624922    0.057588680354501716    0.04840440663927718    0.04390556922742002    