#     DFTpy    
  CRYSTAL 
    
  PRIMVEC    
  5.539793103448275    0.0    0.0    
  0.0    5.539793103448275    0.0    
  0.0    0.0    3.0520689655172406    
  PRIMCOORD    
  4    1    
  Si    0.0    0.0    0.0    
  Si    2.7698965517241376    2.7698965517241376    1.5260344827586203    
  Si    0.0    2.7698965517241376    0.7630172413793102    
  Si    2.7698965517241376    0.0    2.2890517241379307    
  BEGIN_BLOCK_DATAGRID_3D    
  3d_datagrid_density    
  BEGIN_DATAGRID_3D#0    
  25    25    13    
  0.0    0.0    0.0    
  5.539793103448275    0.0    0.0    
  0.0    5.539793103448275    0.0    
  0.0    0.0    3.0520689655172406    
  0.06067003733541352    0.10602868958386683    0.25903112728855465    0.38360694188481637    0.33681351809899684    
  0.24245882806230012    0.1894447512279162    0.18267496703248456    0.21438160225459002    0.2744463392863537    
  0.3360958841952577    0.3697609035599845    0.37720267059000684    0.36976102284502543    0.3360958088536822    
  0.2744465431615414    0.21438142563154436    0.1826751218010548    0.18944457984977162    0.24245902550032947    
  0.3368133223865218    0.38360711305618883    0.25903103485764445    0.10602871199631306    0.06067003733541352    
  0.10602866061838917    0.15756315113975677    0.29963731687243583    0.3831444663775186    0.3199260543003682    
  0.22900372469286456    0.17956073930715602    0.17327229396007918    0.20296199491388184    0.25971861267755064    
  0.32049310010428456    0.3580017150419453    0.3683129998534449    0.35800171059622143    0.3204931175573763    
  0.25971840834128845    0.20296212903048177    0.17327213212001077    0.17956094350343285    0.2290035079591653    
  0.319926189541674    0.38314434390813157    0.29963741627245233    0.15756306228423647    0.10602866061838917    
  0.2590311710550308    0.2996374135935639    0.3691091353456032    0.3583648673399746    0.2727626053821747    
  0.19432032459845502    0.154206029618162    0.14915903759017712    0.1734589444576054    0.2206928670637307    
  0.27536797839958754    0.3159000918098186    0.32990826011809143    0.3159001418414336    0.27536786164407906    
  0.22069299293712805    0.17345880504157646    0.14915920401853966    0.15420585108546905    0.19432051968881123    
  0.2727624176741366    0.3583650740594586    0.3691090447374568    0.2996373168225181    0.2590311710550308    
  0.3836068621288557    0.383144515208324    0.35836484612968983    0.2905514737442148    0.21044806646182415    
  0.15204525644490482    0.12318769437563036    0.11953442131808385    0.136947313521024    0.17103253706998678    
  0.21246804979091954    0.2462533659026933    0.2590038813117045    0.24625335775429175    0.21246812937877704    
  0.1710324505606174    0.13694746664642596    0.11953427692543135    0.12318782793416337    0.15204511064376272    
  0.21044821739708972    0.2905513094575357    0.35836492674038656    0.38314446960599857    0.3836068621288557    
  0.3368135842294699    0.3199259583077656    0.2727626564323762    0.21044804750826385    0.15379389294767012    
  0.1150053281512942    0.09565722002785655    0.09300133992370184    0.10425478849517587    0.12615128468642978    
  0.15300854681908693    0.17550989271361989    0.18421615687986723    0.17551001000526809    0.1530084425171699    
  0.12615141252258297    0.10425465065827726    0.09300146073383682    0.09565709319252336    0.1150054596417936    
  0.15379373446018874    0.21044818562454884    0.27276255625132617    0.31992603114515183    0.3368135842294699    
  0.24245873935376208    0.22900381750535362    0.19432025388324384    0.15204528086457605    0.11500529578986962    
  0.08950047349870005    0.07637059251920206    0.07418755129224479    0.08110461867384818    0.09471411450072868    
  0.11121581920382465    0.1250375262395916    0.13045246774735167    0.1250375234854951    0.11121590343765703    
  0.09471403018517817    0.08110471532535225    0.0741874366868523    0.076370707533221    0.0895003424857463    
  0.11500541743571852    0.15204518156757724    0.19432034296791173    0.22900373175835928    0.24245873935376208    
  0.18944484664402703    0.17956070250702116    0.15420607948290022    0.12318765109659424    0.095657245768696    
  0.07637058851047725    0.06614871689654435    0.06393237253820708    0.06828974569862543    0.07740440652000169    
  0.0884250538416468    0.09760938415202643    0.10125218584099717    0.09760940669518242    0.0884249913293679    
  0.07740449129711319    0.0682896539897436    0.0639324699775045    0.06614860832971844    0.07637069259881488    
  0.09565713766775663    0.12318775105801893    0.15420598129490798    0.17956070459430146    0.18944484664402703    
  0.18267485635714759    0.1732723999785322    0.1491589849152862    0.11953446738592514    0.09300130795805645    
  0.07418756769495116    0.06393235835702812    0.06117926041704365    0.0644162120293579    0.07188560228617029    
  0.08106386285277022    0.08874073089668806    0.09179048860178024    0.08874072077137668    0.08106390129231385    
  0.0718855191948191    0.06441629798366177    0.0611791524234979    0.06393247246345987    0.07418744226157849    
  0.09300143206766194    0.1195343823197734    0.14915905303357027    0.1732723313042698    0.18267485635714759    
  0.2143816909147826    0.20296189962321476    0.17345901313845308    0.13694722188312353    0.10425481893454305    
  0.08110460744021963    0.06828974845058305    0.06441620069886714    0.0675467563711086    0.07554300804078526    
  0.08566215290669851    0.09416566970554406    0.09748809615999188    0.09416573660085098    0.08566208940751778    
  0.07554311469528253    0.06754666442590991    0.06441631754293985    0.06828964194302331    0.08110471714834012    
  0.10425470913410302    0.1369473802895882    0.17345890696128802    0.20296194108693322    0.2143816909147826    
  0.2744462364074934    0.259718687430525    0.2206927817338381    0.17103259126924036    0.12615126234651594    
  0.0947141442229369    0.07740440108146791    0.07188559417145492    0.07554301596233225    0.08563258725018834    
  0.09872099778678943    0.10984836745692109    0.11417228596805704    0.1098483482750243    0.0987210379960995    
  0.08563249364971894    0.07554311834845029    0.07188548127455446    0.07740451551634983    0.0947140024008423    
  0.12615135485243512    0.17103249695225176    0.22069285778481906    0.25971865991085846    0.2744462364074934    
  0.33609602186123877    0.3204929130524072    0.2753680952194402    0.2124679828203248    0.15300854037267783    
  0.11121580922451191    0.08842506252095639    0.08106382195955428    0.08566216665324763    0.09872097508501079    
  0.1158417666202005    0.1306031282819006    0.13640380528026377    0.130603219551311    0.11584166713747752    
  0.09872107311899841    0.08566204923360646    0.08106396023661748    0.08842494887073041    0.1112159286402572    
  0.1530083956187431    0.21246813687609728    0.275367961883343    0.32049304135504    0.33609602186123877    
  0.3697608075391667    0.35800187571496705    0.31589994061596377    0.24625343121996296    0.17550987762019524    
  0.12503757486483316    0.09760935224366332    0.08874073157011682    0.09416568138669147    0.1098483449893774    
  0.1306031525849285    0.14870763471473833    0.1559027099275989    0.1487076070172577    0.13060322319265796    
  0.1098482829272513    0.09416575477324726    0.08874060766238394    0.09760949769599314    0.12503744529290378    
  0.17551002060216744    0.24625332401058161    0.315900048371035    0.3580017476611493    0.3697608075391667    
  0.3772028685032829    0.3683129720973309    0.329908324637521    0.25900383807519084    0.184216189218006    
  0.13045243804280895    0.1012522022742587    0.09179050554463833    0.0974881135807507    0.11417232418309882    
  0.136403789520854    0.15590274932888223    0.163696104667761    0.15590277874101158    0.13640370739667    
  0.11417245209280157    0.09748799494550422    0.0917906288785604    0.10125205250744863    0.13045259822460062    
  0.18421603912042628    0.25900400486511904    0.32990825419846687    0.3683129890610296    0.3772028685032829    
  0.3697609014846703    0.35800178031655655    0.3159000188303586    0.24625335612341656    0.1755099693676832    
  0.12503752329595752    0.09760941360707148    0.0887406887795588    0.09416571034661551    0.1098483437097444    
  0.1306032220818044    0.14870755959668444    0.15590274501576262    0.14870759173542267    0.130603272623646    
  0.10984823569989267    0.09416584246748963    0.08874056065198159    0.09760954888662074    0.12503735466353874    
  0.17551008863979933    0.2462532185435301    0.31590011796669987    0.35800166457187454    0.3697609014846703    
  0.3360959087487144    0.320493155020044    0.2753679007169558    0.21246812403573076    0.15300842017640615    
  0.11121591820883171    0.0884249833042299    0.08106391155132703    0.08566207446411955    0.09872108494076522    
  0.11584160995030994    0.13060325914462056    0.136403701654063    0.13060332487941653    0.11584153257961063    
  0.09872117916671827    0.08566195707775295    0.08106405045175791    0.0884248335559646    0.1112160585882524    
  0.15300829179595934    0.2124682398177077    0.275367833266184    0.32049310523410574    0.3360959087487144    
  0.27444645570302517    0.2597184811529392    0.22069301782347106    0.17103244078778496    0.12615140809800832    
  0.09471400432063398    0.07740452840414815    0.07188548580170985    0.07554314071971353    0.08563246136621794    
  0.09872113538542417    0.10984823174703108    0.11417244542798269    0.10984822803267995    0.09872115354231957    
  0.08563237621545979    0.07554325670222051    0.07188536558121746    0.07740464175720715    0.09471387583037115    
  0.12615153912823446    0.171032333004262    0.22069306508400366    0.25971840270446694    0.27444645570302517    
  0.21438142967730503    0.20296212343568898    0.17345881910028504    0.13694745871598676    0.10425463591029327    
  0.08110475430669219    0.06828960306276506    0.06441633385354023    0.06754660742649855    0.07554318698054917    
  0.08566200661487192    0.09416583838711885    0.0974879173370793    0.09416591284871399    0.08566194636553713    
  0.07554326326637266    0.06754651375286029    0.06441645226216014    0.06828949296801269    0.08110486454916305    
  0.10425452059034791    0.1369475705539291    0.17345872620570968    0.2029621883071211    0.21438142967730503    
  0.18267510632725012    0.17327216387980898    0.1491592191351358    0.11953423549561651    0.09300148382134608    
  0.07418740286395592    0.06393251687154165    0.061179096339208185    0.06441636930244789    0.07188542356207006    
  0.08106402094371849    0.08874054535839754    0.09179068576960177    0.08874053204949164    0.0810640726940778    
  0.07188535522184104    0.06441645176329511    0.06117900816816591    0.06393262364309876    0.07418728941825685    
  0.0930016176558833    0.11953416924751749    0.14915929975609873    0.17327206523595892    0.18267510632725012    
  0.18944456939356405    0.17956098083642016    0.15420581831043811    0.1231878809002357    0.09565705956296908    
  0.07637076468427788    0.06614854784978    0.06393253493531345    0.06828957571846864    0.07740458490531654    
  0.08842487862316858    0.09760956933247983    0.10125198388480852    0.09760961533271677    0.08842478323919847    
  0.07740466652435862    0.06828948063794117    0.06393264259273795    0.06614842742342347    0.07637087776116132    
  0.09565693690402054    0.1231879705950771    0.15420573607077134    0.17956097753777792    0.18944456939356405    
  0.2424590209636736    0.22900353969178816    0.19432054743457539    0.15204505948433703    0.11500549925348233    
  0.0895002905308553    0.0763707631359417    0.07418737645385604    0.08110478875259    0.09471392917065782    
  0.11121604220535054    0.12503731759297596    0.1304526719089686    0.12503731605634263    0.11121612655158887    
  0.09471384955572575    0.08110489462802259    0.07418726726326835    0.07637089039377003    0.08950015188579237    
  0.11500563083534113    0.15204495136384777    0.19432059302655558    0.22900346562979318    0.2424590209636736    
  0.33681327907592856    0.319926281464462    0.2727623664725578    0.21044827214374204    0.15379368338859414    
  0.11500551235442845    0.09565705751394406    0.09300150550047405    0.10425462015324592    0.12615148641178478    
  0.15300830987732275    0.17551012614584163    0.18421591962526465    0.1755102238525983    0.15300818639231    
  0.12615158012853747    0.10425448143758577    0.0930016383107099    0.0956569200770798    0.11500564341238578    
  0.15379354127861544    0.21044844492109585    0.27276225846148416    0.31992626798387025    0.33681327907592856    
  0.38360709407268273    0.3831442901331598    0.35836505204497954    0.29055123247012804    0.210448279262005    
  0.1520450750479662    0.12318784861186649    0.11953426754710685    0.13694747416712275    0.17103235883097972    
  0.2124683087812965    0.24625316764772098    0.2590040397712714    0.24625313066091117    0.2124683136246851    
  0.17103227206988286    0.13694761455485832    0.11953412763773283    0.12318797776004077    0.15204494565774027    
  0.2104483988183443    0.290551105591983    0.3583652460115101    0.3831442359748794    0.38360709407268273    
  0.25903096556234373    0.2996374925102476    0.3691090465576503    0.358365102003335    0.27276246706059354    
  0.19432044847723032    0.15420589829416628    0.14915916611021693    0.17345882830622014    0.22069302014604839    
  0.2753678706452987    0.31590021087700226    0.3299081345459002    0.31590033870783285    0.27536770748050154    
  0.22069315045460952    0.17345865280062786    0.14915932097683818    0.15420573733177032    0.19432063239666428    
  0.2727622659509702    0.3583652427694883    0.36910888382245155    0.29963757771063515    0.25903096556234373    
  0.10602871854291097    0.15756309041318553    0.29963740852596804    0.3831443751384028    0.31992611038639157    
  0.22900366040412415    0.17956082646572158    0.17327222218344923    0.2029620562414875    0.2597184549385147    
  0.32049315232480463    0.358001575030111    0.36831313441700514    0.3580015903326147    0.3204932162453271    
  0.2597183616638555    0.2029621881757638    0.17327206992010386    0.1795610127349866    0.22900344510182244    
  0.3199263098415336    0.3831442281410143    0.29963754551783817    0.1575629724331749    0.10602871854291097    
  0.06067003733541352    0.10602868958386683    0.25903112728855465    0.38360694188481637    0.33681351809899684    
  0.24245882806230012    0.1894447512279162    0.18267496703248456    0.21438160225459002    0.2744463392863537    
  0.3360958841952577    0.3697609035599845    0.37720267059000684    0.36976102284502543    0.3360958088536822    
  0.2744465431615414    0.21438142563154436    0.1826751218010548    0.18944457984977162    0.24245902550032947    
  0.3368133223865218    0.38360711305618883    0.25903103485764445    0.10602871199631306    0.06067003733541352    
  0.11658375880585385    0.16850534056863645    0.3057419062990371    0.3779654261870923    0.3077829079706372    
  0.21263631687200069    0.15733558168309253    0.1407510950070744    0.15306053147822063    0.18714412478637565    
  0.23159782835217602    0.26892293377561144    0.2833557936005901    0.26892295049990705    0.23159795532299796    
  0.18714403620111564    0.15306066241395835    0.14075091681373622    0.15733571942851354    0.21263617365002654    
  0.30778313112265343    0.37796526314233203    0.3057420015030208    0.16850525849148149    0.11658375880585385    
  0.16883705567773152    0.22018589501655297    0.33568046451609174    0.37228467583387936    0.29225541334736466    
  0.20152286249471277    0.1498926649806347    0.13440195926829587    0.1459531027369755    0.17774614449064033    
  0.219236664945832    0.25440946619894106    0.2681419127501714    0.25440956647585344    0.21923651655391665    
  0.1777462091269998    0.14595299246811835    0.13440212285252956    0.1498925110366621    0.20152298210243072    
  0.29225516094427056    0.37228484896694075    0.3356803052888244    0.22018590820753758    0.16883705567773152    
  0.3088262345644359    0.3383838707142111    0.3763632862565595    0.33985164604129575    0.24970738611939705    
  0.17280345346486187    0.13072097414123435    0.11806771404540893    0.12758222754243662    0.15345943971629492    
  0.18725541173636956    0.21630460224158016    0.22778002729660443    0.21630452350907972    0.18725551735562285    
  0.1534593346877212    0.12758234918892153    0.11806759548149157    0.13072108569514776    0.1728033007722819    
  0.24970752325158976    0.3398515276112152    0.376363440917049    0.33838368217500375    0.3088262345644359    
  0.3886089721139661    0.3819640214884021    0.34597888702469903    0.2734891237353689    0.19492563532247092    
  0.1378494097067125    0.10716238025385413    0.09783992474745659    0.10478895819113884    0.12348650985323452    
  0.1478339576576311    0.1687612600486715    0.17699147953343505    0.16876134047302782    0.14783385000105467    
  0.12348665009811319    0.10478885866835103    0.09784004114158258    0.1071622440534036    0.13784955679235314    
  0.19492544433480102    0.27348930254748843    0.3459787757862999    0.3819640757186866    0.3886089721139661    
  0.3289444762156061    0.31148418384549276    0.2638011160187231    0.20205576958435792    0.14632916819397324    
  0.10750235107674096    0.08634418180111492    0.07973962793912787    0.08437320324296506    0.09690502960037008    
  0.11306448527979954    0.12683270281882755    0.132207966570184    0.12683269533489186    0.11306456507397931    
  0.09690496164676221    0.08437328585277146    0.07973950180569368    0.08634430571946625    0.1075022105378996    
  0.14632929158394442    0.20205567089857643    0.26380120293127196    0.3114841232723083    0.3289444762156061    
  0.24690093069427424    0.23289394942780126    0.1969640713229732    0.1531461225542054    0.11447884367405149    
  0.08734887294652734    0.07229813018323784    0.06737705373361204    0.07032298228413601    0.07876536735355563    
  0.08960416298478037    0.09874902321488163    0.1023267480213784    0.09874910269395368    0.08960409217268774    
  0.07876546455423261    0.07032288066382479    0.06737716091329723    0.07229802187363521    0.08734898246824059    
  0.1144787296119156    0.15314627024992356    0.1969640019236473    0.23289396090282483    0.24690093069427424    
  0.20993809860795293    0.19846211730541707    0.16915623205974847    0.13335881135867741    0.10144458674973184    
  0.07881913195208692    0.06615563573862616    0.061794536176142535    0.06380064334472052    0.07029718004656203    
  0.0787088649038239    0.08578237945016186    0.08856387202858426    0.08578232514853291    0.0787088971489008    
  0.07029711167526168    0.06380074098357662    0.061794439559640243    0.06615574228371951    0.07881902606940751    
  0.10144470239049923    0.13335870991540483    0.1691562783020445    0.19846205936469952    0.20993809860795293    
  0.22352231281041207    0.21111752800762074    0.1793693119607654    0.14057898939728214    0.1060757238670421    
  0.08157574244751727    0.06771854302457107    0.06276016215881058    0.06457056923886603    0.07102850750072541    
  0.07949741256098915    0.08667005361235883    0.08949388173108663    0.08667011108402614    0.07949734749817768    
  0.07102857881775226    0.06457047078932165    0.06276026374919355    0.06771843942471768    0.08157584322490384    
  0.1060756233050963    0.14057913678704492    0.17936920061252848    0.2111175204725341    0.22352231281041207    
  0.2825276017081701    0.2668257794294562    0.2254559725183753    0.1736069681570225    0.12732229732240116    
  0.0947395204975438    0.07633980638962798    0.0696414450158332    0.07176811009193292    0.07985908517784494    
  0.09064992688618354    0.09989461468685058    0.10351926176872416    0.09989464405318585    0.0906499582321007    
  0.07985903431374657    0.07176820410119214    0.06964133651275672    0.07633991408318425    0.09473939242734455    
  0.1273224331293869    0.17360689693261605    0.22545601558459366    0.26682570450060417    0.2825276017081701    
  0.35829226741234754    0.34305332253190324    0.29615675431678035    0.22790135420973323    0.16256702408970317    
  0.11626299581381339    0.09049125542586023    0.08108815850364642    0.0838416253278989    0.09490505889806625    
  0.10991584494988679    0.12296506157242197    0.12811409272957353    0.12296512240431515    0.10991573598577216    
  0.0949051334079153    0.08384152317908102    0.08108827061585103    0.09049112347711306    0.11626312695703214    
  0.1625668755505483    0.22790147428736882    0.29615659575506265    0.34305338177795336    0.35829226741234754    
  0.37859424143434217    0.379014504328672    0.35572329140092385    0.28714923529109165    0.20400527934814477    
  0.14147116676957255    0.10677421292104859    0.09421599399034374    0.0978257314467929    0.11264305386917967    
  0.13293363583415366    0.15081535049267605    0.1579747606678474    0.15081535757422035    0.1329336755626241    
  0.11264299931777076    0.09782583838953807    0.09421589526449986    0.10677434566999401    0.14147102267028439    
  0.20400543554737402    0.2871491143337697    0.35572337862336334    0.3790145336839286    0.37859424143434217    
  0.3272515396649018    0.35068865580439773    0.37435080540166005    0.3284089571107883    0.23767480133254404    
  0.16232914536266752    0.12009155836810069    0.10488891930739834    0.10919162892496348    0.12721870192875356    
  0.1521511135646253    0.17430681722260147    0.1832540375002476    0.17430685940252275    0.15215105499609244    
  0.12721884449659143    0.10919149291837493    0.10488904809974052    0.1200914153855663    0.16232929919757572    
  0.23767460966317994    0.32840917102690115    0.37435071217572985    0.3506886182831979    0.3272515396649018    
  0.29349821179812613    0.32620883536674433    0.3726793750350018    0.3417094540627304    0.25040347138186053    
  0.1704408517990321    0.12530877099827184    0.10907024397686843    0.11358553471727864    0.13282778167136752    
  0.1596186086251811    0.18350117750853998    0.1931535811131995    0.1835011542210722    0.1596186652329098    
  0.13282769164783728    0.11358560568673602    0.10907012557384824    0.12530889811123405    0.1704407213143549    
  0.2504036123851893    0.34170931770364604    0.37267946915340733    0.32620876836571777    0.29349821179812613    
  0.32725147597677323    0.3506887215713254    0.3743507101337517    0.32840906646591    0.2376747360366282    
  0.16232920677700835    0.12009151278871882    0.10488895454291215    0.10919156393416654    0.1272188054328467    
  0.15215107132232433    0.17430683409223172    0.1832539025212565    0.17430698709440057    0.15215094156131975    
  0.1272188888555267    0.10919144791344483    0.10488909838543493    0.12009136299388426    0.16232935049313008    
  0.23767452094470218    0.32840920541832935    0.374350608019319    0.3506886963058263    0.32725147597677323    
  0.37859450109686266    0.37901441817300446    0.3557233611747182    0.28714908257606864    0.20400541801899386    
  0.14147105528568318    0.1067743099025708    0.09421590718576565    0.09782583617278102    0.11264297159974426    
  0.13293370100277938    0.1508152657025646    0.15797489582386115    0.15081525003366392    0.13293375864396575    
  0.11264289416393296    0.09782594027658892    0.0942157806348162    0.1067744297050939    0.1414709545690681    
  0.20400556376618775    0.28714895759329667    0.3557235742406048    0.37901425108458536    0.37859450109686266    
  0.3582919957051561    0.34305358204746905    0.29615652036456774    0.2279015564481119    0.16256687206241485    
  0.11626315062631072    0.09049111440051047    0.08108828833534688    0.08384149146521264    0.09490518853352904    
  0.109915683493806    0.12296521632195455    0.1281139621169626    0.12296528833859656    0.10991556603446614    
  0.09490527402909284    0.08384138282555452    0.0810883948067372    0.09049099547367773    0.11626327304196644    
  0.16256669852980646    0.22790168879167294    0.2961564080795303    0.34305358116886786    0.3582919957051561    
  0.2825278545890075    0.26682551745793687    0.22545622721935138    0.1736067547736325    0.12732249174118526    
  0.09473933511301091    0.07633995224304993    0.06964127941746533    0.07176824894388889    0.07985896112632825    
  0.09065009154000683    0.09989441523031775    0.1035194266543643    0.09989444899250936    0.09065016528586793    
  0.07985887786435232    0.07176833915245441    0.06964119539774741    0.07634007504344695    0.09473922258427957    
  0.12732263117528017    0.1736066422525149    0.22545632074545782    0.26682542717025737    0.2825278545890075    
  0.22352205281972143    0.2111177968823025    0.17936903889164416    0.14057922230719525    0.10607552044222043    
  0.08157592104233503    0.06771837896040057    0.06276032136404995    0.0645704140112709    0.07102867346750151    
  0.07949722654531191    0.08667022043522239    0.08949370937473049    0.08667027134869314    0.07949717893882643    
  0.07102875301207502    0.0645703170830578    0.0627604351372268    0.06771825724001178    0.08157603281815863    
  0.10607541728984494    0.1405793517003556    0.17936898613310587    0.21111778304460285    0.22352205281972143    
  0.2099383438133871    0.19846184354809404    0.16915642806722853    0.13335857176663807    0.10144478548091976    
  0.07881895834393618    0.06615579468192091    0.06179437645971105    0.06380080867085823    0.07029701621796762    
  0.07870905376137252    0.08578219290877606    0.08856407230919572    0.0857821484350527    0.07870907742044167    
  0.07029693315315823    0.06380089893066464    0.06179428526911089    0.06615590064039185    0.07881884955170282    
  0.10144489244388873    0.13335847082592747    0.16915654954703427    0.19846175934471605    0.2099383438133871    
  0.24690063230377574    0.23289423325897785    0.19696381843040858    0.153146369875906    0.114478640198969    
  0.0873490571720817    0.07229796237871589    0.06737721926879268    0.0703228124239097    0.07876554853368053    
  0.08960399117688739    0.09874921137241761    0.10232655765313145    0.0987492762462007    0.08960394313668267    
  0.07876563709664955    0.07032271949639468    0.06737731610279156    0.07229786213459696    0.0873491647292452    
  0.11447853263929707    0.15314650317741685    0.196963696446057    0.2328942876566517    0.24690063230377574    
  0.32894476242831666    0.3114839408676964    0.2638013574302756    0.202055509713313    0.14632936117921533    
  0.10750216410578389    0.08634435251001094    0.07973946397868702    0.08437336775114697    0.09690487664514673    
  0.1130646528960853    0.12683251370426943    0.13220815785958895    0.12683253148095988    0.11306472398235506    
  0.09690476717523921    0.08437346097921919    0.07973935102033562    0.08634447149043954    0.10750204365335335    
  0.14632949402958104    0.2020554476797277    0.2638014231386147    0.31148385755988695    0.32894476242831666    
  0.38860873022829934    0.38196429122558023    0.3459786512773965    0.27348938467926903    0.19492544005906765    
  0.13784955170751986    0.10716223507750396    0.0978400461688897    0.1047888060979361    0.12348668275183029    
  0.14783380549679725    0.16876142886067    0.17699128019662352    0.16876151701804798    0.14783369695464713    
  0.12348679627457818    0.10478871287276251    0.09784017590432668    0.1071620919276711    0.13784972868482873    
  0.19492527004030344    0.27348953570873397    0.3459785469108974    0.38196429910799246    0.38860873022829934    
  0.308826328906539    0.3383835664150631    0.3763635101857059    0.3398515477408731    0.24970749637396178    
  0.1728033248455328    0.1307210782154752    0.11806760023391576    0.12758231297186873    0.1534593486309848    
  0.1872555850043873    0.21630441055430466    0.22778018055919136    0.2163044115361509    0.18725562010522162    
  0.15345921819196004    0.12758243304258293    0.11806747082686489    0.130721221112384    0.17280317489983557    
  0.24970766158431637    0.3398513704079619    0.3763636223952762    0.33838358856301154    0.308826328906539    
  0.16883700499343854    0.2201859832377725    0.3356803702162627    0.37228472314674266    0.2922552586153226    
  0.20152290535464512    0.14989260923129985    0.13440203901979592    0.1459530512965489    0.177746182558107    
  0.21923655880673282    0.25440950318111794    0.2681418716874443    0.2544096131609943    0.2192364712969482    
  0.17774630172504233    0.1459529044859731    0.13440220722283142    0.14989244466032703    0.20152308301973162    
  0.2922550716675818    0.37228494101154275    0.33568029437331265    0.2201859565347459    0.16883700499343854    
  0.11658375880585385    0.16850534056863645    0.3057419062990371    0.3779654261870923    0.3077829079706372    
  0.21263631687200069    0.15733558168309253    0.1407510950070744    0.15306053147822063    0.18714412478637565    
  0.23159782835217602    0.26892293377561144    0.2833557936005901    0.26892295049990705    0.23159795532299796    
  0.18714403620111564    0.15306066241395835    0.14075091681373622    0.15733571942851354    0.21263617365002654    
  0.30778313112265343    0.37796526314233203    0.3057420015030208    0.16850525849148149    0.11658375880585385    
  0.2934990392525791    0.3262079348063679    0.3726803583481646    0.34170846892496226    0.250404279435392    
  0.1704401954115605    0.12530929658106307    0.10906978825918992    0.11358593400036196    0.13282737077648749    