#     DFTpy    
  CRYSTAL 
    
  PRIMVEC    
  6.435448275862069    0.0    0.0    
  0.0    6.435448275862069    0.0    
  0.0    0.0    3.54551724137931    
  PRIMCOORD    
  4    1    
  Si    0.0    0.0    0.0    
  Si    3.2177241379310346    3.2177241379310346    1.772758620689655    
  Si    0.0    3.2177241379310346    0.8863793103448275    
  Si    3.2177241379310346    0.0    2.6591379310344827    
  BEGIN_BLOCK_DATAGRID_3D    
  3d_datagrid_density    
  BEGIN_DATAGRID_3D#0    
  29    29    17    
  0.0    0.0    0.0    
  6.435448275862069    0.0    0.0    
  0.0    6.435448275862069    0.0    
  0.0    0.0    3.54551724137931    
  0.06045253050653033    0.10468817132070588    0.2516923367561885    0.36369480461656195    0.30197682113302565    
  0.19277913735201946    0.12246250471815147    0.0912797772929142    0.08712339822487902    0.10484185120885738    
  0.1439368110800064    0.20135570329584082    0.26243823884325    0.3054402168677407    0.3199121257510219    
  0.30544023385097446    0.2624382244519276    0.2013556673710687    0.14393684199843926    0.10484183516995634    
  0.08712339527548234    0.0912797802328846    0.12246249717376728    0.19277914077563088    0.30197681774733043    
  0.3636948372715687    0.25169235053177536    0.10468817907492403    0.06045253050653033    0.10468820892316173    
  0.15480263702865982    0.29111585150433256    0.3636963101245032    0.2871156379600294    0.18237136178068294    
  0.11670056564986606    0.087540975924617    0.0836153690124613    0.10018657604348712    0.13667433665004133    
  0.1903694929009704    0.248281778250004    0.2904792373039662    0.3052368950340196    0.2904792624828095    
  0.24828173020661698    0.1903695039956315    0.13667433153808892    0.10018657942877882    0.0836153741351661    
  0.08754096491110051    0.11670057353388799    0.1823713847720768    0.2871156306091007    0.36369632775834543    
  0.29111585036527204    0.15480263838616182    0.10468820892316173    0.25169236622042923    0.2911158798665752    
  0.3570488470983953    0.3394514238347308    0.2442861261625728    0.1549654472394251    0.10157232767145936    
  0.07770911505515977    0.07448109641066011    0.08811817634160932    0.11790632647074298    0.1617241657544558    
  0.21009518312434877    0.24743628256736744    0.2613228064082059    0.24743628165654116    0.21009517414281131    
  0.1617241465614599    0.11790633510305233    0.08811816676301122    0.07448109162438406    0.07770910894679031    
  0.10157232470863845    0.1549654674450182    0.24428609507089252    0.3394514205096581    0.357048893919344    
  0.29111583884543335    0.25169236622042923    0.3636948218727439    0.36369630907464384    0.33945143128966404    
  0.2698764007665667    0.1852788589275223    0.12036530229182914    0.08234504764157982    0.06510189526915608    
  0.06279855212545515    0.07279058316993976    0.09427026685520228    0.12548126740080448    0.16017216816796348    
  0.18776724264071226    0.19833524893782759    0.1877672394306091    0.16017214863372534    0.12548125849207528    
  0.09427028705494836    0.07279057072160193    0.06279854599435537    0.0651018996078033    0.08234504933613963    
  0.12036531388557838    0.18527884255971563    0.2698764143958644    0.3394514319926854    0.36369629032484196    
  0.3636948218727439    0.3019768062421875    0.2871156146482193    0.24428609720529967    0.18527886088332468    
  0.12931951295035699    0.08854611620257773    0.0642935945741121    0.05303718442372312    0.05154567154916811    
  0.05816108856421631    0.07210025527610044    0.09185391076026166    0.11351057607824937    0.13073766231405906    
  0.13733899376431774    0.1307376800872604    0.11351055775424204    0.09185389606507165    0.07210026813348466    
  0.05816109476003269    0.05154566815943192    0.05303718830850741    0.06429359658630011    0.08854611484317995    
  0.12931951100448386    0.18527887839674556    0.24428611049596816    0.28711562674848845    0.3019768062421875    
  0.19277914733218857    0.18237139357138438    0.15496543026987528    0.12036532028692701    0.08854612264991252    
  0.06494489047247287    0.05041223037563253    0.0434879025380099    0.04254023948400674    0.04660624887237774    
  0.055026787979935245    0.06659495010705971    0.07895161896960194    0.08861904464396862    0.09227972439013384    
  0.08861905654439699    0.07895161396440067    0.06659494473844244    0.05502680154134243    0.04660624637702496    
  0.042540234559990224    0.04348789577752834    0.05041222188076462    0.06494489597430615    0.08854610361779727    
  0.12036531176958479    0.15496545015236293    0.1823713724007822    0.19277914733218857    0.12246253171441145    
  0.11670056698251609    0.10157234065014907    0.08234505684251214    0.06429359525153232    0.050412223868630784    
  0.04148948669248897    0.037068276916776756    0.03638296850116663    0.038807507634628105    0.0437752502524121    
  0.05039884508982738    0.05726972726834929    0.0625302696454731    0.06450109254897796    0.06253027793069389    
  0.05726972772335335    0.05039883094958744    0.04377525721806333    0.03880750575627419    0.03638297044492904    
  0.03706827736176636    0.04148948697781986    0.05041223197252288    0.06429360032439896    0.08234506122800461    
  0.1015723282429513    0.11670056236599616    0.12246253171441145    0.09127979374307038    0.08754095982071503    
  0.0777091138018101    0.06510189135364179    0.05303718640493122    0.04348789501874786    0.03706828178356624    
  0.0336964945646306    0.03299180880605157    0.034453441635464245    0.037550023865599115    0.04162881048642083    
  0.045756956516147154    0.04885235692769923    0.05000573412479639    0.04885236071564246    0.04575695296217316    
  0.041628796659401876    0.03755003316437389    0.034453435728235136    0.03299180769188928    0.03369649778389681    
  0.03706826997871784    0.043487899300696256    0.05303718391850949    0.06510190598443928    0.07770910377674818    
  0.08754095318271636    0.09127979374307038    0.0871234153281656    0.08361536260720276    0.07448109485972414    
  0.0627985491653915    0.05154566778441498    0.04254023200872417    0.03638296696128206    0.03299180722322825    
  0.031991307093856836    0.03289805978741995    0.035213042069705575    0.03832337719360834    0.0414452773014375    
  0.04376043151873853    0.044620125366689696    0.04376043719409618    0.04144527777935345    0.038323376586369653    
  0.035213047279103585    0.03289805656963157    0.03199131066005265    0.03299180812757465    0.03638296859166295    
  0.042540238458724615    0.05154566509336324    0.06279856309309556    0.07448109788978274    0.08361535425249468    
  0.0871234153281656    0.10484184115802986    0.10018659096880211    0.0881181672363067    0.07279057511967574    
  0.05816108847573509    0.04660624874004526    0.03880751043487255    0.03445343988620082    0.032898059708921075    
  0.033541060968034685    0.035801244207271675    0.038950966592024044    0.042155511653094446    0.04455120249122704    
  0.04543717291509541    0.04455121285066685    0.0421554998563899    0.038950967385755535    0.0358012495418442    
  0.03354106720927441    0.032898053119970634    0.03445344264045922    0.03880750230325198    0.04660625798536951    
  0.058161082058160445    0.07279057915119336    0.08811818242444643    0.10018657736704742    0.10484184115802986    
  0.14393683044664818    0.1366743394999968    0.11790633286576505    0.09427029473905307    0.07210026064389853    
  0.0550268001103651    0.04377525448259137    0.03755002566462742    0.035213047701907314    0.03580125184053166    
  0.03850997910577429    0.04241824333678639    0.04649358000187632    0.049572553684287285    0.05070314224333425    
  0.04957255927972214    0.0464935658598496    0.0424182409148198    0.038509984004514775    0.035801245536911996    
  0.035213038953103785    0.037550035403598456    0.043775257668803906    0.0550267994429314    0.07210025939888816    
  0.09427029383606232    0.11790633445955866    0.13667433379809524    0.14393683044664818    0.20135569090662528    
  0.19036950373684683    0.16172412800325367    0.1254812562792562    0.09185388209670897    0.06659494462959635    
  0.05039883379668689    0.04162879774120735    0.03832337655836691    0.038950962651758715    0.04241823063551364    
  0.04760506213661261    0.05312785186957629    0.05735238380600443    0.05892122557528718    0.057352410585727355    
  0.053127838345128776    0.047605045707583615    0.04241824294551064    0.038950962874369444    0.03832337487363688    
  0.04162880319748835    0.05039882658286845    0.06659495090957092    0.09185388180033091    0.1254812612017198    
  0.16172413712486472    0.19036946245006187    0.20135569090662528    0.26243824242749264    0.248281762256806    
  0.21009515392069353    0.16017215962807452    0.11351059199198454    0.07895161071196262    0.057269734395549145    
  0.045756960812910384    0.041445275842256504    0.04215550582967246    0.04649357837406076    0.053127863730873845    
  0.06027889694746416    0.06583311170971956    0.0679319624966717    0.06583312865565676    0.06027889772459791    
  0.053127858984537986    0.0464935923739319    0.042155501699473484    0.041445277995034495    0.04575695528758826    
  0.05726972012577641    0.07895161266908354    0.11351057983802797    0.1601721607052144    0.21009516039988602    
  0.2482817308880038    0.26243824242749264    0.30544027889249525    0.2904792530060766    0.24743628396765618    
  0.18776723816180324    0.13073767935075484    0.08861904273822226    0.0625302666180229    0.04885236516330842    
  0.0437604376484579    0.04455120994896081    0.049572566495675006    0.057352408363365415    0.06583310162636721    
  0.07245647532217554    0.0749743915718144    0.07245646181571039    0.06583311820927161    0.05735239262867142    
  0.04957256999275406    0.04455120483979672    0.043760437725606706    0.04885236029373805    0.0625302756552957    
  0.08861905267794186    0.13073766841077025    0.18776727198064727    0.24743626479107172    0.29047925628976246    
  0.30544027889249525    0.3199121273911606    0.3052368980210771    0.26132276502954993    0.1983352941838597    
  0.13733898466027006    0.09227971379570199    0.06450110676923711    0.05000573382826256    0.04462011953658415    
  0.045437165274176065    0.050703145209181684    0.0589212258400484    0.06793197448980039    0.07497437872678986    
  0.07764117756031891    0.07497439335690145    0.06793196090621248    0.05892121423917522    0.050703158208501506    
  0.04543715515731529    0.04462012134592983    0.05000574047556453    0.06450109202508256    0.09227971714858774    
  0.13733898558789404    0.19833527709382814    0.26132279902874267    0.3052368964183876    0.3199121273911606    
  0.30544026433341015    0.29047924053025076    0.24743629230548747    0.18776725623022997    0.13073767500501485    
  0.08861905232936593    0.06253027189913699    0.048852364708162156    0.04376044240476947    0.04455121154772511    
  0.04957256408102206    0.05735239987678494    0.06583312712614908    0.07245645893233592    0.07497439302399604    
  0.0724564729473047    0.06583310934046267    0.057352394036063244    0.04957256755013365    0.04455120731503662    
  0.04376044533595335    0.048852362265175954    0.06253027342330271    0.08861905685395773    0.13073767521253865    
  0.18776726645568864    0.2474363163812835    0.29047924596888713    0.30544026433341015    0.26243824430991947    
  0.24828175718442516    0.21009516250956298    0.16017216000722354    0.11351059924109293    0.0789516034094287    
  0.05726972975886174    0.04575696327841322    0.04144527202074874    0.04215549920880981    0.046493578795127805    
  0.05312786648930026    0.06027890295387313    0.06583310275178375    0.06793197835039343    0.06583311904247037    
  0.06027889604858995    0.05312785854929961    0.04649358521292929    0.04215549638531748    0.04144527067802872    
  0.04575695833854321    0.0572697190121537    0.07895162031662728    0.11351056376643465    0.16017214601460047    
  0.21009517773890796    0.24828174142047568    0.26243824430991947    0.20135570020690133    0.1903694911749549    
  0.16172411776957857    0.12548122667711914    0.09185388193456981    0.066594941402727    0.05039882933274543    
  0.041628805757472215    0.038323377817091    0.03895097095581347    0.04241823760649983    0.04760504254398086    
  0.05312785313698098    0.05735238889066488    0.05892121965472028    0.05735240094435696    0.053127841041865964    
  0.04760505662710092    0.04241824336816794    0.03895096172807782    0.038323375283169696    0.041628803601019525    
  0.05039883173330018    0.06659494726671829    0.09185388519484956    0.12548125563272    0.16172413290879803    
  0.19036949495211256    0.20135570020690133    0.14393681994503982    0.13667433424297412    0.11790633055816536    
  0.0942703014468972    0.07210026130970139    0.05502679993704184    0.04377525353797084    0.03755002436483636    
  0.035213043666886136    0.03580124928786165    0.038509977926848786    0.04241825057591372    0.04649357962772774    
  0.04957256547657003    0.05070314582292697    0.049572568424506296    0.04649357682741448    0.0424182407873212    
  0.03850999204431715    0.03580125813616998    0.03521304204412075    0.0375500248050998    0.04377525284422097    
  0.05502680160968661    0.07210026059942753    0.09427029321491978    0.11790634078744859    0.13667433711044097    
  0.14393681994503982    0.10484185920276078    0.10018658951876593    0.08811815480617455    0.07279057618865621    
  0.05816109011663525    0.046606249517068675    0.0388075079640312    0.03445344250866711    0.03289805831056997    
  0.033541065467483096    0.03580124691631559    0.03895096881253882    0.042155503940258916    0.04455120274878541    
  0.04543716346742604    0.04455121219318598    0.04215550590990191    0.03895096344098148    0.03580124890185452    
  0.03354106157369163    0.032898057399588475    0.034453438250556766    0.0388075014179281    0.04660625278320953    
  0.05816108081062086    0.07279057899341591    0.08811817644790991    0.10018657636259337    0.10484185920276078    
  0.08712340974159222    0.08361536194625599    0.07448111119860899    0.06279854981935085    0.05154567209697897    
  0.04254023853431662    0.03638296531100288    0.03299180988010898    0.03199130266624265    0.032898060073074345    
  0.035213039798249295    0.038323380900527254    0.04144527757966401    0.043760439588483184    0.044620128555095    
  0.04376044041879429    0.04144527623932189    0.03832337109345699    0.035213052178028816    0.03289805896052482    
  0.03199130337409151    0.03299180675802525    0.03638296747927134    0.042540240386977866    0.05154566693803129    
  0.06279855301675943    0.07448109592447391    0.0836153486942102    0.08712340974159222    0.09127978849015386    
  0.08754095629350743    0.07770911147451588    0.06510189043406296    0.053037184939802355    0.04348789306162877    
  0.037068280402733425    0.03369649027978451    0.032991806887843936    0.0344534416523448    0.0375500258848586    
  0.04162881029918636    0.04575695683531277    0.04885235223757796    0.05000573819524257    0.04885235698052462    
  0.04575695380492817    0.04162879767774431    0.037550032113339855    0.03445343953563419    0.03299181185741961    
  0.03369649464816286    0.03706827463563676    0.04348789641944046    0.05303718660767479    0.06510189512348036    
  0.0777091033611643    0.0875409595478803    0.09127978849015386    0.12246253443705873    0.11670057788654013    
  0.10157233667707624    0.08234505918431653    0.06429360024141555    0.050412219218766485    0.0414894787233392    
  0.03706827565816249    0.03638297198530859    0.038807508108618924    0.04377524853500909    0.05039883593776847    
  0.05726972530734887    0.06253026829095554    0.06450110503798066    0.06253026786038512    0.057269721245229374    
  0.050398831848998675    0.0437752574254182    0.03880750723550777    0.036382972611661436    0.037068271980801495    
  0.04148948894999915    0.050412230899993575    0.06429359666289537    0.08234506966995181    0.10157233089424905    
  0.11670056492299936    0.12246253443705873    0.1927791556318508    0.18237137378033455    0.1549654371874335    
  0.12036531087218702    0.08854612495997721    0.06494488892537606    0.050412228830190704    0.04348790122221439    
  0.0425402437750814    0.046606247069588956    0.05502679202605343    0.06659494905541957    0.07895161249160357    
  0.08861903583926248    0.09227973679634083    0.08861906014297316    0.07895161684664505    0.06659495092070837    
  0.055026806636394004    0.046606244576398254    0.04254023178736189    0.04348789545762236    0.05041222183625045    
  0.06494489288222101    0.08854610370810642    0.12036531605464101    0.1549654734129983    0.18237137004610027    
  0.1927791556318508    0.3019768410624342    0.28711562390805956    0.24428610716321777    0.18527884759666569    
  0.12931950814700438    0.08854610876397143    0.06429360109687529    0.053037185526803636    0.051545666266573135    
  0.05816108999662746    0.07210025825035336    0.09185390077785321    0.11351059273690942    0.1307376599000109    
  0.13733899156687904    0.13073766387475586    0.11351055581666103    0.09185390191430651    0.07210026314532306    
  0.0581610847016636    0.05154567150116159    0.053037190858443474    0.06429359716563401    0.08854611119895413    
  0.12931950735607772    0.18527887384089084    0.2442860923638904    0.287115629043243    0.3019768410624342    
  0.36369483285734505    0.36369627962125783    0.33945147648241664    0.26987640585494393    0.185278858803642    
  0.1203653005718015    0.08234505296083769    0.06510189127402269    0.06279854680129807    0.07279057524856757    
  0.09427027345474139    0.1254812614996218    0.16017217583415128    0.18776722044769303    0.19833529237157918    
  0.18776725132271907    0.1601721585501466    0.12548124798274318    0.09427028984200742    0.07279057962563908    
  0.0627985535315132    0.06510188792695629    0.0823450540052223    0.12036531390354652    0.1852788306975496    
  0.2698763809197775    0.33945144920597986    0.36369624971861914    0.36369483285734505    0.25169239083770745    
  0.2911158412451001    0.35704884115560326    0.3394514262952007    0.2442861304966776    0.15496545006167042    
  0.10157233076720328    0.07770911831754779    0.07448109393189065    0.08811817232475316    0.1179063385520822    
  0.16172413915905806    0.21009515137701298    0.24743628219437844    0.2613227768597509    0.24743630072451875    
  0.2100951945390723    0.16172412362695923    0.11790636458873176    0.08811816846593905    0.07448109068454836    
  0.07770911024557293    0.1015723208388877    0.1549654549807856    0.24428610537451687    0.3394514253572693    
  0.3570488694288179    0.29111580583856284    0.25169239083770745    0.10468820392320068    0.1548026391034584    
  0.29111586113245247    0.36369629046963786    0.2871156372501574    0.18237136345624616    0.11670056987990321    
  0.08754097118971102    0.08361536304564973    0.10018658358317348    0.13667432807800417    0.19036951963696794    
  0.24828176172659533    0.2904792582069643    0.3052369393031912    0.2904792362500205    0.24828176002550292    
  0.1903694933468124    0.13667434130351405    0.10018657814520575    0.08361536211524036    0.08754096670177479    
  0.1167005751378999    0.18237138172890122    0.28711563327099127    0.3636963138250067    0.29111583029539123    
  0.15480262115581261    0.10468820392320068    0.06045253050653033    0.10468817132070588    0.2516923367561885    
  0.36369480461656195    0.30197682113302565    0.19277913735201946    0.12246250471815147    0.0912797772929142    
  0.08712339822487902    0.10484185120885738    0.1439368110800064    0.20135570329584082    0.26243823884325    
  0.3054402168677407    0.3199121257510219    0.30544023385097446    0.2624382244519276    0.2013556673710687    
  0.14393684199843926    0.10484183516995634    0.08712339527548234    0.0912797802328846    0.12246249717376728    
  0.19277914077563088    0.30197681774733043    0.3636948372715687    0.25169235053177536    0.10468817907492403    
  0.06045253050653033    0.10162539567515089    0.15157019243902256    0.28884751100631006    0.3635039558579392    
  0.28687020680578806    0.18038954037289195    0.11262393329727659    0.08058667439405741    0.07168548566619501    
  0.07916784773839054    0.10027393630722686    0.13251489253275497    0.16901486869023957    0.19812307774616802    
  0.20924873951516534    0.19812305997452198    0.1690148456520603    0.1325148693792469    0.10027394824233522    
  0.07916784432725402    0.07168547843599328    0.08058668104847848    0.11262392808184982    0.18038954232306498    
  0.2868702145136743    0.36350394171362665    0.2888475041251457    0.15157018862027405    0.10162539567515089    
  0.15157613820093158    0.2023224446862543    0.3202297736600808    0.35902393418584383    0.27230831601252997    
  0.17086106368073914    0.10757370695075796    0.07756650568075171    0.06918689063255869    0.07620898371308876    
  0.09600655104506144    0.12615246176769898    0.16021858160758945    0.18749494489473142    0.19797968899051802    
  0.1874949469107731    0.16021860365700175    0.12615243631557557    0.09600654910790132    0.07620898659331315    
  0.06918689435131842    0.07756649515111698    0.10757371912055788    0.17086107495324873    0.2723082932916764    
  0.35902397874573044    0.3202297788614457    0.202322428232452    0.15157613820093158    0.28942682273801884    
  0.3208592854022472    0.3634917610353977    0.3275758775491514    0.2312466758944059    0.14574060913968753    
  0.09422215147292361    0.06958267598696201    0.06264650275306494    0.06849087738433704    0.084863490614128    
  0.1095709380948605    0.13731431930683957    0.15958239538610716    0.16819587117597723    0.15958240306084814    
  0.13731432608299374    0.10957092394156727    0.08486349692529298    0.06849088056815443    0.06264650047647079    
  0.06958267406213539    0.09422214366431084    0.14574062946224248    0.23124665748644588    0.32757588379012764    
  0.36349177629305396    0.32085922892539503    0.28942682273801884    0.3655906564789651    0.3610540450713207    
  0.32882306912058207    0.25717574951555827    0.17582301740088419    0.11402060159185667    0.0771757914986549    
  0.0592396788539346    0.05417022327227208    0.05854822695995034    0.07061471342123396    0.08853389143105944    
  0.10840210080114068    0.12421834375239574    0.13030033996742674    0.12421834464160304    0.10840209835836043    
  0.08853388219421165    0.07061472631542899    0.05854822214291356    0.0541702147487601    0.05923968064591653    
  0.07717579389514077    0.11402060080600993    0.17582303284991496    0.2571757611926886    0.3288230680383525    
  0.36105400697212736    0.3655906564789651    0.2909163763762616    0.27602214270208325    0.23390800262088324    
  0.17711927947375236    0.12386644122592351    0.08487553332834262    0.061126177283941305    0.04925441021828395    
  0.045869702810288356    0.04886370364382031    0.05696724426371167    0.0687136269864024    0.08147293486646681    
  0.09149611255028466    0.09530502646310655    0.0914961185817626    0.08147291802143772    0.06871361890744582    
  0.05696725602730659    0.048863710415633074    0.045869697892450996    0.04925441520923351    0.06112618195014025    
  0.08487553261795279    0.12386643940571937    0.17711929630519863    0.23390799369781756    0.27602211468102467    
  0.2909163763762616    0.1873380141333244    0.17720872738947396    0.1506323656544817    0.11714947074951979    
  0.08634875670802601    0.06332652373003056    0.048807039567519056    0.04133195849651787    0.039166950248646214    
  0.041085061614044044    0.04621525367730909    0.05344158352533187    0.06109313905617998    0.06701235526590417    
  0.06923727412265891    0.06701236370700023    0.06109313966882725    0.05344157546452231    0.04621526050069263    
  0.04108505955949087    0.039166941457935714    0.04133195772804829    0.048807031022675716    0.06332653256264109    
  0.08634874281834719    0.11714946250508998    0.15063238045644675    0.17720870923437534    0.1873380141333244    
  0.12375152654654521    0.11783374376727362    0.10241601213609154    0.08290025842864954    0.06453770812729961    
  0.050361699742934606    0.04107816795363544    0.03612918993705291    0.034640144929286465    0.0358471433135159    
  0.03909027056397635    0.0435544931070463    0.04816493295550085    0.051657657590878175    0.052954368169915306    
  0.05165765930464974    0.048164934229463614    0.04355448764859498    0.039090278009161684    0.03584713535991923    
  0.0346401521948153    0.03612919149032874    0.041078171376838515    0.050361711390523714    0.06453769253817107    
  0.08290025801963566    0.10241600158707034    0.11783374126356225    0.12375152654654521    0.09881905442189844    
  0.09452002765425964    0.08335762498587326    0.06916106225915365    0.05561458091318297    0.04492860279086251    
  0.037713869861726895    0.03370957758450614    0.03239264622271162    0.033165889577028686    0.03543446030494097    
  0.038542392766548104    0.04169998147876147    0.044044706800445664    0.04490858148650434    0.0440447144046784    
  0.04169997837453301    0.038542370916718645    0.035434468184464656    0.033165883001530484    0.032392643018906105    
  0.033709579793728364    0.03771386224059339    0.04492860515275806    0.05561458223309616    0.06916107408862052    
  0.08335761478100942    0.09452000983846068    0.09881905442189844    0.10319851245363626    0.09861227333862542    
  0.08671768646740338    0.07162959437249687    0.057258588127653595    0.04591432749159759    0.03822666290855696    
  0.03389779136509288    0.0323052979893813    0.03279885656476565    0.03476410155985964    0.0375406769438063    
  0.040371737624631615    0.04247602009688859    0.04325128874585591    0.042476021452913515    0.040371735434512536    
  0.03754067490344208    0.034764101972620955    0.0327988494335629    0.032305299859296595    0.03389779293402526    
  0.038226661574403346    0.04591432280566689    0.05725858416999135    0.07162960280388586    0.0867176851047263    
  0.09861227031592111    0.10319851245363626    0.1358118071231527    0.12907082235983836    0.11155787470059671    
  0.0895037621705701    0.06886535001547277    0.052910993316245485    0.042317810382322955    0.036403748688092485    
  0.03408107310120505    0.03440618207488743    0.03660503820626157    0.039846042119721634    0.0432242637894135    
  0.04577969312668806    0.046726193742279744    0.045779705592208834    0.04322425459096236    0.03984603832690495    
  0.036605046311791144    0.034406185222490164    0.034081063451815254    0.03640374766085156    0.04231780906668501    
  0.05291099526492135    0.06886533599847489    0.08950376828476309    0.11155790213448771    0.12907080869835846    
  0.1358118071231527    0.19936105935364334    0.18845632723732844    0.15989997111432452    0.1238684715172947    
  0.09065376928470514    0.0657018237766534    0.04963544980005648    0.04084448483591099    0.03733569598252793    
  0.0375674654347749    0.04042672077917284    0.04483886264335217    0.04955332435040986    0.05315799046867041    
  0.054493846472183576    0.05315800758813457    0.049553292944530064    0.04483886495537515    0.0404267228212633    
  0.037567466547621234    0.037335696395136495    0.04084448581392389    0.04963544591232284    0.06570183277386149    
  0.0906537537562357    0.12386847348438103    0.15989997529149744    0.1884562912132515    0.19936105935364334    
  0.28414125275383295    0.26930675120614195    0.2281232295516101    0.17306999083891672    0.12131678840179311    
  0.0830851235572882    0.05923481036956459    0.04652232575338096    0.04147929748848474    0.04164499511215982    
  0.04547001025942218    0.0515855277468829    0.05824203169156762    0.06339496937162643    0.06533287629064358    
  0.06339496929298467    0.05824201653646355    0.05158552557252598    0.045470020070744015    0.0416449961887611    
  0.041479298037064224    0.04652232994941749    0.059234808412751756    0.0830851240534495    0.12131679225830745    
  0.17307000470932263    0.2281232227320167    0.2693067400726542    0.28414125275383295    0.3507598160116121    
  0.3385658718647257    0.2958767152242005    0.22635915782003854    0.15510325946285478    0.10184075162694238    
  0.06925628165704614    0.0522638658269436    0.04559448899203054    0.04574642996968535    0.0506662195581882    
  0.0586501312086661    0.06742705584577954    0.07432021008252929    0.07696665860945506    0.07432022546659144    
  0.06742705849576312    0.05865013700305696    0.05066622793887592    0.045746421755999474    0.04559449229122749    
  0.05226386821316193    0.06925626756537943    0.10184076253403831    0.15510323633639064    0.22635916491985328    
  0.2958767222313154    0.33856586293795854    0.3507598160116121    0.36776535147089945    0.365596387749558    
  0.3374757712065493    0.2662327067233929    0.18181024680293095    0.11661453327119818    0.07700255394176    
  0.05662229018243574    0.04868022295536522    0.04882506207391281    0.05458364451004587    0.06403004867010942    
  0.07452432080348795    0.08281990999633142    0.0860114799793142    0.08281990024525147    0.07452432048087042    
  0.06403003495642437    0.05458366516652405    0.0488250606759116    0.04868022125541777    0.05662228727340844    
  0.07700256461572236    0.11661454230311774    0.1818102769172351    0.26623271586535596    0.33747574563535676    