#     DFTpy    
  CRYSTAL 
    
  PRIMVEC    
  4.843172413793103    0.0    0.0    
  0.0    4.843172413793103    0.0    
  0.0    0.0    2.668275862068965    
  PRIMCOORD    
  4    1    
  Si    0.0    0.0    0.0    
  Si    2.4215862068965515    2.4215862068965515    1.3341379310344825    
  Si    0.0    2.4215862068965515    0.6670689655172413    
  Si    2.4215862068965515    0.0    2.001206896551724    
  BEGIN_BLOCK_DATAGRID_3D    
  3d_datagrid_density    
  BEGIN_DATAGRID_3D#0    
  21    21    13    
  0.0    0.0    0.0    
  4.843172413793103    0.0    0.0    
  0.0    4.843172413793103    0.0    
  0.0    0.0    2.668275862068965    
  0.05309772808962809    0.10087611729199616    0.27289457730385    0.42771742443469113    0.4156098671221579    
  0.36332307546728265    0.3539371170132657    0.3816278450114153    0.40381100513903456    0.39052136517704966    
  0.375122328535272    0.39052130993471235    0.40381107037561464    0.38162778285561494    0.3539370743247902    
  0.36332306147666943    0.4156100310477258    0.4277175098855731    0.27289453438914796    0.10087611438238807    
  0.05309772808962809    0.10087617210964686    0.15670587027027777    0.315917002252503    0.4210942810645199    
  0.3879157081631568    0.3359906866998135    0.3274489253320384    0.35565067652961496    0.38513518937465346    
  0.3864958640334168    0.37892304071625815    0.3864957614085252    0.38513522607142153    0.3556506585942643    
  0.32744896268001367    0.33599074081855207    0.387915687105416    0.4210942681577577    0.3159169541316897    
  0.1567058307458772    0.10087617210964686    0.2728945671178203    0.31591696128075414    0.38884190751767006    
  0.38411688245644005    0.3190045067760978    0.2706010747650218    0.2633450576850826    0.2901562550996925    
  0.32916768848535255    0.3546521808178274    0.36121796934590616    0.35465210589038215    0.32916774088146455    
  0.29015612444834393    0.2633450838339108    0.2706011260449753    0.3190045189932685    0.3841169260434723    
  0.38884190588947015    0.3159170554482238    0.2728945671178203    0.4277175175956338    0.4210942390503951    
  0.38411688729955534    0.3114500737045709    0.24053953472319395    0.2005914982199207    0.19460499216759006    
  0.21629633305649068    0.25335061847136403    0.28613260005184865    0.2986779133858624    0.2861326183583745    
  0.2533506062578573    0.21629631556458606    0.19460496534967767    0.2005915234925738    0.24053953130253852    
  0.3114501043548659    0.384116900303242    0.4210942821341861    0.4277175175956338    0.41560998817451766    
  0.38791571336334535    0.31900450633673144    0.2405395563376034    0.18040328355314128    0.14915443763332173    
  0.14434950263425367    0.16062624312915622    0.18978247997685638    0.21772541968443807    0.22927850314764617    
  0.21772541341440882    0.18978255441343972    0.1606262114328157    0.144349535621979    0.14915440167356148    
  0.18040329809621272    0.24053951927988051    0.31900450444407896    0.3879156583825897    0.41560998817451766    
  0.3633230133187271    0.33599066198069066    0.2706010643499127    0.20059151703463618    0.14915439428462754    
  0.12244879933952693    0.11797949628879417    0.13109443408545915    0.15493668691640772    0.17840133858399226    
  0.1883821059498077    0.17840131819067892    0.15493672608996192    0.13109439514059323    0.1179794780516411    
  0.12244882469822563    0.14915438862123814    0.20059152784863277    0.27060098513990943    0.3359906617484071    
  0.3633230133187271    0.3539371311247025    0.3274489673101353    0.26334510409397816    0.1946050196750504    
  0.14434951598611415    0.1179795120173134    0.11313141081147636    0.12560186289196057    0.14875068368446548    
  0.17169736673755753    0.18145966166823288    0.1716973815441332    0.14875069245382963    0.12560184797252072    
  0.11313139400536404    0.11797949070667309    0.1443495425458322    0.1946049757129434    0.2633450394705549    
  0.32744896645875077    0.3539371311247025    0.3816278341647996    0.3556506596767025    0.2901561510485409    
  0.2162963049311356    0.16062622630891646    0.13109440943410725    0.12560183196808247    0.1396978096911964    
  0.16613981772633932    0.1923244235474619    0.20338062760945266    0.1923244082043597    0.166139874740797    
  0.13969774787642453    0.12560184502450586    0.13109444524051916    0.16062619725353613    0.21629636687162201    
  0.29015621893815197    0.3556506261607518    0.3816278341647996    0.4038110296117563    0.385135160192404    
  0.3291677670414672    0.2533506322751978    0.1897825005050522    0.15493665578535787    0.14875068032552544    
  0.1661398638112186    0.1983943688646075    0.23038382356888287    0.2439327704543164    0.23038382034334084    
  0.1983944178730742    0.16613985959358823    0.14875065933577947    0.1549366919974086    0.18978254684050055    
  0.25335060497075806    0.3291677343627151    0.38513526470766946    0.4038110296117563    0.3905214019593069    
  0.3864958465779465    0.354652107172173    0.28613266700817985    0.2177253988087319    0.17840141505516469    
  0.17169734402680342    0.19232449728548107    0.23038382627907836    0.2681927202503647    0.2842111560616064    
  0.26819270440789017    0.23038385053112057    0.19232442695856772    0.1716973421281489    0.17840140537764645    
  0.2177253437588899    0.28613266985065644    0.35465212314327377    0.3864958390032053    0.3905214019593069    
  0.3751222861228374    0.37892287605058533    0.3612180090584601    0.29867779486271634    0.22927844816008855    
  0.18838201465314888    0.1814596241849383    0.20338061187089815    0.24393271160548916    0.28421108547395435    
  0.3012392017494522    0.28421104079274034    0.24393279660553902    0.2033805409088684    0.18145963552922353    
  0.18838204198480243    0.2292785144384625    0.2986778197453754    0.36121797243686127    0.3789229148559761    
  0.3751222861228374    0.39052136419534267    0.38649583711474084    0.3546521024068127    0.2861326566200324    
  0.21772538687557516    0.17840140534655768    0.17169733514978983    0.192324475879048    0.2303838114505261    
  0.2681927577043497    0.2842111227664537    0.26819274239996993    0.23038383281497624    0.19232451284920782    
  0.17169735402861153    0.1784014230521668    0.2177253482702903    0.286132747404589    0.3546520552997863    
  0.3864958453799332    0.39052136419534267    0.40381110729804237    0.38513512198707484    0.3291678166362276    
  0.2533505491841583    0.18978253668819123    0.15493667342069598    0.14875070111955224    0.1661398721171163    
  0.19839437671971802    0.23038385803006664    0.24393279810058002    0.23038380252533228    0.1983944556631626    
  0.16613981411620904    0.14875069614208639    0.15493669584112923    0.18978256718778144    0.25335060396787246    
  0.329167834620027    0.38513520806639717    0.40381110729804237    0.3816277700354633    0.35565062541785875    
  0.29015621084934773    0.21629637674556076    0.16062616013893116    0.13109445441738332    0.1256017933085017    
  0.1396978240051728    0.1661398031625262    0.1923244690316396    0.2033805664413699    0.19232443330466845    
  0.16613979974825666    0.13969781577071072    0.12560178036677336    0.1310944844076215    0.1606261662246531    
  0.21629640210602522    0.29015613609102775    0.3556506795836386    0.3816277700354633    0.3539372179304853    
  0.3274488738863361    0.26334511724936555    0.19460494249913196    0.1443495762588076    0.11797950802231401    
  0.1131314306561351    0.12560184909090413    0.1487506681426882    0.17169729322089664    0.1814597306272081    
  0.1716973471113801    0.14875075860905512    0.12560181342883556    0.11313145194469962    0.11797948521866315    
  0.14434956042609492    0.1946049429325801    0.2633451323432797    0.3274489190577936    0.3539372179304853    
  0.3633229955634834    0.33599070751547017    0.27060103397323615    0.20059153826498358    0.14915435589313222    
  0.12244884030994414    0.11797947666507895    0.13109449891376712    0.15493662453765525    0.1784013496666713    
  0.18838205102132247    0.17840138030823804    0.15493668682387882    0.1310944474263528    0.11797944440845856    
  0.12244888539320888    0.14915433806685813    0.2005915829295327    0.2706009208715579    0.335990699516301    
  0.3633229955634834    0.415610062965592    0.38791564444811527    0.31900457802225307    0.24053950024268894    
  0.18040334410657752    0.14915437403301487    0.14434955357031326    0.16062620357972157    0.18978254687362833    
  0.21772538926881363    0.2292785453913151    0.21772536563148992    0.18978258700416392    0.16062615903701585    
  0.1443495431487896    0.1491543840483903    0.18040337042144836    0.2405394980684794    0.3190044829568434    
  0.38791559510679235    0.415610062965592    0.4277174134281976    0.42109431298946576    0.38411684481939495    
  0.31145008717610556    0.24053949069917194    0.20059155467938028    0.19460493157387132    0.21629641448124068    
  0.2533505337832106    0.2861326878296714    0.298677874807556    0.286132665007413    0.2533506155895182    
  0.21629629907385015    0.19460493007134017    0.20059158904110752    0.24053947256414648    0.3114501252671557    
  0.3841168556532291    0.4210943255190086    0.4277174134281976    0.2728945673147862    0.3159169185218303    
  0.3888419529332854    0.38411683639357036    0.3190045462846737    0.2706010137276918    0.2633451208281639    
  0.2901561981796514    0.329167734766777    0.3546521383602648    0.361218042390454    0.3546520603081567    
  0.3291678313776113    0.29015614270272794    0.26334509655373556    0.2706010828961776    0.3190045380301483    
  0.38411685364176856    0.3888418894283    0.31591698396552814    0.2728945673147862    0.10087614759199653    
  0.15670592792471624    0.3159169726387239    0.42109432215237147    0.38791569728870484    0.33599073194848667    
  0.32744894399849034    0.3556506899681028    0.38513516351898003    0.3864958387041144    0.3789229822880732    
  0.3864957586705144    0.38513520183309163    0.3556506360917197    0.32744894436486405    0.33599074296144227    
  0.3879156247922796    0.4210943023637086    0.3159170051426036    0.15670587212580495    0.10087614759199653    
  0.05309772808962809    0.10087611729199616    0.27289457730385    0.42771742443469113    0.4156098671221579    
  0.36332307546728265    0.3539371170132657    0.3816278450114153    0.40381100513903456    0.39052136517704966    
  0.375122328535272    0.39052130993471235    0.40381107037561464    0.38162778285561494    0.3539370743247902    
  0.36332306147666943    0.4156100310477258    0.4277175098855731    0.27289453438914796    0.10087611438238807    
  0.05309772808962809    0.0913822065591944    0.14462404691271608    0.29877218490073165    0.39856258850567755    
  0.3584574489058963    0.2982158032161373    0.27903501588891266    0.29936418021919    0.3392288074333729    
  0.3720538980288596    0.3829587949206407    0.3720538845822171    0.3392289170769777    0.29936407445066493    
  0.2790349950512844    0.2982157652282214    0.3584575511283847    0.39856265307468663    0.2987720854948673    
  0.14462401648866632    0.0913822065591944    0.14779633633530842    0.20313339645400297    0.3350400061337466    
  0.39182708828864504    0.33693497113561904    0.2778476575768113    0.2596814732392198    0.27874286578969365    
  0.3171682503320218    0.35080548845031384    0.3629430201021257    0.35080542804208126    0.317168290583976    
  0.2787428321655098    0.25968147896335725    0.2778476011711067    0.33693495870082324    0.39182704983625766    
  0.3350399844354502    0.2031333669871147    0.14779633633530842    0.3188879865802195    0.35082091936311754    
  0.39187662865367107    0.3587388444157391    0.28281621807640456    0.22886872328040841    0.2130892288479421    
  0.22887845058808    0.26275905911812786    0.2951654920655302    0.3081059205685254    0.2951654880797342    
  0.26275916119964754    0.22887834535731091    0.21308921135013106    0.22886877723703544    0.28281623347364615    
  0.3587388399544805    0.3918765833162093    0.3508209926867338    0.3188879865802195    0.4510162376138128    
  0.43628825755997847    0.38268269382451214    0.2978702532153524    0.22098396540662818    0.1762536266783715    
  0.16345099426128792    0.17543027528240868    0.20239201594211698    0.22915357881828785    0.2401972069545439    
  0.2291535915083001    0.2023920440717754    0.17543022891492083    0.16345101047786442    0.17625361166383544    
  0.2209839827014677    0.2978702441920743    0.3826827027623613    0.43628830285980913    0.4510162376138128    
  0.4399216072634331    0.40791240017941627    0.32942163909546324    0.24192094519521035    0.1751935358189629    
  0.13860689929840556    0.12817532465404996    0.13734200052031362    0.15827846574626303    0.17927959105856514    
  0.18808422517632986    0.17927959250362688    0.15827850464130205    0.13734200229935273    0.12817536922624118    
  0.13860691576732703    0.1751935592196791    0.24192095472674865    0.3294216260037641    0.4079123430015757    
  0.4399216072634331    0.4058754672602923    0.37380626287940855    0.2974557732859726    0.2159154024548583    
  0.15543321907524854    0.12233351864553786    0.11272011766397028    0.1206324548364797    0.13884096183153674    
  0.15727554739591287    0.16511068698248244    0.15727554337253583    0.13884103753290494    0.12063240601545698    
  0.11272012034731124    0.12233354269147391    0.15543319758010565    0.2159154187444214    0.29745567642910353    
  0.373806264711676    0.4058754672602923    0.41681055820039514    0.3851018568829409    0.3080758091692301    
  0.22422579302093154    0.16163271517046754    0.12722927584615865    0.11702990263410284    0.12513785795489188    
  0.14422064191373166    0.16358497359266322    0.17177071990597434    0.16358498350823428    0.14422062147099204    
  0.12513787787770714    0.11702988511411143    0.1272292713520919    0.16163269962254195    0.2242257742015973    
  0.308075745963924    0.3851018091277721    0.41681055820039514    0.44206312589026436    0.4176639287958382    
  0.3490849343997614    0.26192535918773313    0.19101745219741806    0.15086550184949382    0.1389096694820744    
  0.14875272666666003    0.17202369015799782    0.19572070973897573    0.20570494205256645    0.19572064949426562    
  0.17202376528226251    0.14875265689497535    0.13890967611727545    0.15086551209295765    0.19101743915136737    
  0.2619254256746957    0.3490849838683547    0.4176639522095199    0.44206312589026436    0.39453808968041354    
  0.3987770979967036    0.3797078967393805    0.3115701544397605    0.23470531752130122    0.1865988748622906    
  0.17232255447062744    0.18521719165154807    0.21483980437776523    0.24509185513249834    0.25787666882872656    
  0.24509177073780172    0.21483976950589184    0.18521715274730088    0.17232251886012773    0.18659892376906145    
  0.23470534856474606    0.31157012149593727    0.3797078994278953    0.39877719893657115    0.39453808968041354    
  0.28223620035514213    0.31786789337118937    0.37018316649473454    0.34699708910374294    0.2742212093499115    
  0.2204230841629554    0.20429207640818706    0.22018483961924112    0.25577015771178374    0.2917803871300817    
  0.3068217208708981    0.29178034944244624    0.2557702121173965    0.22018477816084364    0.20429210165543757    
  0.22042301129793582    0.27422115925788576    0.3469970778006781    0.37018319433334307    0.3178678390725776    
  0.28223620035514213    0.22861818279614732    0.27381499595043723    0.35604504152092686    0.3580484365254083    
  0.29015639649533376    0.23461131931317342    0.21774209746872059    0.23488076629206098    0.2729885967370777    
  0.31124231102929867    0.32703757617154317    0.31124226250624676    0.2729886927039636    0.23488066456761852    
  0.21774215165568359    0.23461133750036572    0.29015643036368205    0.358048542585031    0.35604495734213704    
  0.273814984262394    0.22861818279614732    0.28223623403240783    0.3178678014454553    0.37018322203958703    
  0.346997015850767    0.274221214470683    0.2204230209320626    0.20429210949401422    0.22018482014327093    
  0.2557702319876954    0.29178037097280196    0.3068217363588904    0.29178030923149234    0.2557702535002436    
  0.22018477343004808    0.20429212691034013    0.2204230082304306    0.2742211760016254    0.34699711847944825    
  0.37018310762333073    0.3178678265516721    0.28223623403240783    0.39453803619394784    0.3987771428423892    
  0.3797078827318464    0.3115701168767571    0.23470531650060247    0.18659894469249136    0.17232247684840743    
  0.18521721519098308    0.21483971098176172    0.24509188984370042    0.2578766002947732    0.2450918630769249    
  0.21483975554236576    0.18521717100880608    0.17232245776151464    0.18659897708031933    0.23470527619197418    
  0.31157017880348037    0.37970788521131293    0.39877721617817496    0.39453803619394784    0.4420631286874362    
  0.41766379304230616    0.34908504295959214    0.2619254124603336    0.19101747870881833    0.15086548427038593    
  0.1389096987817083    0.14875266656992328    0.17202376232141867    0.19572066546466044    0.20570495933574837    
  0.1957206099587653    0.17202376830594307    0.14875265129769857    0.1389096962971972    0.1508654803992545    
  0.1910174677282415    0.26192537967027185    0.3490849988712628    0.41766382414934294    0.4420631286874362    
  0.4168105761518453    0.38510187776075483    0.3080757396900054    0.2242258351825636    0.16163268997401642    
  0.12722932943908485    0.11702987569382868    0.12513795031125247    0.14422053388840586    0.16358500675259172    
  0.1717707008199757    0.1635850158107089    0.14422061369716907    0.12513789858481758    0.11702988919150095    
  0.12722930965336138    0.1616326639688468    0.22422579606313975    0.30807573497814905    0.38510190349704904    
  0.4168105761518453    0.40587563189612164    0.37380618214719313    0.2974557745262084    0.21591533111699623    
  0.15543322869702808    0.12233349113954504    0.11272014821902661    0.12063244083809462    0.13884103851048324    
  0.1572755085109012    0.16511071998222895    0.15727553747857562    0.13884106005565264    0.12063238395092026    
  0.11272015395446036    0.12233351943457707    0.15543327577742833    0.21591537769290772    0.29745568739780054    
  0.37380619255878206    0.40587563189612164    0.4399215839200795    0.40791247403127895    0.3294215887066069    
  0.2419210541961962    0.17519352133328406    0.13860694799114354    0.1281753283200266    0.137342019842487    
  0.15827846525555248    0.1792796517556788    0.18808415074160972    0.17927964640844749    0.15827846471211543    
  0.1373419987636009    0.12817528814605364    0.1386069637844371    0.17519349771074952    0.24192101854952253    
  0.32942150986577506    0.40791241584617777    0.4399215839200795    0.45101627293743046    0.4362882680631594    
  0.3826827239320153    0.29787015011085216    0.22098402759289065    0.1762535703979357    0.16345100984198946    
  0.17543024111745475    0.2023920227658921    0.22915361040489418    0.24019728555737455    0.2291535680192786    
  0.20239211908629678    0.17543015380400362    0.16345103799657404    0.17625360910381704    0.22098403484860976    
  0.29787020256735675    0.38268279619389983    0.4362882501020921    0.45101627293743046    0.3188879615486232    
  0.3508209254071704    0.39187656486252004    0.35873890538928244    0.28281617212689353    0.22886874080950084    
  0.21308919895303757    0.22887841796060512    0.2627590697009241    0.29516545808202527    0.3081059310024857    
  0.2951654813803315    0.2627591522352024    0.22887844647486225    0.21308916602823494    0.22886881705353626    
  0.28281614218948553    0.35873892925160356    0.3918764832231539    0.35082100659170407    0.3188879615486232    
  0.14779636402069368    0.2031334190209702    0.3350400142180956    0.39182707851799375    0.33693501337241427    
  0.27784763796329415    0.2596814667866468    0.2787428059373883    0.3171682851590162    0.3508054472451052    
  0.36294304192733123    0.3508053656111342    0.3171683204256296    0.27874272785659804    0.25968149303467875    
  0.2778475948988681    0.33693498530490507    0.39182710184770364    0.3350400611758248    0.2031333732201139    
  0.14779636402069368    0.0913822065591944    0.14462404691271608    0.29877218490073165    0.39856258850567755    
  0.3584574489058963    0.2982158032161373    0.27903501588891266    0.29936418021919    0.3392288074333729    
  0.3720538980288596    0.3829587949206407    0.3720538845822171    0.3392289170769777    0.29936407445066493    
  0.2790349950512844    0.2982157652282214    0.3584575511283847    0.39856265307468663    0.2987720854948673    
  0.14462401648866632    0.0913822065591944    0.2286183065539577    0.2738148920365096    0.3560451837714781    
  0.35804826442396925    0.2901564667356486    0.23461123625656008    0.21774224050459454    0.23488064118337462    
  0.272988708523462    0.31124217532279697    0.3270376298561294    0.3112421847442326    0.272988787253927    
  0.2348805960842736    0.21774223286753566    0.23461123249124402    0.29015653769693645    0.358048362856938    
  0.35604514153618855    0.27381484509326925    0.2286183065539577    0.2822360494595642    0.31786799274557054    
  0.3701830589396085    0.3469971414060119    0.2742211381552429    0.22042315646897806    0.20429204314108856    
  0.22018492556095542    0.25577009018126945    0.2917805061094648    0.3068216811856183    0.29178044992404983    
  0.2557701410466644    0.2201848968258014    0.20429202227360735    0.22042313309620812    0.2742211023342571    
  0.34699714180460495    0.37018298482368506    0.3178679641253058    0.2822360494595642    0.3945382062978317    
  0.3987770045271928    0.379708042027621    0.31157003459607147    0.2347053636440273    0.18659882984093876    
  0.1723225853821101    0.1852171243482082    0.21483977968318194    0.24509183212254085    0.25787669755330284    
  0.2450917691380507    0.21483985663044627    0.18521705592542337    0.17232260381429063    0.18659888142047779    
  0.2347053990151258    0.31157007816604865    0.3797079820551428    0.39877707506899157    0.3945382062978317    
  0.442062975458919    0.4176639960367168    0.3490848956272356    0.26192548374175684    0.1910173998135029    
  0.1508655491885468    0.13890962861832168    0.1487527578961103    0.17202368016031547    0.19572071186954113    
  0.205704891429113    0.1957207311718187    0.17202367437672203    0.14875275581662598    0.13890962479989105    
  0.15086558005312184    0.19101738430607892    0.26192550328168274    0.34908488561726814    0.4176640244807252    
  0.442062975458919    0.41681064992532446    0.3851017451730244    0.3080758632532627    0.22422572272135186    
  0.16163275046642722    0.1272292381076241    0.11702992086340926    0.12513785226026544    0.14422063904742402    
  0.16358493260487056    0.17177079705000745    0.16358493738078134    0.14422068351435535    0.12513782191272496    
  0.11702998727549457    0.12722922042713494    0.1616327658581139    0.22422570141473427    0.3080758378174464    
  0.38510168645811854    0.41681064992532446    0.4058754207428367    0.37380634145655495    0.2974556474678627    
  0.21591546745748696    0.1554331864288531    0.12233355464812916    0.11272008929268232    0.12063248283998598    
  0.1388409317829913    0.15727559031626037    0.16511063904945045    0.15727560280751365    0.13884098182483343    
  0.12063246514973125    0.11272006929347622    0.12233359409323442    0.15543317293298373    0.21591547056764795    
  0.29745556386848204    0.37380636359511105    0.4058754207428367    0.4399217030906307    0.4079122988042286    
  0.32942172068296827    0.2419209160668254    0.1751936294323048    0.13860685247287038    0.128175382474106    
  0.13734195708648284    0.1582785553254831    0.1792795796651099    0.18808421832404246    0.17927955593593306    
  0.1582785391948782    0.1373419333308232    0.12817538053731292    0.13860685654407026    0.1751935880320217    
  0.24192090780957223    0.32942168661480636    0.4079122686357185    0.4399217030906307    0.4510161736423751    
  0.4362883951982755    0.38268259821956857    0.2978702818207561    0.22098390779278165    0.17625365713212615    
  0.16345094845843255    0.17543031980178028    0.20239194730792343    0.22915367532421124    0.24019718007850874    
  0.22915364998741472    0.2023920081663556    0.17543025483501926    0.16345093568189117    0.17625370833117152    
  0.22098390303768    0.2978703730398524    0.3826826035901594    0.4362884300292544    0.4510161736423751    
  0.3188880945492127    0.35082076757192715    0.3918766623353693    0.3587387474521894    0.282816309306358    
  0.22886863853247855    0.21308932406802444    0.2288783772758672    0.2627591921658891    0.2951653599884461    
  0.3081059954769582    0.2951653290666846    0.2627591883522949    0.2288783359725499    0.21308931253273722    
  0.22886869543663937    0.28281632185267874    0.3587387608983184    0.39187667348173677    0.35082083997807956    
  0.3188880945492127    0.14779622767811357    0.20313349408173337    0.33503987459731516    0.39182723842901224    
  0.33693491883349946    0.2778477263223265    0.2596813564638196    0.27874294150155215    0.3171681538993928    
  0.3508055721591904    0.3629429537816351    0.3508055207182714    0.3171681683865063    0.27874289294501103    
  0.25968137074338066    0.2778477426001967    0.33693483724797035    0.39182725163635684    0.33503987345975805    
  0.203133496780131    0.14779622767811357    0.09138229078032654    0.1446238992166133    0.2987722440399673    
  0.39856245987289135    0.35845761268739856    0.29821565727057664    0.2790350682660976    0.2993640735278044    
  0.33922887297378534    0.3720538090040679    0.3829589439826331    0.3720537508659078    0.33922904564279754    
  0.2993639868768985    0.2790350655686776    0.2982156865046106    0.35845772482661514    0.3985625288147873    
  0.2987722227707394    0.14462394621564248    0.09138229078032654    0.14779623441396603    0.2031334847665045    
  0.3350399097859412    0.3918272014678136    0.33693484442149557    0.2778477397046575    0.2596813489706921    
  0.2787429377488515    0.31716817969184863    0.35080562049696096    0.3629429114350216    0.3508055614218576    
  0.3171682108234642    0.278742926799549    0.25968135907897794    0.27784771716060264    0.33693480942718407    
  0.39182731889965355    0.33503982073696453    0.20313350832506064    0.14779623441396603    0.3188880925865512    
  0.35082075761895465    0.3918767473383378    0.3587386801033314    0.2828163334166124    0.2288686544250207    
  0.21308931552301813    0.2288783459256598    0.26275915715851356    0.29516539236269634    0.30810604164173716    
  0.2951653084765218    0.2627592555407961    0.228878270330543    0.21308928917529305    0.22886869308732677    
  0.28281629291621085    0.3587387230986201    0.39187675717475634    0.3508208418603285    0.3188880925865512    
  0.4510161185883377    0.43628838653749347    0.38268261285724325    0.2978704173832598    0.2209838660325395    
  0.17625371489333214    0.16345091871962397    0.17543033985956924    0.2023919663480264    0.2291537107206226    
  0.24019711599465826    0.2291537114074226    0.20239194202210628    0.17543029111620373    0.1634509008499951    
  0.1762537073438583    0.22098386120120797    0.29787038731501986    0.3826825403441598    0.4362884861872657    
  0.4510161185883377    0.4399217977333561    0.4079122053576348    0.3294217633613906    0.2419208720580133    
  0.1751936304862073    0.1386068421385752    0.12817542964216316    0.13734193783701856    0.15827852652922972    
  0.179279523634018    0.1880842775421829    0.17927950927809364    0.15827861926740597    0.13734190032164673    
  0.12817544703748063    0.13860683748607128    0.1751936447659135    0.2419208111818629    0.3294217902594601    
  0.40791224791363645    0.4399217977333561    0.4058753990448667    0.3738064336947365    0.29745559783559455    
  0.21591550683137076    0.15543310243252909    0.12233361306260716    0.1127200312508792    0.12063254204248336    
  0.13884090090686116    0.15727558697883778    0.16511059993539087    0.1572756215859841    0.13884094019925594    
  0.12063249157466735    0.11272003132232256    0.12233363594684402    0.15543315251822798    0.21591555240043747    
  0.2974554973540372    0.37380639972162494    0.4058753990448667    0.4168107754448129    0.385101684977752    
  0.3080759189700908    0.22422570884539061    0.16163278513842316    0.12722916906115145    0.11703001590607755    
  0.12513781466475477    0.14422071135955106    0.16358490080665017    0.17177082877391625    0.16358490782141874    
  0.14422072080366014    0.1251377913012991    0.11702997939953412    0.12722918219562532    0.1616327965367383    
  0.22422563457127562    0.3080758429436136    0.3851016461913976    0.4168107754448129    0.4420629205369877    
  0.4176640383728197    0.3490848020642369    0.261925492989372    0.19101735474655893    0.15086557934434375    
  0.13890961552804382    0.14875279975796302    0.17202360030204839    0.1957208144827345    0.20570484367261507    
  0.19572077660436948    0.17202369823824987    0.14875274561631707    0.13890960373613834    0.15086563534471337    
  0.1910173500768271    0.261925553273653    0.3490848705691434    0.4176640666203543    0.4420629205369877    
  0.39453823148586226    0.39877693073523723    0.37970807453902905    0.31157005486166517    0.2347054311222502    