#     DFTpy    
  CRYSTAL 
    
  PRIMVEC    
  5.937862068965517    0.0    0.0    
  0.0    5.937862068965517    0.0    
  0.0    0.0    3.271379310344827    
  PRIMCOORD    
  4    1    
  Si    0.0    0.0    0.0    
  Si    2.9689310344827584    2.9689310344827584    1.6356896551724136    
  Si    0.0    2.9689310344827584    0.8178448275862068    
  Si    2.9689310344827584    0.0    2.4535344827586205    
  BEGIN_BLOCK_DATAGRID_3D    
  3d_datagrid_density    
  BEGIN_DATAGRID_3D#0    
  27    27    15    
  0.0    0.0    0.0    
  5.937862068965517    0.0    0.0    
  0.0    5.937862068965517    0.0    
  0.0    0.0    3.271379310344827    
  0.06027409688223222    0.10396311491995278    0.25047937237812695    0.36883708781401164    0.31724240933060643    
  0.2146554267061617    0.14985856142160708    0.12695739269099401    0.13676645450249938    0.175510663595007    
  0.2366275845294426    0.3003044098563031    0.34171138939049467    0.35407607365469285    0.34171137281453723    
  0.30030439655482183    0.23662764557685378    0.17551068295268069    0.13676645791579056    0.12695737265887871    
  0.14985857473134054    0.21465543025005276    0.3172424479504312    0.36883710778230444    0.2504794203287649    
  0.10396313135598649    0.06027409688223222    0.10396314926356315    0.15344446733094114    0.2899933219184267    
  0.3696686517849255    0.302295884860875    0.20334758210474016    0.1428323314444395    0.1215756302167408    
  0.13082691927200396    0.16706925667805056    0.22467236512022307    0.2864430493848055    0.3288633539259923    
  0.3424146442533053    0.3288633885450959    0.28644301070800904    0.2246723646257262    0.16706927306280875    
  0.1308269171925514    0.12157564012524842    0.14283233898412756    0.20334762370305143    0.30229586360037786    
  0.3696686735529239    0.28999338472338376    0.1534444776638179    0.10396314926356315    0.2504793844206293    
  0.28999335739034077    0.35868100393590224    0.3481230087402858    0.2593164861925598    0.17399282615661188    
  0.12463843797356346    0.10736889004758272    0.11508477179979881    0.1447653873623124    0.19242947991581205    
  0.24612146841887456    0.28685213575314694    0.30135381702538006    0.2868521308275934    0.24612148102642342    
  0.19242946671558941    0.14476539624139256    0.11508479328659821    0.10736890120338656    0.12463842380104145    
  0.17399284524679867    0.2593164679345466    0.34812296904616397    0.3586810161896041    0.28999333989260906    
  0.2504793844206293    0.36883704843739107    0.3696686494542874    0.3481229013976363    0.28179401095118733    
  0.19986841504970318    0.137134707589976    0.10173573507584811    0.08920139114342256    0.09487736340784955    
  0.11634558984650162    0.15066105476299083    0.1902044975729306    0.22213097076327867    0.23432982085733417    
  0.22213099902752995    0.1902044992944334    0.15066103925939844    0.11634559648123491    0.09487736479956724    
  0.08920139528493805    0.10173573566419253    0.13713471798104654    0.19986841040813538    0.28179399685619944    
  0.34812297723304014    0.3696686783387401    0.36883704843739107    0.3172424754993441    0.3022958753034435    
  0.2593164410697283    0.19986842604380667    0.14372068387691378    0.10340317871623277    0.08037181727784058    
  0.07202655427864979    0.0757543200286247    0.08973939092712654    0.11174343686116411    0.13686269632345172    
  0.15732890784796502    0.16530780809163229    0.1573289158530349    0.1368627212359855    0.11174344441168206    
  0.08973939827243159    0.07575434045930429    0.07202656104583628    0.08037181517733799    0.10340318225992672    
  0.14372069885919408    0.19986842572523547    0.2593164791315647    0.3022958554692584    0.3172424754993441    
  0.2146554044497647    0.20334761732724718    0.17399280803270253    0.13713471527349594    0.10340315989973314    
  0.07879058553723628    0.06430703676413721    0.05885136465271868    0.060986473769430345    0.06946750250658103    
  0.08266933822202492    0.09741098831305676    0.10915227137348207    0.1136696472836064    0.10915225065602209    
  0.0974109584457007    0.08266934570005398    0.06946750478962321    0.06098646533892145    0.058851373346732246    
  0.06430703759669877    0.07879057810405962    0.10340315503196033    0.13713469333404754    0.17399283830211498    
  0.20334757443927154    0.2146554044497647    0.1498585662448809    0.14283234802074726    0.12463841929596572    
  0.1017357431634609    0.08037180253119972    0.06430705539472718    0.05455078858036808    0.05057798276816293    
  0.05157929702412011    0.056698626111592834    0.06469330334384513    0.07347217690094593    0.08030474471577753    
  0.08287955650494626    0.08030473773656577    0.07347216933041474    0.06469331892527513    0.056698626073893664    
  0.051579278675852436    0.05057798657572178    0.05455078597723551    0.06430704008897493    0.08037182222878478    
  0.10173574185284888    0.12463842267223771    0.1428323632802023    0.1498585662448809    0.12695739200896938    
  0.12157564982966482    0.10736890017347799    0.08920140058209017    0.07202654490783836    0.05885137824922972    
  0.05057799117382888    0.046871200256446414    0.047139712052058885    0.05061459284510901    0.05617434972648609    
  0.06224449326611945    0.06691159627093443    0.0686447380795347    0.06691159357563847    0.06224448507504389    
  0.056174368395100975    0.050614604145611315    0.0471396994459046    0.046871199446516125    0.050577988317205266    
  0.05885137492010653    0.07202654879332629    0.08920140686255822    0.10736891230781524    0.12157564130017358    
  0.12695739200896938    0.13676643447666162    0.1308269052856402    0.1150847525963823    0.09487735137304507    
  0.07575431441531422    0.06098647785179634    0.05157929148809274    0.047139699378816034    0.046857820807926984    
  0.04980080951415786    0.054816095480098956    0.060377654489378985    0.06468390234889763    0.06630027191368251    
  0.064683898057934    0.0603776473437186    0.05481609715599279    0.04980080758268536    0.04685780710338236    
  0.04713970540855109    0.05157928854316978    0.06098645852922062    0.07575432856715507    0.09487733978310593    
  0.11508474653598455    0.13082689566240974    0.13676643447666162    0.17551069442134815    0.16706931345411746    
  0.14476541850590904    0.11634559476319621    0.08973937851160832    0.06946752222347995    0.05669862286917515    
  0.05061459168565216    0.049800813538116016    0.05296720384108208    0.05876501156326762    0.06537324764244008    
  0.07063525903521758    0.07267659632833881    0.07063523476378282    0.06537325824944744    0.05876500721424891    
  0.05296721848209376    0.0498008122456287    0.050614596850690606    0.05669861998590173    0.06946750681719105    
  0.08973939916266054    0.11634558755488729    0.1447653979066521    0.1670693251734905    0.17551069442134815    
  0.2366276092538044    0.22467235241268688    0.19242946318275211    0.15066106431853998    0.11174342663037522    
  0.0826693492741051    0.0646933027796097    0.05617434946867813    0.054816104399780595    0.05876502370307164    
  0.06631695800899642    0.07512018537036391    0.08228399931912478    0.08509104201192919    0.08228400774020204    
  0.0751202029515193    0.0663169791998076    0.05876503435465673    0.054816107888815246    0.056174359103385335    
  0.06469330252096059    0.08266934082021626    0.11174344518439576    0.15066104778765707    0.1924294494578939    
  0.224672423563536    0.2366276092538044    0.3003044389297394    0.28644305893525734    0.24612146931317336    
  0.19020446107934139    0.1368627200061811    0.09741099648515911    0.07347216718081934    0.062244474952371315    
  0.06037767238215331    0.06537324215252033    0.07512017256925685    0.08669734522701493    0.09621345178283036    
  0.09992880674020929    0.09621343723498284    0.08669733673693523    0.07512016230640915    0.06537326937476952    
  0.06037767149856317    0.06224448096719053    0.07347217945569924    0.09741098839462607    0.13686273137934613    
  0.19020450931860142    0.2461215097512169    0.2864430555898282    0.3003044389297394    0.34171142601320076    
  0.32886335606090444    0.2868521118064205    0.22213101245780456    0.15732891561762077    0.10915225871745643    
  0.08030473516173428    0.06691160363813262    0.06468391181285    0.07063524928836822    0.08228401827251144    
  0.09621346002734747    0.10771970483083086    0.1122171909984478    0.10771968324963672    0.0962134147316031    
  0.08228403173001249    0.07063523889298004    0.06468389866555309    0.06691158313842516    0.08030474528844685    
  0.10915227988434024    0.1573288654926291    0.2221310167879336    0.28685213182068864    0.3288633093084957    
  0.34171142601320076    0.3540760900907108    0.34241464858616255    0.3013538272207415    0.23432979918531388    
  0.16530771777495465    0.113669655051061    0.08287954133136648    0.06864474290041697    0.06630024751254128    
  0.07267657198998438    0.08509102583911667    0.09992878633110143    0.1122172016380507    0.11701201876395616    
  0.11221719570712861    0.0999287935954986    0.08509104936526082    0.0726765912810769    0.06630024855809727    
  0.0686447278473083    0.08287956714372989    0.11366964422056901    0.16530775541853687    0.23432978181028669    
  0.3013538632989826    0.3424146027358021    0.3540760900907108    0.3417114002418227    0.32886328926980624    
  0.2868521230162003    0.22213102894580578    0.15732893966780653    0.10915226149249464    0.0803047325455751    
  0.06691159476340078    0.0646839353656951    0.07063524121372945    0.08228400949789992    0.09621346129952225    
  0.10771968468167022    0.11221719333021053    0.10771966966580873    0.09621344548524878    0.08228402784543777    
  0.07063523928273392    0.06468390352837375    0.06691160100069694    0.08030473397845818    0.10915226510721318    
  0.15732889444596182    0.22213099829816976    0.2868521400351467    0.32886336209961764    0.3417114002418227    
  0.30030444983515364    0.28644307099752647    0.24612146324493772    0.19020450803689204    0.13686272881821226    
  0.09741099340923179    0.07347215092449903    0.062244491689090846    0.06037766398905334    0.06537326326927144    
  0.07512017063167455    0.0866973410917597    0.09621346064566731    0.09992878898443522    0.09621343501699516    
  0.08669733993983651    0.07512017220267507    0.06537323086678318    0.060377668649366306    0.06224447554548286    
  0.07347217076950861    0.09741097347399934    0.13686272414710593    0.19020448197152198    0.24612148892948743    
  0.2864430483634449    0.30030444983515364    0.23662764408504783    0.2246723565801072    0.19242946748046458    
  0.15066107753371766    0.1117434207166852    0.08266934144058491    0.06469330473031265    0.056174355853035145    
  0.05481611213624506    0.05876502783513824    0.06631698633480558    0.07512017561328597    0.08228400600023711    
  0.08509103808780306    0.08228403385563846    0.07512018042309494    0.06631698406662813    0.05876502924833356    
  0.05481610267894771    0.05617435379167305    0.06469330615994638    0.08266934326591656    0.11174343591634932    
  0.15066105534129778    0.19242950946113016    0.22467236528620788    0.23662764408504783    0.17551069520764956    
  0.16706931236492106    0.14476540933880364    0.11634558018959493    0.08973938618520813    0.06946751583539047    
  0.05669862405796579    0.05061459362514565    0.04980081486250652    0.05296720173329208    0.058765024912470785    
  0.0653732331688624    0.07063524208610512    0.07267660765626925    0.07063525160773138    0.06537324188900709    
  0.05876502265134263    0.05296721635164815    0.049800813740672585    0.05061459926646166    0.056698626678268395    
  0.06946751628076267    0.08973940314869876    0.11634561069887171    0.14476539862195129    0.1670693110596277    
  0.17551069520764956    0.136766451711494    0.13082690162136548    0.11508474742951924    0.09487734743874483    
  0.0757543140562027    0.060986474554726305    0.05157929280185723    0.047139707587329945    0.04685781861787241    
  0.04980080653257147    0.05481609792732884    0.06037766575816382    0.064683904613669    0.06630026171200214    
  0.06468389388521403    0.060377651642001026    0.05481609963124766    0.049800816708051865    0.04685781236436864    
  0.047139709839975535    0.05157929256146287    0.06098645655012227    0.07575433499792897    0.09487733613348076    
  0.11508475789997345    0.1308269047830432    0.136766451711494    0.12695740849394252    0.12157563276103191    
  0.10736889826862119    0.08920138054654604    0.07202653766680979    0.05885138665232093    0.050577984000228025    
  0.04687119341302069    0.047139707849955824    0.050614594864036785    0.05617436098972712    0.06224448468135667    
  0.06691158651226504    0.0686447451449442    0.06691159264691098    0.06224446948891507    0.0561743622564821    
  0.05061460486995186    0.047139700353583704    0.04687120629970077    0.05057799121528437    0.058851367649310905    
  0.07202656532169709    0.08920139530921553    0.10736889972668229    0.12157563094482768    0.12695740849394252    
  0.14985857735667418    0.1428323816821991    0.1246384169651173    0.10173574328368412    0.08037180938201038    
  0.06430704601856031    0.05455078942478326    0.05057798362045493    0.05157930403296706    0.05669861437061094    
  0.06469329423273523    0.07347217918036032    0.08030474074128753    0.08287956303773532    0.08030473606604428    
  0.07347218330706648    0.06469331835376965    0.05669862889058168    0.05157928683185052    0.050577987659336646    
  0.05455078912987371    0.06430703225075421    0.08037181044422231    0.10173573620106728    0.12463843938824998    
  0.1428323541329817    0.14985857735667418    0.21465541880272573    0.2033475764511246    0.17399283782752276    
  0.13713472702369414    0.10340315898463318    0.07879058180853583    0.06430703952832162    0.05885135913683375    
  0.060986470224999985    0.06946750583539617    0.08266933593479082    0.09741097215563004    0.10915225615797859    
  0.11366966353729567    0.10915225835916235    0.09741097043055165    0.08266934344984592    0.0694674950069543    
  0.060986475528356114    0.058851377608357    0.06430704610577657    0.07879056696754326    0.10340316673218047    
  0.13713471360603074    0.17399279902324596    0.20334756585874056    0.21465541880272573    0.31724248381249165    
  0.3022958889686217    0.25931645976120765    0.19986844165010892    0.1437206946103392    0.10340318981807288    
  0.08037180840753377    0.07202656231479333    0.0757543402191456    0.08973938473132709    0.11174344007666505    
  0.13686269123270134    0.15732891757007042    0.16530773586219905    0.15732891389302078    0.13686274129537207    
  0.11174345055264484    0.08973939687951099    0.0757543270709699    0.07202656357541642    0.08037181430089854    
  0.10340318167137905    0.1437207017984508    0.19986839909169943    0.25931647865852153    0.30229585979806367    
  0.31724248381249165    0.36883710761956345    0.36966864075521755    0.3481229387881657    0.281794020610698    
  0.19986840626726446    0.13713472163352072    0.10173573194333853    0.08920138894774825    0.09487734933346292    
  0.11634558484955916    0.15066108021632277    0.19020448162795195    0.22213101242452693    0.23432983690351294    
  0.222131020332459    0.19020447058516413    0.15066106805871712    0.11634560336862876    0.09487734411946673    
  0.08920138666334192    0.10173573571510683    0.13713471554790618    0.19986840908578116    0.2817940408107689    
  0.3481230058982254    0.3696686862346504    0.36883710761956345    0.25047938737371234    0.2899933431760087    
  0.3586810046466263    0.34812292609987844    0.25931648885820757    0.17399285240979998    0.12463843603901904    
  0.10736889556411659    0.1150847810851926    0.14476541285573452    0.19242946363031124    0.2461214769464691    
  0.2868521263322679    0.30135382188727017    0.2868521145979402    0.24612145886609876    0.19242945245250961    
  0.14476538678549633    0.11508478936499389    0.10736889912957981    0.12463842155274435    0.1739928464341297    
  0.2593164934799378    0.3481229950261749    0.35868100327105545    0.28999331412817997    0.25047938737371234    
  0.10396317012844182    0.1534444555009275    0.2899933032079579    0.3696686645487082    0.3022958622207988    
  0.20334761947852023    0.1428323320072113    0.1215756318514953    0.13082693292242453    0.16706928208035082    
  0.22467234628345525    0.286443039505347    0.3288633575721646    0.34241469519156803    0.32886335799483346    
  0.2864430140157435    0.2246723588760214    0.16706930027704467    0.13082691646930417    0.1215756136980021    
  0.1428323478485398    0.20334764167400018    0.3022958111194782    0.36966860606498864    0.2899933470604215    
  0.15344446131774608    0.10396317012844182    0.06027409688223222    0.10396311491995278    0.25047937237812695    
  0.36883708781401164    0.31724240933060643    0.2146554267061617    0.14985856142160708    0.12695739269099401    
  0.13676645450249938    0.175510663595007    0.2366275845294426    0.3003044098563031    0.34171138939049467    
  0.35407607365469285    0.34171137281453723    0.30030439655482183    0.23662764557685378    0.17551068295268069    
  0.13676645791579056    0.12695737265887871    0.14985857473134054    0.21465543025005276    0.3172424479504312    
  0.36883710778230444    0.2504794203287649    0.10396313135598649    0.06027409688223222    0.10638037959031117    
  0.15616991801804045    0.29253349306134446    0.3700220269164666    0.2997226862561524    0.197852050905471    
  0.13342180703451376    0.10608111538146489    0.10512646335255449    0.12458639974642664    0.15964935866299268    
  0.20147780449405128    0.23573599252318134    0.24880880014062828    0.23573598064713697    0.20147779984979503    
  0.15964936638721153    0.12458640346214364    0.10512645740282188    0.10608109500601202    0.13342179298307458    
  0.19785202239646377    0.2997226956756638    0.3700220435945848    0.2925335117023218    0.15616988207028035    
  0.10638037959031117    0.156068098894899    0.20621197735051983    0.32333182900292967    0.3658052838326994    
  0.2850215144584062    0.18767707385169827    0.12753680436429235    0.10205347414883074    0.10122723170228633    
  0.11944675428664296    0.15224285756485187    0.19147342933439634    0.22372299801377862    0.23607165917814907    
  0.22372299060729972    0.19147341682851293    0.15224284676875283    0.11944676782770029    0.10122720630211787    
  0.10205346400149917    0.12753682264769803    0.18767709139232475    0.2850214517125495    0.3658052887451165    
  0.3233318661361618    0.2062120180822518    0.156068098894899    0.2920617086561298    0.32293404639408246    
  0.3667202266469313    0.33564682218645203    0.24393243730652653    0.16135171681811847    0.1122724475324389    
  0.09140216866644693    0.09080713042507016    0.10587080544027534    0.13277123071228433    0.16495936757003185    
  0.19161304310045374    0.20191264866883124    0.19161307349921244    0.16495934671920387    0.13277124718554048    
  0.10587080116390499    0.09080713286419424    0.09140216719225693    0.11227243346736211    0.16135172477422682    
  0.24393240641167327    0.33564679313357615    0.3667202419151692    0.3229339901409547    0.2920617086561298    
  0.371021988084261    0.3667677746341008    0.3366227089571314    0.26798989798725154    0.18873783666647959    
  0.12837045171619652    0.0929904370628801    0.0776952244118373    0.07729696151357358    0.08841063892266507    
  0.10798910951515539    0.1311179039396872    0.15027576868541556    0.1577517361797276    0.15027579460421842    
  0.13111789043534727    0.10798910647206637    0.08841064654500601    0.07729696915552033    0.07769522148580522    
  0.0929904311122053    0.12837046128347576    0.1887378548220845    0.26798990900471265    0.33662280576587733    
  0.3667678196809472    0.371021988084261    0.30588540189117525    0.2907491162905912    0.24850206974276712    
  0.19142636081561643    0.13758796209532453    0.09833826632773993    0.07497437664113764    0.06466966018058412    
  0.06438332925101421    0.07184798119040291    0.08484391240350968    0.09989015421770721    0.11215375183081636    
  0.11693249423345076    0.11215376337026141    0.09989015793820469    0.08484391725868717    0.0718479903588444    
  0.06438333465176961    0.06466966189000095    0.07497436995716243    0.09833827976697661    0.13758796462284248    
  0.19142635273215217    0.24850209982346666    0.2907491083278924    0.30588540189117525    0.21121197255509758    
  0.20008131623860173    0.17118799580159808    0.13495276076329737    0.10159799554961137    0.07683424679218472    
  0.06164070212724786    0.0547503810013992    0.05444655604776869    0.05923359350327209    0.06753332615071184    
  0.07694570328194142    0.08442552014691503    0.08730207934727853    0.08442549889124286    0.07694569028144266    
  0.06753332682984106    0.05923360474474168    0.05444654526739459    0.05475038993713719    0.061640706251273734    
  0.07683424781074491    0.10159801022568027    0.13495274848024466    0.17118798333941027    0.20008128056729413    
  0.21121197255509758    0.1567691307878504    0.14927154821928318    0.12975085946077633    0.10521093316346518    
  0.08237850681029261    0.06504514154433601    0.054111422920454205    0.048926688804331694    0.04846467709592123    
  0.05166608024942606    0.05725529058457103    0.06348653141372063    0.0683657179180579    0.07022322995324604    
  0.06836571640882261    0.0634865245969872    0.05725531014858115    0.05166609174026743    0.04846466242488301    
  0.048926701532074866    0.05411142568699443    0.0650451346769477    0.08237852338086202    0.10521094848675265    
  0.12975088152283226    0.14927154745690588    0.1567691307878504    0.14526051584835786    0.13861762307914674    
  0.12115810424765397    0.09899876204409579    0.07827254828022155    0.06240664250722344    0.05224640896829379    
  0.0472290491280353    0.04646313930131639    0.0489747420372304    0.05355782272356275    0.058673037500041963    
  0.06265790105092636    0.06416149678968036    0.0626578961531428    0.05867302184920847    0.053557839642898675    
  0.04897475046391009    0.046463129913643306    0.04722905263782505    0.052246414142484536    0.062406634717576744    
  0.07827255499167007    0.09899875657996444    0.12115812043118848    0.13861761367565437    0.14526051584835786    
  0.17208338450103738    0.1637108932734581    0.14174176138731015    0.11391978363882155    0.08796120819383721    
  0.06820300407624115    0.05563949813110161    0.04938246747832928    0.04811984448111825    0.05061063649698814    
  0.05552675461799277    0.061185132522764155    0.06563317463787836    0.06732219594120631    0.06563316394459663    
  0.06118512472536702    0.055526766033516355    0.050610635171847544    0.048119839096734604    0.04938246573173013    
  0.05563950837310282    0.06820298876147467    0.08796120791172796    0.11391977508977016    0.14174172899559798    
  0.16371088848367193    0.17208338450103738    0.23655550434635284    0.22425661816356704    0.19160648677778852    
  0.14977240105969353    0.11086423971757864    0.08181117669041932    0.06373728837463218    0.05484647017309266    
  0.052860834965273655    0.055915216395497326    0.06232419738628974    0.06989857505381086    0.07601471496554864    
  0.07837921406232276    0.07601468016041085    0.06989859083113477    0.06232420214955567    0.05591523538444569    
  0.0528608335658417    0.054846474049495685    0.06373729350864041    0.08181116276346098    0.11086425560492491    
  0.14977238925894099    0.19160646131599313    0.224256621870159    0.23655550434635284    0.31982738986164505    
  0.30559803460517654    0.2633985786441373    0.20330691047836724    0.1449785909842428    0.10169811497318183    
  0.07534389528745705    0.0625820535523239    0.059654229044918246    0.06377375040926371    0.07260016730613623    
  0.08324020094151571    0.09200991473117512    0.09543881476255986    0.09200992837614919    0.08324019689975357    
  0.0726001773022176    0.06377374657118123    0.05965423010380853    0.06258205236994051    0.07534390403608332    
  0.10169811477960958    0.14497864341088015    0.20330686666471778    0.2633985959486203    0.30559805589603445    
  0.31982738986164505    0.36801769691989317    0.36250191072015897    0.3300388553990069    0.2611205855796903    
  0.1832793954418816    0.1237227281682735    0.08790668643923283    0.07083900145147794    0.06689592096112615    
  0.07221883402304949    0.0838148770508042    0.09804364975772747    0.10992517732010763    0.11456993926554772    
  0.10992516146703588    0.09804365199224198    0.08381485832633973    0.07221884219644562    0.0668959173748325    
  0.0708390139898876    0.08790669516889608    0.12372271064471835    0.18327942167843495    0.2611206396111673    
  0.33003891357056675    0.36250189584910303    0.36801769691989317    0.35525431553920434    0.3660398048690685    
  0.3630906389230884    0.3031086988401141    0.2139360463530636    0.14133900202455696    0.09774069358839933    
  0.07720858234220768    0.07247276374431307    0.07882507737763272    0.09271957002407502    0.10990749651037868    
  0.12434790639056213    0.12998827377878874    0.12434791871749735    0.10990744165087102    0.09271956942393215    
  0.07882506836486801    0.07247275273743999    0.07720855921261716    0.09774071049579432    0.1413390304056942    
  0.21393601138087534    0.3031086975033459    0.36309072941438725    0.3660397818199033    0.35525431553920434    
  0.3373874452931292    0.35584674635854946    0.3691903311276416    0.3175782568122703    0.22569335138520077    
  0.14816439944932822    0.1014848257854594    0.07958619228961115    0.07455836267312525    0.08136065983586499    
  0.0961935022923128    0.1145368895828373    0.12996033156668801    0.13599438914113127    0.1299603391282268    
  0.11453689065952802    0.09619354896414371    0.08136066129502882    0.07455837801248079    0.07958619388641286    
  0.10148485177546525    0.1481643924252678    0.22569340461713291    0.31757824865198603    0.3691903640348699    
  0.3558466877495348    0.3373874452931292    0.35525429994345586    0.3660397424777324    0.36309062734526604    
  0.30310869291273373    0.21393604177547065    0.1413390349570588    0.09774069644751832    0.07720857657004301    
  0.07247277560065866    0.07882506549681714    0.09271957221379667    0.10990749561298314    0.12434789380285682    
  0.12998826967020607    0.12434791175447452    0.10990745920271067    0.09271960240979989    0.07882507528567749    
  0.07247274806350652    0.07720857891655614    0.09774069409119986    0.1413390183168218    0.21393601675068694    
  0.3031086950840495    0.3630906827049987    0.3660397958794377    0.35525429994345586    0.36801770114948146    
  0.3625019087248479    0.33003889312556434    0.2611206083049927    0.18327942562853913    0.1237227273396746    
  0.08790667481516674    0.07083901138446924    0.06689591868142428    0.0722188271920656    0.08381486813866389    
  0.09804364779888267    0.109925177490196    0.11456994718341915    0.1099251528849859    0.09804364748443281    
  0.08381485870731685    0.07221881166416197    0.06689592200674987    0.07083901591769588    0.08790668745989993    
  0.12372271405699395    0.18327939551589442    0.261120607840534    0.33003888481608445    0.3625018675463988    
  0.36801770114948146    0.31982738305677566    0.30559799125352943    0.26339862116358864    0.20330690135074186    
  0.1449786290025811    0.10169811315350129    0.07534389544525633    0.0625820467220856    0.05965424044107724    
  0.06377374658887791    0.07260018358272209    0.08324019768954806    0.092009924783332    0.09543882515582613    
  0.09200992039188338    0.08324019086973808    0.07260018658597656    0.063773743997805    0.05965423252918577    
  0.06258205939782398    0.07534389955239792    0.10169811425535902    0.1449786203144462    0.20330686161833916    
  0.2633986147642846    0.3055979938731479    0.31982738305677566    0.23655549267746612    0.22425663323194772    
  0.19160644335696184    0.14977239457690725    0.11086424153949691    0.08181117205030249    0.06373728472184935    
  0.05484646365195975    0.05286083519403376    0.05591521998930312    0.062324196172576236    0.06989856518532828    
  0.07601470163958536    0.07837921688660324    0.07601470536376267    0.06989857000535464    0.062324208704623255    
  0.05591523432839742    0.052860839142679014    0.054846473843391766    0.06373729216243719    0.08181117670596182    
  0.11086425705979222    0.14977241965974375    0.19160647317905768    0.22425659230106537    0.23655549267746612    
  0.17208342415952332    0.1637109057449842    0.14174173102214713    0.11391979054734905    0.08796119172206071    
  0.06820301426662244    0.055639501943297524    0.04938246064420032    0.04811983786696305    0.05061063489537234    
  0.055526759552851176    0.06118513663617718    0.06563317466068569    0.067322190254404    0.0656331659501616    
  0.06118511693582158    0.05552676927766508    0.05061063649299577    0.0481198366586215    0.049382474417384276    
  0.05563949846605959    0.06820299439955015    0.08796121889347265    0.11391977900921378    0.1417417276385072    
  0.1637108815334246    0.17208342415952332    0.14526052246948062    0.1386175982100792    0.12115810633027416    
  0.09899874655295475    0.07827254622492492    0.062406650492719346    0.052246413049299896    0.04722904654000816    