#     DFTpy    
  CRYSTAL 
    
  PRIMVEC    
  3.9475172413793103    0.0    0.0    
  0.0    3.9475172413793103    0.0    
  0.0    0.0    2.1748275862068964    
  PRIMCOORD    
  4    1    
  Si    0.0    0.0    0.0    
  Si    1.9737586206896551    1.9737586206896551    1.0874137931034482    
  Si    0.0    1.9737586206896551    0.5437068965517241    
  Si    1.9737586206896551    0.0    1.6311206896551724    
  BEGIN_BLOCK_DATAGRID_3D    
  3d_datagrid_density    
  BEGIN_DATAGRID_3D#0    
  17    17    11    
  0.0    0.0    0.0    
  3.9475172413793103    0.0    0.0    
  0.0    3.9475172413793103    0.0    
  0.0    0.0    2.1748275862068964    
  0.05252349663239104    0.10923165807011156    0.3430431060363984    0.622063776530294    0.7068711612276222    
  0.6785574229344993    0.5805948689331575    0.44237127161599876    0.37842059506767517    0.44237145199312206    
  0.5805948674357609    0.6785573798884532    0.7068712283545885    0.622063846078933    0.3430430971571224    
  0.10923160737833189    0.05252349663239104    0.10923160741540984    0.1784896436996664    0.3998038526887584    
  0.6065705374709449    0.6519101250053875    0.6294525519209375    0.5657983604587354    0.46690833121586606    
  0.41763455208862454    0.4669084677702947    0.5657983205941657    0.6294525906710553    0.6519101737840958    
  0.6065704721068149    0.3998038928903045    0.17848964605301065    0.10923160741540984    0.3430430816235959    
  0.3998038865164221    0.5097295531212795    0.5492094025512867    0.5249025722404296    0.5115501859846651    
  0.5094313790447947    0.4931616646754683    0.4808366242739107    0.4931616543624273    0.5094311820499717    
  0.5115501320644802    0.5249026202721324    0.549209426163846    0.5097296027092327    0.39980386845972005    
  0.3430430816235959    0.6220638408887587    0.6065704992706089    0.5492094017351415    0.4650352653712667    
  0.4048852930206151    0.3968644576895904    0.4290059598712957    0.46806243208775855    0.4848685704610503    
  0.46806253294362626    0.4290060255967818    0.39686446379012374    0.4048853433521489    0.4650351589999807    
  0.5492094438930697    0.6065705326099333    0.6220638408887587    0.706871217228765    0.6519102134218279    
  0.5249025752479604    0.404885272937531    0.3398317141286307    0.33539077626193575    0.377257863215522    
  0.43331357034944495    0.459666446740743    0.4333135690088862    0.3772577888275107    0.3353907632942358    
  0.33983177462829683    0.4048853055395994    0.5249026367448135    0.6519101625245453    0.706871217228765    
  0.6785573965842894    0.6294524980129228    0.5115501478297451    0.3968645296586762    0.33539076034674875    
  0.33440967638931907    0.38052643677009823    0.4417118017635191    0.4706445636308432    0.4417119190549368    
  0.3805262993755749    0.3344096911169899    0.33539075732855855    0.39686446897782934    0.5115502618222941    
  0.6294524968045492    0.6785573965842894    0.5805949016135451    0.5657982999550971    0.5094312244306829    
  0.42900590204248557    0.3772578816409186    0.380526301679994    0.43129284713103505    0.49647542972069153    
  0.5270099293651035    0.4964755194488539    0.4312928164060301    0.3805262712928532    0.377257793927441    
  0.4290058969977436    0.5094312956059514    0.5657982667932532    0.5805949016135451    0.44237133093136954    
  0.46690839620826563    0.4931616351890906    0.4680625416571132    0.43331348316146995    0.4417118512453209    
  0.4964755138778489    0.5633809633846969    0.5936871704929709    0.5633810205720859    0.4964755277765356    
  0.44171179174296255    0.433313480191151    0.46806247587539596    0.4931617515455006    0.4669083838567123    
  0.44237133093136954    0.3784206260590773    0.4176346689644017    0.480836707742462    0.48486857647531767    
  0.4596664769067413    0.4706446284959229    0.5270099950294511    0.5936871296926735    0.6231121698562689    
  0.5936873212750728    0.5270099837671534    0.47064454795392235    0.45966651544148085    0.4848686470165437    
  0.4808366760761518    0.41763458815665644    0.3784206260590773    0.44237129425367505    0.46690846729358815    
  0.493161647160711    0.46806249830992197    0.43331350042062067    0.4417118215858632    0.4964754905331779    
  0.5633808426775085    0.5936872114988739    0.5633810297409004    0.49647553978081277    0.4417117577078019    
  0.4333134953271015    0.46806245805523006    0.49316172822202325    0.46690842627239626    0.44237129425367505    
  0.5805948049637486    0.5657983801473756    0.5094312211110832    0.42900593800099995    0.377257840517299    
  0.38052627454608917    0.4312929099694337    0.496475484069754    0.5270099574836157    0.496475472761556    
  0.4312928119857434    0.3805262540697995    0.3772578816082677    0.42900597683449043    0.5094312111055802    
  0.5657982245204972    0.5805948049637486    0.6785573560700834    0.6294525796293436    0.5115501875614927    
  0.39686450498041564    0.3353907382343219    0.33440969244353747    0.3805263218235178    0.441711817240768    
  0.4706446259357275    0.44171189542291317    0.3805264025882985    0.33440966711105347    0.3353907971109858    
  0.3968643987526969    0.5115502445740254    0.6294525509532555    0.6785573560700834    0.7068711754498731    
  0.6519102315165834    0.5249026374648265    0.40488529918775534    0.3398317611665941    0.335390751660642    
  0.3772578258222809    0.4333135316163748    0.45966644333329304    0.4333135467121538    0.37725784590105643    
  0.3353907475537615    0.3398317679517798    0.404885332071627    0.5249026172711143    0.6519101812958211    
  0.7068711754498731    0.622063757947265    0.6065705709631558    0.5492094219891163    0.4650353015458939    
  0.4048853030335151    0.3968645079982493    0.42900598386273325    0.46806245041915606    0.48486856954669827    
  0.4680624885949035    0.4290059499909434    0.396864488434325    0.40488530811531825    0.46503519529081644    
  0.5492094753728572    0.6065704176118173    0.622063757947265    0.34304307920504323    0.39980387074708873    
  0.5097295708190837    0.5492094007680095    0.5249025850802317    0.5115501601453636    0.5094312847126536    
  0.4931617003929797    0.4808367012707519    0.4931616958394014    0.5094312851000189    0.5115500823053037    
  0.524902481891256    0.5492094308826638    0.5097297056640208    0.39980387750484864    0.34304307920504323    
  0.10923166134454484    0.17848965034511405    0.3998038107862491    0.606570549245158    0.651910159974722    
  0.6294525615251864    0.5657983692190168    0.4669084147138259    0.4176345419060034    0.46690845256165436    
  0.5657983215614438    0.6294525855733445    0.6519102071527181    0.6065704413016736    0.3998039216738925    
  0.17848962993940037    0.10923166134454484    0.05252349663239104    0.10923165807011156    0.3430431060363984    
  0.622063776530294    0.7068711612276222    0.6785574229344993    0.5805948689331575    0.44237127161599876    
  0.37842059506767517    0.44237145199312206    0.5805948674357609    0.6785573798884532    0.7068712283545885    
  0.622063846078933    0.3430430971571224    0.10923160737833189    0.05252349663239104    0.09305351753091669    
  0.15684278234274848    0.36559654866973074    0.5601009174912087    0.5991022307225665    0.5919132068673801    
  0.5907693090204441    0.5795243381295547    0.5694441843994831    0.5795244947363221    0.5907693089153202    
  0.5919130806614802    0.5991023131217209    0.5601010021805813    0.3655966324549186    0.1568427425042831    
  0.09305351753091669    0.16413017128821086    0.23335085615543275    0.41711953971106946    0.5487484180118951    
  0.5573025012101862    0.5477828744919478    0.555264617991767    0.5585860146655921    0.5564027134607988    
  0.5585861794834093    0.5552645421754323    0.5477828226967154    0.557302502192631    0.5487483508432203    
  0.41711965110394095    0.23335087554724415    0.16413017128821086    0.4142536447757865    0.45564344184838934    
  0.5176116396460556    0.5084146305683828    0.4624761159739261    0.4480805840325123    0.4699356777944619    
  0.4990042115280092    0.5113372772823583    0.4990041963229891    0.46993557266516806    0.4480805505967884    
  0.462476155671049    0.5084146810086926    0.5176116978868743    0.4556433890139449    0.4142536447757865    
  0.6852787000996047    0.6544564687012034    0.5635468024701937    0.4518697208093364    0.3766198451993261    
  0.3593994771763076    0.3877753518146319    0.43030834646265975    0.4505800862405493    0.43030832288067095    
  0.38777540302481606    0.3593994939664296    0.3766198286247673    0.45186964366033583    0.5635469418472012    
  0.6544564719958605    0.6852787000996047    0.7701054106779379    0.7067634331517324    0.5601276603844156    
  0.42037060965960316    0.3399176512630094    0.32278448256241593    0.3524219419218705    0.39796373384599487    
  0.4200724258025396    0.3979637341319415    0.35242194376224156    0.3227844975998443    0.3399177042318275    
  0.42037060000301274    0.5601277159710456    0.7067633416672453    0.7701054106779379    0.7024479475136909    
  0.6627684186697489    0.5560003974052002    0.4365887996445257    0.36132395379819976    0.345885146979902    
  0.3768470026380763    0.4231846170415476    0.44553904017320034    0.423184667495004    0.3768469311819447    
  0.34588512668289817    0.36132397295942387    0.4365887851867041    0.5560005082550552    0.6627683227129227    
  0.7024479475136909    0.4755953286102163    0.5004378961164805    0.5217817259519771    0.4825817633921819    
  0.4300449735993218    0.41893686674244845    0.45005203907687036    0.493423081775403    0.5135422479770146    
  0.49342307288290327    0.4500519919054782    0.4189369000770514    0.4300449322600259    0.4825817502330393    
  0.5217818553071838    0.5004378402348955    0.4755953286102163    0.23647035280071907    0.3007389115295897    
  0.44472798302054706    0.5207947214166133    0.5094635218131282    0.5048312296559027    0.5328059435541402    
  0.5670470347265337    0.5810893155584425    0.5670471518759088    0.5328060309581629    0.5048311974640044    
  0.5094635170791599    0.5207947024172566    0.44472807288718497    0.3007389164636296    0.23647035280071907    
  0.15626289792515002    0.2234852159816034    0.40312783863492124    0.5334594782638524    0.5451345567732335    
  0.5437603851353863    0.5693999513383792    0.5977758121355671    0.608049953676179    0.5977759353573825    
  0.5693998623724257    0.5437603694312025    0.5451346390373459    0.5334595166067695    0.4031278429994309    
  0.22348517913694016    0.15626289792515002    0.23647030320279214    0.30073895357926983    0.444727894658231    
  0.5207947607404353    0.5094635307994269    0.5048312399732316    0.5328060443334423    0.5670470273382435    
  0.5810892776940078    0.5670471853868846    0.5328059901089455    0.5048312066364017    0.5094635037862021    
  0.5207947039611162    0.44472798620292114    0.30073892802559626    0.23647030320279214    0.47559529733704686    
  0.500437938759467    0.5217817220987312    0.48258174031573375    0.4300449735807124    0.4189368731486214    
  0.4500520754190868    0.4934230963688641    0.5135422978514191    0.4934230729020486    0.450051940922346    
  0.41893681943661615    0.4300449782377266    0.4825817732625183    0.5217818013891241    0.5004378359269209    
  0.47559529733704686    0.7024479001053049    0.6627683336209161    0.5560003968702907    0.43658876491886117    
  0.36132394118499056    0.34588515233852873    0.3768469552027868    0.4231846282427589    0.4455390249991171    
  0.42318467930107345    0.37684697833332015    0.3458851148631764    0.3613239931242866    0.43658869872993067    
  0.5560005106819123    0.6627683755266675    0.7024479001053049    0.7701053545026211    0.7067633732616562    
  0.5601276920136117    0.42037061681496063    0.33991765625650106    0.32278448722372266    0.3524219638881777    
  0.39796370328119834    0.42007241918299437    0.39796370420785027    0.35242193771358854    0.322784484601698    
  0.3399177264423908    0.4203706259033436    0.5601277301602317    0.7067634002656692    0.7701053545026211    
  0.6852787918026209    0.6544564524600862    0.563546862184204    0.4518697194325722    0.3766198209009089    
  0.3593995017685621    0.38777541147121625    0.4303082736906757    0.4505800080172044    0.4303083660533251    
  0.3877753690679485    0.35939953839095573    0.3766198427426728    0.45186967532594546    0.5635469028948666    
  0.6544563465286171    0.6852787918026209    0.4142536169798546    0.45564337237586744    0.517611629649416    
  0.5084146274033631    0.4624761057989537    0.4480806350003573    0.4699356389775584    0.4990041515547393    
  0.5113372939742871    0.4990042393354472    0.4699356339972993    0.4480805520240869    0.4624761409498122    
  0.5084146456162708    0.5176116726249294    0.4556433614687327    0.4142536169798546    0.16413022319853188    
  0.23335082745660296    0.4171195580799959    0.5487484234360025    0.5573024944539066    0.5477827980906402    
  0.5552645643221353    0.5585861020476289    0.5564026719908071    0.5585861207072235    0.555264597316545    
  0.5477827632989399    0.5573024770676458    0.5487483104237248    0.41711966563849967    0.23335083325413333    
  0.16413022319853188    0.09305351753091669    0.15684278234274848    0.36559654866973074    0.5601009174912087    
  0.5991022307225665    0.5919132068673801    0.5907693090204441    0.5795243381295547    0.5694441843994831    
  0.5795244947363221    0.5907693089153202    0.5919130806614802    0.5991023131217209    0.5601010021805813    
  0.3655966324549186    0.1568427425042831    0.09305351753091669    0.2560498798894097    0.31625766267465844    
  0.4453594772665832    0.5083777280919984    0.49759437306385423    0.5019284971081057    0.5454849391210311    
  0.598114612125528    0.6208817391996937    0.5981147360226335    0.5454849560169013    0.5019284275798941    
  0.4975943052293475    0.508377707355176    0.4453595355642355    0.3162575968093753    0.2560498798894097    
  0.3357879021590002    0.3848932587811873    0.47305226730195177    0.493617820432587    0.46714584889611244    
  0.4683081366607046    0.5111494613768058    0.5652309030183017    0.5895184899804522    0.5652310799365627    
  0.5111494490444481    0.46830815820085336    0.4671458103429566    0.49361775480889064    0.47305227373665404    
  0.3848933110232467    0.3357879021590002    0.5365736174686448    0.5411282498094144    0.5199020831921772    
  0.45539865249307776    0.4008685563276022    0.3957569130214258    0.43622204479615034    0.4910377524419461    
  0.5169240219316721    0.49103776814358063    0.4362219600346663    0.3957568950903955    0.40086863718443017    
  0.4553986354978828    0.5199021613334966    0.5411281257667736    0.5365736174686448    0.7008166510707992    
  0.6545201722515402    0.5380028822052763    0.4175200358866734    0.34714681409167275    0.3373366978600301    
  0.3742054377398275    0.42663811259294687    0.4518120990137605    0.42663818083268773    0.37420542374468435    
  0.33733668837447606    0.347146819381428    0.4175199595064347    0.5380029810803175    0.654520160582832    
  0.7008166510707992    0.7475525801812506    0.6872561907921242    0.547679452212757    0.4149221261277388    
  0.3398645094058343    0.3270686459348076    0.3608143134046461    0.40989553966943537    0.4334342642830546    
  0.4098955467075859    0.3608142370853309    0.3270686613855396    0.3398645585591611    0.414922107067627    
  0.5476795419957584    0.6872562221791104    0.7475525801812506    0.6558780901656849    0.633790811830832    
  0.5607254482281848    0.46167055693029446    0.391623045897894    0.37686360275703695    0.4057435325769305    
  0.4460975260134382    0.46466000851715905    0.44609760536598286    0.4057434223367558    0.3768635589806045    
  0.39162307247220673    0.46167052772263    0.5607254935741747    0.633790712298235    0.6558780901656849    
  0.36733673829203844    0.4193100478132226    0.5121351746818682    0.5311503453650084    0.49524444533397727    
  0.4802090133823782    0.4914300639458367    0.5010306383328127    0.5025848130294776    0.5010307155445699    
  0.4914300331119224    0.4802090766141237    0.49524433243822313    0.5311504099755423    0.5121352868537115    
  0.4193099760967497    0.36733673829203844    0.12302914846474412    0.19209876398311762    0.3998715342756183    
  0.5774685557341701    0.6065480923999412    0.5916385464889964    0.5692781906198346    0.5273284911028894    
  0.5027154924688997    0.5273285617027852    0.5692781526635758    0.5916384021134176    0.6065480419760667    
  0.5774684420568894    0.3998716166069134    0.19209876662353342    0.12302914846474412    0.061639113927629365    
  0.11989491613361772    0.3433254418110526    0.5894474155239142    0.655004261756727    0.6396526177211186    
  0.5979629440912079    0.5289023252592995    0.4916592652115572    0.5289024155523562    0.5979629671904384    
  0.6396525406276793    0.655004338176479    0.5894475064967862    0.343325484140395    0.1198948820466918    
  0.061639113927629365    0.12302910461770024    0.1920988145783428    0.39987152237118484    0.5774684332254838    
  0.606548079714566    0.5916385695407361    0.5692781537911571    0.5273284583013983    0.5027155444392951    
  0.5273286221163391    0.5692782131855318    0.5916385000838661    0.6065480523854186    0.5774685053925044    
  0.3998715916478892    0.19209878984785375    0.12302910461770024    0.36733669992486745    0.4193101404226606    
  0.5121352075216247    0.5311503899785606    0.495244413026833    0.4802090186556072    0.4914301228039671    
  0.5010307369412946    0.5025847119305324    0.5010307510824986    0.4914299433473689    0.4802090558157232    
  0.4952444489828495    0.5311503984128368    0.5121352895233344    0.4193100567477265    0.36733669992486745    
  0.6558780416485067    0.6337906798360007    0.5607254437528683    0.4616705313777535    0.3916230408029874    
  0.3768635801945283    0.40574345937458367    0.4460975307249655    0.4646599734488279    0.44609758151710893    
  0.40574354775053917    0.3768635491388254    0.391623079123296    0.46167045089005687    0.5607254815900191    
  0.6337907050307009    0.6558780416485067    0.7475524531244454    0.6872562594169391    0.5476795126776489    
  0.4149221441972848    0.3398645154890716    0.3270686317108956    0.3608143199794196    0.40989556528254933    
  0.4334343523249633    0.40989560488433635    0.3608142595173514    0.32706862131058445    0.33986454314512893    
  0.4149221299285592    0.547679501317792    0.6872562458502147    0.7475524531244454    0.7008166944168402    
  0.6545201980782122    0.5380029495527879    0.4175200173556069    0.34714678759804873    0.3373366785635413    
  0.37420544350225027    0.4266381109485429    0.45181205452450823    0.42663821353545617    0.3742054158311426    
  0.3373366850332491    0.3471467947372347    0.41751999694877195    0.5380029768139962    0.6545202126247992    
  0.7008166944168402    0.5365736311123829    0.5411282345044199    0.5199021001759552    0.4553986629841142    
  0.4008686325614247    0.39575696466325555    0.43622202694715734    0.49103772302829396    0.516923917007256    
  0.4910377294019226    0.4362219961731685    0.39575687152117367    0.4008685744876798    0.45539867295602193    
  0.5199021631804175    0.5411281822085225    0.5365736311123829    0.3357879861152128    0.3848932618245169    
  0.47305228677327354    0.49361777240002497    0.46714583294729206    0.4683081057564054    0.5111494669949759    
  0.5652309522918795    0.5895184418258914    0.5652310161047134    0.5111494477255963    0.4683081530172626    
  0.46714577249734823    0.4936177969097288    0.47305229723119663    0.38489329290415836    0.3357879861152128    
  0.2560498798894097    0.31625766267465844    0.4453594772665832    0.5083777280919984    0.49759437306385423    
  0.5019284971081057    0.5454849391210311    0.598114612125528    0.6208817391996937    0.5981147360226335    
  0.5454849560169013    0.5019284275798941    0.4975943052293475    0.508377707355176    0.4453595355642355    
  0.3162575968093753    0.2560498798894097    0.4916592213442292    0.5027155628131101    0.5025848177305974    
  0.4646600452583273    0.4334343654512557    0.45181207841308485    0.5169240188677172    0.5895184732887909    
  0.6208817645683644    0.5895185789696709    0.5169239618219921    0.4518119857579755    0.4334343207146269    
  0.46466006520446534    0.5025848668047821    0.5027154895173217    0.4916592213442292    0.528902328656933    
  0.5273285343804129    0.5010307195016729    0.4460976096173685    0.4098956406528498    0.4266381309836939    
  0.4910378265843309    0.5652309179289176    0.5981146743520093    0.565231092666781    0.4910377523117039    
  0.42663812518814576    0.4098955676111022    0.4460975085097029    0.5010307231173243    0.5273285545109506    
  0.528902328656933    0.5979629462625764    0.5692782116654316    0.4914300577177524    0.405743486262431    
  0.36081422502936195    0.3742054109855739    0.4362220462006416    0.5111494063190737    0.5454849191314615    
  0.511149418561056    0.43622197972355703    0.37420538763932265    0.3608143072184487    0.4057434341385555    
  0.4914300479516675    0.5692780996247628    0.5979629462625764    0.6396525763138494    0.5916385557125587    
  0.48020898576452437    0.3768635899613517    0.32706869286423    0.33733668992293575    0.39575694818367835    
  0.46830815093869815    0.5019285227015986    0.46830823177120456    0.39575690640794997    0.3373366847650717    
  0.3270686912513236    0.3768635023954082    0.4802091162379485    0.5916385293533405    0.6396525763138494    
  0.6550043835000611    0.606548063205998    0.4952443792361149    0.39162305869535224    0.3398645307199012    
  0.34714677635018343    0.40086865100644875    0.46714577528905044    0.4975943305692084    0.4671457841837451    
  0.4008685794376994    0.34714678487914863    0.3398645615696364    0.3916230563211174    0.4952444248804442    
  0.6065481141904144    0.6550043835000611    0.5894475104406103    0.5774685546561015    0.531150336876616    
  0.4616705683357306    0.41492208225013927    0.41752007022388093    0.45539869664567534    0.4936177997728091    
  0.5083776061786868    0.493617873588156    0.4553986212506417    0.41752004398943265    0.4149221243321821    
  0.4616705405471357    0.5311504572849732    0.5774684176198785    0.5894475104406103    0.34332541628593566    
  0.39987153717079654    0.5121352114781438    0.5607253637717188    0.547679537756759    0.5380029183452902    
  0.5199021687862653    0.4730522566828536    0.4453594150824169    0.47305228322553333    0.519902171359871    
  0.5380029418847173    0.547679465544074    0.5607254234832338    0.5121352988509149    0.39987148201662104    
  0.34332541628593566    0.11989489854517046    0.19209877112143264    0.419310001351698    0.6337908396818024    
  0.687256156244094    0.6545202023531834    0.5411281945410744    0.3848932169884652    0.3162576280908549    
  0.3848933054763606    0.5411282389906449    0.6545201263818086    0.6872561622999437    0.6337906706889979    
  0.4193100688993727    0.1920987756922337    0.11989489854517046    0.061639113203675815    0.12302916783212875    
  0.3673367460052531    0.6558779719409509    0.7475525259714598    0.7008166749297626    0.5365736827854609    
  0.335787919553456    0.2560498844744716    0.335787984862388    0.5365736612432934    0.700816637580542    
  0.7475525830097295    0.6558780585418073    0.36733674739918376    0.12302912316303782    0.061639113203675815    
  0.11989486020673863    0.19209882577264403    0.4193099971980923    0.6337907873565833    0.6872561768104883    
  0.6545202783445853    0.5411282650327921    0.3848932323025904    0.316257662224649    0.38489332991789965    
  0.5411282078125489    0.6545201285467689    0.6872561147828864    0.6337907542085467    0.41931004922874804    
  0.19209878576007974    0.11989486020673863    0.34332540815681606    0.3998715953034318    0.5121352717403059    
  0.5607254438446201    0.547679467484256    0.5380028759913165    0.5199022371514571    0.47305225757522146    
  0.4453593659155265    0.4730522440858467    0.5199020951971274    0.5380029355540045    0.5476795001904743    
  0.5607254383816368    0.5121352713579512    0.39987155615029635    0.34332540815681606    0.5894474457694114    
  0.5774684501106855    0.5311503738078306    0.461670543553894    0.4149220974600009    0.417520062088249    
  0.45539868144994544    0.4936177788704957    0.5083775956328344    0.4936178684979954    0.45539871658565484    
  0.41752000058694816    0.41492211516193206    0.4616704584536149    0.5311504137703745    0.5774685324888833    
  0.5894474457694114    0.655004336962874    0.6065480802620149    0.49524437502857416    0.3916230668851486    
  0.33986449767688054    0.34714675682359314    0.400868713604408    0.46714575462741026    0.497594418619834    
  0.4671458276885785    0.40086858350348464    0.34714673512109173    0.33986455286590694    0.39162307669295565    
  0.49524439911982093    0.6065481082125856    0.655004336962874    0.6396526220821095    0.5916385686005772    
  0.48020901162377494    0.3768635484085054    0.3270686693558058    0.3373366747276516    0.3957569916980585    
  0.4683081854982388    0.5019284374759099    0.4683081805740234    0.3957569277681537    0.3373366828482373    
  0.327068666585051    0.3768635469704218    0.4802090379049397    0.59163852745369    0.6396526220821095    
  0.5979630123327644    0.5692781097709433    0.4914300705085417    0.40574344461210593    0.3608142588348695    
  0.3742054217835452    0.43622204855905167    0.5111494093018258    0.545484841458665    0.5111493916272613    
  0.4362220131876435    0.3742053522445135    0.36081426170678516    0.4057434550786149    0.4914300571632724    
  0.5692781064068501    0.5979630123327644    0.5289023826956271    0.5273285504230328    0.5010306649679099    
  0.44609752800620917    0.4098955640818846    0.42663810972916405    0.491037760043564    0.5652309912015849    
  0.5981146265197146    0.565231033380205    0.49103776794868986    0.4266380574182382    0.40989557707697566    
  0.44609757141691514    0.5010307791456273    0.5273285072716096    0.5289023826956271    0.4916592213442292    
  0.5027155628131101    0.5025848177305974    0.4646600452583273    0.4334343654512557    0.45181207841308485    
  0.5169240188677172    0.5895184732887909    0.6208817645683644    0.5895185789696709    0.5169239618219921    
  0.4518119857579755    0.4334343207146269    0.46466006520446534    0.5025848668047821    0.5027154895173217    
  0.4916592213442292    0.6080499095563172    0.5810893955598593    0.5135423201969771    0.44553900957060566    
  0.4200724019278024    0.4505800658505292    0.5113372452270774    0.5564026861793718    0.5694441470025542    
  0.5564028152722311    0.511337246056467    0.45058002471601266    0.420072381315986    0.4455391065029703    
  0.5135423739921235    0.5810892546438479    0.6080499095563172    0.5977758202664174    0.5670471033261641    
  0.49342306906335953    0.42318460512274036    0.3979637397259692    0.43030834089204495    0.49900426520099617    
  0.5585860112863192    0.5795244019687769    0.5585861845968553    0.4990042171091616    0.4303083252788265    
  0.397963700263597    0.42318458823420885    0.4934231775238526    0.5670471432731893    0.5977758202664174    
  0.5693998584314239    0.5328060180284554    0.45005195482945226    0.37684696397546635    0.3524219284106632    
  0.387775329706402    0.46993568399223096    0.5552645554369195    0.5907692567911667    0.5552645450137867    
  0.46993554689329947    0.38777528212599083    0.35242193069443506    0.37684697004481366    0.45005200717391414    
  0.5328059048836002    0.5693998584314239    0.5437603738883778    0.5048312554605868    0.4189368722048692    
  0.34588513484973266    0.322784517099906    0.35939947184318616    0.448080622209796    0.5477827659360328    
  0.5919132333476901    0.5477828202377623    0.44808069206201895    0.35939949408688837    0.3227845203266675    
  0.34588505195654606    0.4189369754538695    0.5048312509134306    0.5437603738883778    0.5451345203145229    
  0.5094635671177814    0.4300449386153361    0.36132395987393234    0.33991767546475027    0.37661982057739274    
  0.4624760868170946    0.5573024332299539    0.5991023452102082    0.5573025617339155    0.4624761136596373    
  0.3766198451631243    0.3399177057283282    0.3613239654845809    0.43004499269109614    0.5094635123005784    
  0.5451345203145229    0.5334594722593456    0.5207947032904316    0.48258177917631523    0.4365887903888264    
  0.4203706230016206    0.4518697397934336    0.5084147387701325    0.5487483345843114    0.5601009124988242    
  0.5487484848814584    0.5084146085881023    0.4518696927939908    0.4203706474774569    0.43658877083929065    
  0.48258185037621026    0.5207946796205403    0.5334594722593456    0.4031278183439764    0.4447280233002991    
  0.5217817371852967    0.5560004080729428    0.5601276753745803    0.5635468448355566    0.5176116815421463    
  0.41711957747328593    0.3655965030471061    0.41711957573155156    0.5176116609249625    0.5635468725580141    
  0.5601275453937596    0.5560003758827298    0.5217818886248634    0.44472796719576857    0.4031278183439764    
  0.22348520692091042    0.30073889842082757    0.5004378299079171    0.662768358723324    0.7067633616379414    
  0.6544564132571092    0.4556434477356643    0.23335084237549159    0.156842757998731    0.2333508687987348    