#     DFTpy    
  CRYSTAL 
    
  PRIMVEC    
  5.141724137931034    0.0    0.0    
  0.0    5.141724137931034    0.0    
  0.0    0.0    2.832758620689655    
  PRIMCOORD    
  4    1    
  Si    0.0    0.0    0.0    
  Si    2.570862068965517    2.570862068965517    1.4163793103448274    
  Si    0.0    2.570862068965517    0.7081896551724137    
  Si    2.570862068965517    0.0    2.1245689655172413    
  BEGIN_BLOCK_DATAGRID_3D    
  3d_datagrid_density    
  BEGIN_DATAGRID_3D#0    
  23    23    13    
  0.0    0.0    0.0    
  5.141724137931034    0.0    0.0    
  0.0    5.141724137931034    0.0    
  0.0    0.0    2.832758620689655    
  0.05732886544371868    0.10282285508237897    0.2612659411255129    0.4007181004115391    0.3742139611255485    
  0.3005785739172779    0.2672706449448665    0.28200760225930815    0.3290061402413022    0.3732683648093575    
  0.3855585092656954    0.38276430605276307    0.3855583672425974    0.3732684000650212    0.3290061280452198    
  0.28200758662470643    0.26727071170333766    0.3005784816994896    0.37421396324400513    0.4007181191197431    
  0.26126593761592415    0.10282284105185059    0.05732886544371868    0.10282285993063134    0.15512844612141954    
  0.3030992819954525    0.39961420923020596    0.3540623914664101    0.28159799841267436    0.2502298951401077    
  0.26397354430570513    0.3093580547331285    0.35680222718007487    0.37764120406067214    0.3796552030745212    
  0.37764117683466714    0.35680219135635266    0.3093580135478178    0.2639735805718598    0.2502299293589424    
  0.2815980434478548    0.3540624233371323    0.3996141634693094    0.303099292844969    0.15512842118615433    
  0.10282285993063134    0.2612659291429352    0.30309930028434606    0.37668808177204743    0.37340224243386055    
  0.2992055485707532    0.23402055755777695    0.20797191632060139    0.21909139470379638    0.25826273742903705    
  0.30646587617676846    0.33964255755620304    0.34993393523356864    0.33964251076964563    0.30646587365425937    
  0.25826273661817867    0.2190913741894318    0.2079719413704581    0.2340205181554603    0.29920557827946725    
  0.3734021776684433    0.37668803173598714    0.30309930863788503    0.2612659291429352    0.4007180985975825    
  0.3996141432649509    0.373402238612663    0.3056138140370492    0.22970497405001325    0.17875623384210518    
  0.1592772526664904    0.1671800603462223    0.19657537081891494    0.23619106190692604    0.2692903520742582    
  0.2820445055961681    0.26929031685624844    0.2361910481085579    0.1965753271787306    0.16718009925738644    
  0.1592772655528552    0.17875622410201733    0.22970502632750717    0.3056138111551262    0.3734022473324783    
  0.39961418131360865    0.4007180985975825    0.37421390451425623    0.3540624248948963    0.2992055513732622    
  0.22970500475064456    0.17041748334622112    0.13359042537048338    0.11942388013600444    0.1245575493893742    
  0.14476195142203807    0.17281642350684526    0.1976956305146679    0.2077763938985125    0.1976956148652076    
  0.17281640518519686    0.14476197148170786    0.1245575398599028    0.11942389946935396    0.13359040360802138    
  0.17041749441366882    0.22970498118145458    0.2992055036061554    0.3540624294530516    0.37421390451425623    
  0.3005785682181349    0.2815980310598909    0.2340205930138596    0.17875618393464823    0.13359042698240609    
  0.10562625060745474    0.0946223316702891    0.0978546644422513    0.11190966589430869    0.13175062985847613    
  0.14941706486330184    0.15650542110485088    0.14941704229584943    0.13175064317655383    0.11190963738487116    
  0.09785467200154059    0.09462233400024071    0.10562624202284483    0.13359044869618383    0.17875621160825336    
  0.23402051898604706    0.28159803385411764    0.3005785682181349    0.2672706168098893    0.25022997875778263    
  0.20797192892992702    0.15927728321795948    0.11942388302952481    0.09462234337554046    0.08459187113780504    
  0.0866840894019114    0.09790065280516383    0.11411079301792684    0.12856880723709624    0.13432112178662328    
  0.1285687969658995    0.11411078184726979    0.09790064245884685    0.08668410299970798    0.084591890518544    
  0.09462232618721163    0.11942390885480146    0.15927727996974633    0.2079719189050622    0.25022994351956324    
  0.2672706168098893    0.2820075947759155    0.2639735119785079    0.21909142676492976    0.1671800578745996    
  0.1245575315584813    0.09785466012923301    0.0866840816563909    0.08826279617046996    0.09950673511550619    
  0.11597100941663843    0.1307490188879256    0.13672070883487894    0.13074901040147732    0.11597100009768663    
  0.09950673892897824    0.08826280398997266    0.08668408772727738    0.0978546703846871    0.12455753778877575    
  0.16718006713259137    0.21909138972606984    0.2639735096475417    0.2820075947759155    0.32900614495089286    
  0.30935801119678946    0.2582627490412859    0.196575384707425    0.1447619430947351    0.11190966008104224    
  0.09790064340221714    0.09950673745437175    0.11307427054030555    0.1329812556752138    0.15093359976581355    
  0.15830387075580515    0.15093360302997066    0.13298126744053893    0.1130742695175847    0.09950673920690149    
  0.0979006539451081    0.1119096322300003    0.14476198003996152    0.19657535855060254    0.25826272546652673    
  0.3093580291129849    0.32900614495089286    0.37326839375089294    0.35680219431136223    0.3064659306481831    
  0.23619099975768867    0.17281640960946984    0.13175062267941443    0.1141107527854871    0.11597100360376024    
  0.13298126904444885    0.1582786159093031    0.18128199834039402    0.19077046696295946    0.1812819502546536    
  0.15827862529279785    0.132981234885303    0.11597102115663702    0.11411075043217081    0.13175064212687146    
  0.17281643071193137    0.2361909870317631    0.30646588129369007    0.3568021849407377    0.37326839375089294    
  0.38555843080261093    0.377641151729002    0.3396425202658277    0.2692903217955977    0.19769561246200837    
  0.1494170370606724    0.12856878736722335    0.13074901938787153    0.15093358522629474    0.18128197930585818    
  0.20895588495976158    0.2203466968235836    0.2089558752236122    0.18128197903827659    0.15093360174144796    
  0.13074899957481775    0.12856882340843387    0.1494170368590982    0.1976956320182766    0.26929030939623366    
  0.33964249290031423    0.3776411705033067    0.38555843080261093    0.38276441040052434    0.3796552403772134    
  0.349933934113559    0.28204457331070326    0.2077763671370059    0.15650540956239467    0.13432111443138794    
  0.13672073136078505    0.15830384309733245    0.19077047431850466    0.22034677247673906    0.23251713688291417    
  0.2203466602904888    0.19077050196226172    0.15830381288416323    0.13672075771791675    0.13432111325014912    
  0.15650541947373822    0.20777635310577028    0.2820445555615549    0.34993392180851635    0.37965520535013614    
  0.38276441040052434    0.3855583881362293    0.37764115366848433    0.33964251823388875    0.2692902929250995    
  0.1976956464249687    0.14941701490324977    0.12856879598100232    0.13074899657998099    0.15093362026339763    
  0.181281977382266    0.20895588635439838    0.22034670309544585    0.20895590238732256    0.18128192000718055    
  0.15093362523581555    0.13074899368952111    0.1285688605007435    0.1494170136197396    0.19769567529612248    
  0.2692902709451471    0.33964252414971213    0.3776411607242774    0.3855583881362293    0.37326838197867335    
  0.3568022210039834    0.3064658874214771    0.2361910619223591    0.1728164091054166    0.1317506668919244    
  0.11411073918319373    0.11597103865446992    0.13298125863927127    0.1582786326664649    0.18128196576759215    
  0.19077050545241425    0.18128192947440086    0.1582786612167055    0.13298122225411538    0.11597102110952184    
  0.11411073376622735    0.1317506424577934    0.17281640729464928    0.23619103650143616    0.3064658530834755    
  0.3568022520250845    0.37326838197867335    0.32900613681209406    0.3093579870755537    0.2582627436800385    
  0.19657532915893927    0.1447619836259064    0.11190962841291206    0.0979006687922253    0.09950672326051971    
  0.1130742943950541    0.1329812429649938    0.15093362557609533    0.15830381852791764    0.15093361397755747    
  0.13298121248273242    0.1130743096732594    0.09950672038463315    0.09790068493823599    0.11190961184684427    
  0.1447620108766957    0.1965753394466164    0.25826274546746997    0.30935799581490503    0.32900613681209406    
  0.28200752812598634    0.26397355374983444    0.21909139200173008    0.16718009152392957    0.12455749985944652    
  0.09785469820283767    0.08668405740032155    0.08826282767283121    0.09950670883740578    0.11597103470079156    
  0.13074898058229278    0.1367207572397739    0.13074896986738818    0.11597104446385309    0.09950670394524545    
  0.08826283553773312    0.08668405631501411    0.09785469262666735    0.12455750036429876    0.1671800896784463    
  0.21909135531400104    0.263973563000017    0.28200752812598634    0.2672707219184081    0.2502298730325173    
  0.2079719924578313    0.15927723444967537    0.11942392976782666    0.09462231123864642    0.08459190209780845    
  0.08668405348746616    0.09790070989185175    0.11411073306443505    0.12856886482900404    0.1343210949962668    
  0.12856886296336623    0.11411073053335437    0.097900679789687    0.08668405858579264    0.08459192540776113    
  0.09462229312949506    0.11942396236198533    0.15927721683077462    0.20797195644758731    0.2502299112022884    
  0.2672707219184081    0.30057844896684294    0.2815980695956817    0.2340205254310945    0.17875622616908787    
  0.13359038377243976    0.10562629497367024    0.09462229725998256    0.09785469680082214    0.11190961006136714    
  0.1317506878758657    0.1494170041685169    0.15650542353310906    0.14941700895117713    0.13175068230968182    
  0.11190959091023568    0.09785471116582521    0.09462229867471274    0.1056262868157011    0.1335903875090918    
  0.17875624592868902    0.23402050096363916    0.28159808444054996    0.30057844896684294    0.3742139276273378    
  0.3540623979097497    0.29920559343813596    0.22970495179127484    0.1704175121994866    0.1335903895596513    
  0.11942391182868324    0.12455749940025732    0.1447619914051883    0.17281638549684666    0.19769567993198248    
  0.20777631387500917    0.19769568767814    0.17281639762493273    0.1447620095591783    0.12455750037794883    
  0.11942395104915678    0.13359037574708743    0.17041753966875042    0.22970495052097176    0.299205570612281    
  0.35406236780497674    0.3742139276273378    0.40071806366760415    0.39961421432864674    0.37340219757235943    
  0.30561383578688683    0.22970494125057234    0.1787562449174793    0.1592772430148831    0.16718009521504698    
  0.1965753680427007    0.236191029571946    0.26929028260960347    0.28204460339015014    0.269290261262114    
  0.2361910352565359    0.19657532683495005    0.1671801218809193    0.1592772234131228    0.17875625480698226    
  0.22970495863431983    0.305613840500324    0.37340218685454035    0.3996142069717759    0.40071806366760415    
  0.26126595844706185    0.3030992575085112    0.3766881063456699    0.3734021606187941    0.29920555635316715    
  0.23402050844074251    0.20797191690782024    0.21909137148107086    0.2582627622509504    0.3064658290287776    
  0.3396425824734375    0.34993388611635956    0.33964253176223563    0.30646587356498284    0.25826276020340405    
  0.2190913645032645    0.20797198386120963    0.23402048115008262    0.2992056117425755    0.37340213658187277    
  0.37668807673198373    0.3030993004412529    0.26126595844706185    0.10282285331957243    0.1551284335253896    
  0.30309925920698216    0.39961418097842005    0.35406238778970783    0.2815980233165246    0.2502298705077126    
  0.26397356607197564    0.30935803392254374    0.35680224453194326    0.3776411684568798    0.3796552361173865    
  0.37764113418742085    0.35680222220165325    0.3093579757722218    0.26397356536570804    0.2502299014512322    
  0.28159805069640786    0.35406236161811333    0.39961418287454953    0.3030992449431942    0.15512843580097024    
  0.10282285331957243    0.05732886544371868    0.10282285508237897    0.2612659411255129    0.4007181004115391    
  0.3742139611255485    0.3005785739172779    0.2672706449448665    0.28200760225930815    0.3290061402413022    
  0.3732683648093575    0.3855585092656954    0.38276430605276307    0.3855583672425974    0.3732684000650212    
  0.3290061280452198    0.28200758662470643    0.26727071170333766    0.3005784816994896    0.37421396324400513    
  0.4007181191197431    0.26126593761592415    0.10282284105185059    0.05732886544371868    0.10300235414254294    
  0.1542814352433211    0.2971201225010359    0.384945910625646    0.3320193762085149    0.253066876511993    
  0.21288032420960984    0.21300900561355976    0.24355881476563315    0.2887359816579319    0.3263442118112971    
  0.34042073127958944    0.32634411408693365    0.2887360476537824    0.24355879516992346    0.21300901101263942    
  0.21288037338985671    0.2530668236641349    0.3320193427940557    0.38494596288978955    0.2971201161573488    
  0.1542814053127731    0.10300235414254294    0.1562371676579786    0.20836890329673038    0.33081495023923    
  0.38065670422242054    0.31482029195615197    0.23822851565810044    0.20049824187841084    0.20053437805053403    
  0.22912368816528508    0.2719610946476006    0.30817769300301423    0.32192782041480233    0.30817771483070416    
  0.2719610801826473    0.22912366110736435    0.2005343872566482    0.2004982956569801    0.23822850371083268    
  0.31482037678894403    0.3806566516763487    0.33081496445553893    0.20836888441171142    0.1562371676579786    
  0.30901767748883013    0.3402229286719209    0.3827029510143835    0.3518466839448046    0.2689041990249656    
  0.20120050110877846    0.16976442371487888    0.16962047653150045    0.19306423183726154    0.228860238039842    
  0.26019027514652604    0.2725205444974035    0.2601902581576749    0.22886028222910362    0.19306422558986633    
  0.16962050370262283    0.16976442250139911    0.20120049762385722    0.2689042172802151    0.35184667055776325    
  0.38270292685686286    0.3402229134058837    0.30901767748883013    0.41585935020090103    0.40740225527549606    
  0.36685098988559817    0.29034442199828286    0.21163762092664942    0.15842114565756787    0.1344355371205392    
  0.13408386647603424    0.15130785973188438    0.1777764817699212    0.20169292997218588    0.21144779089167617    
  0.2016928906440735    0.17777646542645284    0.15130782202695234    0.13408387341893188    0.13443555691836764    
  0.15842112180504495    0.21163769648774533    0.29034437075692404    0.3668509331681331    0.407402304743176    
  0.41585935020090103    0.38280486592284246    0.3600392622858421    0.2998982541820264    0.22603112703317776    
  0.16368511288048795    0.12393861893865574    0.10594809689286797    0.1053543786712322    0.11743492136423475    
  0.13613616530169012    0.15332141529471438    0.16041255360987017    0.15332138644648155    0.13613618824350804    
  0.11743489978386115    0.10535439103176335    0.10594811870703269    0.1239386388834394    0.16368511397225502    
  0.22603113758285417    0.29989818889084807    0.3600392460259562    0.38280486592284246    0.32359715514624676    
  0.3021355482222488    0.24855110844750053    0.18667133108051542    0.13616594889954514    0.10412702470511921    
  0.08948891631100715    0.08865457355405434    0.09765294785760441    0.11188134234954061    0.1250084164894934    
  0.1303628673241686    0.12500842832799403    0.11188133875462276    0.0976529461062239    0.08865456531447571    
  0.08948893604788222    0.10412700736436283    0.136165978367291    0.18667130165531037    0.2485511005588237    
  0.30213557003650493    0.32359715514624676    0.3104456706573475    0.28972017139402106    0.2382741948217022    
  0.1790976523778741    0.1307710323735742    0.10005495766249932    0.08590135320664624    0.08475565498874538    
  0.09282939873300586    0.10587171131185198    0.11794406808032316    0.1228522734836744    0.11794406039959486    
  0.1058716993211196    0.09282936648981115    0.08475568018246124    0.08590134556866497    0.1000549493920796    
  0.13077104131301723    0.1790976354824659    0.23827416350061606    0.2897201580589223    0.3104456706573475    
  0.3480452548759804    0.3256629184881942    0.26885032018956256    0.20183717743130547    0.14623135220638334    
  0.11069023857571236    0.09419433358140836    0.09266718317678306    0.10189941272422604    0.11680981091102519    
  0.13058757951804117    0.13625284266611778    0.1305875630185842    0.11680979306031729    0.10189944039858284    
  0.0926671910279091    0.09419435099081201    0.11069021714102398    0.14623136693401412    0.20183717863333067    
  0.268850261740582    0.325662933680341    0.3480452548759804    0.39907381282665455    0.38062630809095555    
  0.3254550465766501    0.24888235428848435    0.17940470433620592    0.1336743245718815    0.11240404377819074    
  0.11046529479776615    0.12264581148277759    0.14228998226597708    0.16034326546322314    0.16778995591888235    
  0.1603432305713726    0.1422900034599554    0.122645773825591    0.11046530770171337    0.11240403923247105    
  0.13367434586961077    0.17940473768275894    0.24888235118226537    0.32545499161007296    0.3806263007369725    
  0.39907381282665455    0.3843931120960758    0.3878235288287974    0.3690012835131557    0.3023216787283409    
  0.221366610569155    0.16345334180279839    0.1361665993048906    0.13369307257631305    0.14967285493709223    
  0.17582086673854308    0.19987662221730224    0.20974001449530089    0.1998765958112992    0.17582087923924905    
  0.14967284967129266    0.133693069617064    0.13616663442774246    0.16345331755112671    0.22136663804866927    
  0.3023216469680986    0.36900127438180647    0.38782352800638525    0.3843931120960758    0.30213108272629396    
  0.33188345240566586    0.370963580771086    0.33863570314471597    0.2567395586259899    0.18946572005169246    
  0.15693711292199242    0.15405418975836738    0.17342055873034803    0.20539322465206816    0.23485240607167251    
  0.24688255114325056    0.23485238533308528    0.2053932033506019    0.1734205551699034    0.15405420361669217    
  0.1569371165775225    0.18946575595865459    0.2567395375321007    0.33863572285738797    0.37096356585575724    
  0.3318834535996001    0.30213108272629396    0.25842920428741234    0.2972910070155147    0.36205550870366005    
  0.35001117626135564    0.27059472214686064    0.1998866343407037    0.16521399242973697    0.16224682853613967    
  0.1830695625627179    0.21741563223234933    0.24907200742220673    0.2619894819387638    0.24907189369121788    
  0.2174156552479679    0.183069555074256    0.16224682673846666    0.16521404248964014    0.19988658344884336    
  0.2705947384878139    0.3500111978870778    0.36205550301309997    0.29729095389843396    0.25842920428741234    
  0.3021310071583262    0.33188346312297096    0.3709635424866868    0.33863572032042233    0.25673955572959706    
  0.18946573498144745    0.15693707308545554    0.154054204753842    0.17342056101752445    0.20539321353161885    
  0.23485237423422045    0.24688256230467384    0.23485238355452911    0.2053931892123925    0.17342055817321417    
  0.15405421958374646    0.15693711161909035    0.1894657364972869    0.25673952710961795    0.33863573921163814    
  0.3709635479644456    0.33188345251378604    0.3021310071583262    0.38439319804024047    0.38782349032434    
  0.36900134502889415    0.3023216661228139    0.22136661835736482    0.16345332399825524    0.1361666206381281    
  0.1336930530493336    0.14967288736560072    0.1758208531221945    0.1998766255501135    0.20974001243136553    
  0.19987659422178133    0.17582086780291933    0.14967286116118253    0.13369303413535533    0.13616665693749713    
  0.16345330319170642    0.22136666853263595    0.3023216332057134    0.3690012996850616    0.3878235107079304    
  0.38439319804024047    0.39907372853886613    0.3806263543995691    0.3254549512846865    0.2488823496288309    
  0.17940468444005064    0.13367438148811978    0.1124040060290625    0.11046531679019364    0.12264576963623547    
  0.1422900577108711    0.16034321310367514    0.16779000309259648    0.1603431929519364    0.14229003586767378    
  0.12264574198620512    0.11046534254431674    0.11240400013376246    0.13367436331660165    0.17940471583128997    
  0.248882379361154    0.32545493358142263    0.38062638319448655    0.39907372853886613    0.3480453040380184    
  0.32566286497664343    0.26885037348125795    0.20183714466784053    0.14623136361054354    0.11069020410929699    
  0.09419436036301605    0.09266716000217798    0.1018994462487267    0.11680975058975522    0.1305876109476597    
  0.13625282205225794    0.13058759608399997    0.11680974215397501    0.10189946561824761    0.09266714977926797    
  0.09419438528287476    0.11069018038133813    0.14623141735194625    0.20183712686804686    0.2688502976563185    
  0.3256628604760813    0.3480453040380184    0.31044562295205075    0.28972020363926976    0.23827414662109586    
  0.17909768462275125    0.1307709906758856    0.10005499653767294    0.08590131664919554    0.08475569253310024    
  0.09282937116958977    0.10587172242016654    0.11794404532445814    0.1228523100004613    0.11794404422081947    
  0.10587173765817531    0.09282932942953108    0.0847557163520509    0.08590132057278536    0.10005499598207349    
  0.13077101066681313    0.1790977013341418    0.23827410173691513    0.289720242122581    0.31044562295205075    
  0.3235971825565176    0.3021354986252516    0.24855113609215856    0.18667126340532675    0.13616598976975375    
  0.10412698859518316    0.0894889563981983    0.08865453405437677    0.09765299161921445    0.11188131367235615    
  0.1250084656881615    0.13036281583552511    0.12500847286370317    0.11188128718044428    0.09765297627601247    
  0.08865453545213839    0.08948897885244421    0.1041269605624682    0.1361660135831177    0.186671246623264    
  0.24855115409873535    0.3021355314046608    0.3235971825565176    0.3828048149999457    0.3600393485205348    
  0.29989822420273593    0.22603117979747875    0.16368506274923117    0.12393865567046336    0.10594806327339315    
  0.10535441219922324    0.11743487680826274    0.13613621822682254    0.15332135606585937    0.1604125912494886    
  0.1533213335385372    0.13613623054651758    0.11743486684821694    0.10535442300869213    0.1059480799292495    
  0.123938657792715    0.1636850777076795    0.22603118487767063    0.29989813830210926    0.3600393256026645    
  0.3828048149999457    0.4158594372757171    0.407402211702727    0.3668510086026534    0.29034435504262285    
  0.21163765765840603    0.15842112262406816    0.1344355616967193    0.13408384159025682    0.15130787967057532    
  0.17777643142121033    0.20169297157300542    0.21144777987344143    0.20169296002267276    0.17777638729535788    
  0.15130787249357694    0.13408383799647297    0.13443557380534504    0.1584211134554497    0.21163769293522594    
  0.29034436766955624    0.3668510299684989    0.40740220388495507    0.4158594372757171    0.3090176428787006    
  0.34022292156433487    0.38270291796835154    0.3518467118445704    0.2689041536169001    0.20120052256886373    
  0.16976438205334024    0.16962053054399848    0.19306419663914004    0.2288602572952286    0.2601902721337305    
  0.2725205607503206    0.2601902121645924    0.22886030672677196    0.19306415601856602    0.16962052767664976    
  0.1697644180860828    0.2012004967802554    0.26890418567526714    0.351846666988665    0.38270286544394416    
  0.3402229550274956    0.3090176428787006    0.15623719013590326    0.2083688868307447    0.330814965710495    
  0.3806566686722544    0.3148203356836354    0.2382285069772276    0.20049826932531445    0.20053435451860208    
  0.22912371058296374    0.27196107746315934    0.30817771606592953    0.32192779830457646    0.30817769217171537    
  0.27196104990556086    0.22912370964388548    0.20053435294823127    0.20049828018648108    0.23822851293041125    
  0.3148203517056202    0.3806566330121314    0.33081494636460107    0.2083688616012766    0.15623719013590326    
  0.10300235414254294    0.1542814352433211    0.2971201225010359    0.384945910625646    0.3320193762085149    
  0.253066876511993    0.21288032420960984    0.21300900561355976    0.24355881476563315    0.2887359816579319    
  0.3263442118112971    0.34042073127958944    0.32634411408693365    0.2887360476537824    0.24355879516992346    
  0.21300901101263942    0.21288037338985671    0.2530668236641349    0.3320193427940557    0.38494596288978955    
  0.2971201161573488    0.1542814053127731    0.10300235414254294    0.25842921102598615    0.29729096729577803    
  0.3620554964115817    0.35001119404890957    0.27059475428048957    0.19988662866119242    0.1652140070034789    
  0.1622468199014644    0.18306959105087417    0.21741562248195953    0.2490720119924517    0.2619894871291481    
  0.24907190928209544    0.21741565828497797    0.18306955737651096    0.16224680913219067    0.16521406569569935    
  0.1998865697314556    0.2705947310473216    0.3500111782030528    0.3620555230237793    0.29729092485517905    
  0.25842921102598615    0.30213101817407634    0.3318834781365319    0.3709635600740668    0.33863572026661015    
  0.2567395328933757    0.18946573096966812    0.15693709372631381    0.154054208821594    0.17342056927177002    
  0.2053932206061666    0.234852382614032    0.246882567883171    0.23485235783949585    0.20539321219380044    
  0.17342056212488327    0.1540542205615313    0.15693710683525253    0.18946571343813132    0.25673957511902024    
  0.33863568631208124    0.37096355931815156    0.33188345618704557    0.30213101817407634    0.3843931242803561    
  0.3878234985434683    0.36900128650045355    0.3023216918689444    0.22136660752305043    0.16345334551920643    
  0.1361666166885729    0.13369306247077084    0.14967287912744737    0.17582086945080777    0.19987662946204987    
  0.20974001564449157    0.19987662339427129    0.17582087632978066    0.14967288074406274    0.1336930359803135    
  0.13616662789812536    0.16345332006878782    0.2213666606358207    0.3023216332244957    0.36900129625022554    
  0.38782351761564116    0.3843931242803561    0.3990737585393546    0.38062630639711564    0.32545502649048136    
  0.24888235817433077    0.17940468872739068    0.1336743622126718    0.11240402926346785    0.1104652981276267    
  0.12264579841124146    0.14229000595837554    0.16034324944142672    0.1677899456974699    0.16034319891468218    
  0.1422900118423417    0.12264575064962137    0.11046531064758695    0.1124040155032378    0.13367435730155672    
  0.1794047303529263    0.248882324425368    0.32545500029330415    0.3806263794640113    0.3990737585393546    
  0.3480452706558062    0.3256629081082255    0.2688503138040661    0.20183720489778734    0.14623133605642763    
  0.1106902318533544    0.09419433643401275    0.09266717680428004    0.10189942764986903    0.11680978500252985    
  0.13058758677730065    0.13625282709530878    0.13058756790036696    0.11680978404286553    0.10189944771295971    
  0.09266717136100906    0.09419435696622795    0.11069021655995334    0.14623136975041331    0.20183719115354956    
  0.26885026663965744    0.32566287835157137    0.3480452706558062    0.3104457028288739    0.2897201598401663    
  0.23827418557158833    0.17909765615246467    0.13077103061637396    0.10005495238028358    0.08590134919124842    
  0.08475566377417004    0.09282938809860908    0.10587168450032844    0.11794407722239096    0.12285229351327785    
  0.11794407972254292    0.10587168605018514    0.09282936973276226    0.08475567404037423    0.08590134916753081    
  0.10005495287780518    0.13077106021390764    0.1790976470248433    0.23827413752096815    0.2897201808864225    
  0.3104457028288739    0.3235971290226841    0.3021355537163462    0.2485511164488492    0.1866713330831683    
  0.13616594362520265    0.10412703302164188    0.08948892571556068    0.08865455121096082    0.09765294461772313    
  0.11188135222700314    0.125008421472475    0.13036283086354677    0.12500841580441907    0.11188134731237287    
  0.09765292816166397    0.08865457850617571    0.08948893899463237    0.10412700418406279    0.13616598071356442    
  0.1866713184285795    0.24855107547458216    0.3021355414210785    0.3235971290226841    0.38280489248236726    
  0.36003924756020345    0.2998982865586362    0.2260311059194703    0.16368510925305976    0.12393861788218963    
  0.10594812351530529    0.10535437586232499    0.11743491817969821    0.13613619903083585    0.15332140119714194    
  0.16041254142155784    0.15332138044983973    0.1361361642134703    0.11743492044715169    0.10535439101924134    
  0.10594811815909248    0.12393861542327288    0.16368510939754774    0.22603113398299376    0.299898223066171    
  0.3600392662283235    0.38280489248236726    0.41585938216620993    0.40740225574860023    0.3668509624114633    
  0.2903444339153091    0.21163759937842183    0.15842115907311122    0.13443552497956296    0.13408386614757792    
  0.1513078485079385    0.17777648034956203    0.20169291917714635    0.21144783568706726    0.20169292717688275    
  0.17777646889544857    0.15130784003551326    0.13408385144948579    0.134435537074116    0.15842112790432225    