#     DFTpy    
  CRYSTAL 
    
  PRIMVEC    
  4.1465517241379315    0.0    0.0    
  0.0    4.1465517241379315    0.0    
  0.0    0.0    2.2844827586206895    
  PRIMCOORD    
  4    1    
  Si    0.0    0.0    0.0    
  Si    2.0732758620689657    2.0732758620689657    1.1422413793103448    
  Si    0.0    2.0732758620689657    0.5711206896551724    
  Si    2.0732758620689657    0.0    1.7133620689655171    
  BEGIN_BLOCK_DATAGRID_3D    
  3d_datagrid_density    
  BEGIN_DATAGRID_3D#0    
  19    19    11    
  0.0    0.0    0.0    
  4.1465517241379315    0.0    0.0    
  0.0    4.1465517241379315    0.0    
  0.0    0.0    2.2844827586206895    
  0.05015399861559804    0.09514509517159946    0.27869535819111513    0.524239744701914    0.6203984024894114    
  0.6143022679433411    0.5851963034548197    0.5137071004826967    0.4154968168354046    0.37033426555329296    
  0.4154968413657546    0.5137071451447731    0.5851963498470876    0.614302252308951    0.6203983905336314    
  0.5242397923107085    0.2786953827598335    0.09514510358068759    0.05015399861559804    0.09514510898440962    
  0.1495721579250442    0.32927700782897545    0.5230323576219854    0.5808579022843278    0.568726383118237    
  0.5493692890770759    0.5027018365238525    0.4318244935869432    0.3972406241827285    0.43182452566504054    
  0.5027017965445056    0.5493692878690445    0.5687264164351034    0.5808578473881104    0.523032374638939    
  0.3292770090176905    0.14957216980017604    0.09514510898440962    0.27869539079637484    0.3292770100096265    
  0.43927901242789097    0.4991710966234268    0.48371354308279907    0.4607850913089588    0.45888375979225754    
  0.45892347286162594    0.44542281696048075    0.4357774632100823    0.44542279358379594    0.45892350527574755    
  0.4588837356729358    0.4607850628878477    0.4837134884635828    0.4991710378704972    0.43927903798863904    
  0.32927701165836293    0.27869539079637484    0.5242398100820994    0.5230323758258142    0.4991710697266467    
  0.4392199267613561    0.3777865541935185    0.34945444347927535    0.3581261306717927    0.3877308210088914    
  0.41537029130089886    0.4258442093226513    0.41537029897310496    0.38773081165259554    0.35812612090247337    
  0.3494544498278647    0.37778652280452657    0.43921991832816465    0.49917105298694064    0.5230323962450718    
  0.5242398100820994    0.6203984413798053    0.5808578695949169    0.4837135255892481    0.37778653591052747    
  0.3041607600121019    0.2760180012805479    0.2881831515197876    0.3271450887657636    0.3691875939634457    
  0.3872288318096787    0.36918760252955213    0.3271450920316988    0.28818315866074146    0.27601800391268133    
  0.3041607232130858    0.3777865326527707    0.4837135865295394    0.5808578620835035    0.6203984413798053    
  0.6143023397474915    0.5687264388355054    0.4607850542714507    0.3494544282371859    0.27601799749572314    
  0.249508749577924    0.2634600900652801    0.3049634681589129    0.35032186803265003    0.3701343800948948    
  0.35032185544338723    0.30496348475659146    0.2634600562461358    0.24950874890980307    0.2760180083566114    
  0.34945441520707893    0.460785108805651    0.5687264276607887    0.6143023397474915    0.5851963718834715    
  0.5493692834373878    0.4588837465459902    0.358126132201893    0.28818317623991235    0.26346008178877633    
  0.2802796357554071    0.32504526061494077    0.37319283905147166    0.3943764028988578    0.3731928207950346    
  0.32504525302965886    0.28027965191165494    0.2634600725266406    0.2881831568623559    0.35812610349812074    
  0.458883731053116    0.5493693327507184    0.5851963718834715    0.5137071342615475    0.5027018243727674    
  0.4589234638254516    0.3877307923833061    0.3271451219511981    0.30496347128505213    0.32504523828179555    
  0.37416581520828135    0.4266056098338605    0.45002365866722766    0.42660558688613404    0.374165794929754    
  0.3250452200457372    0.30496348164889653    0.3271450598872446    0.38773081792339525    0.45892349440201974    
  0.5027018040504511    0.5137071342615475    0.41549686680288883    0.4318244528015871    0.44542276070205405    
  0.41537029305964773    0.36918758711268934    0.35032185902040963    0.3731928051494471    0.4266056070914352    
  0.483183791823788    0.5084103916747695    0.4831837898465297    0.4266055880616679    0.373192786664227    
  0.35032191087390613    0.3691876070221375    0.4153702717218099    0.4454227883380326    0.4318245061599014    
  0.41549686680288883    0.3703343106959055    0.39724057031534493    0.4357774629298398    0.4258441296677898    
  0.3872288396268072    0.3701343799373155    0.3943763835127426    0.45002362020458897    0.5084103818617624    
  0.5341981342806564    0.5084104056525969    0.4500236203743461    0.39437643237069264    0.3701343893042903    
  0.3872288330460114    0.4258441908383472    0.4357774901840269    0.3972405631671422    0.3703343106959055    
  0.41549684036379925    0.43182448088250946    0.4454227422087273    0.4153702792553314    0.36918760915237714    
  0.35032183641353715    0.37319280608684524    0.42660558203456667    0.48318379394527644    0.5084104429476605    
  0.48318377021600695    0.4266055905524829    0.3731927639280444    0.35032187108478535    0.3691875978396936    
  0.41537029623890925    0.4454227659443905    0.43182449718790716    0.41549684036379925    0.5137071205339179    
  0.5027018390647582    0.4589234846048161    0.38773083232681166    0.3271450994199309    0.3049634772815095    
  0.3250452554575706    0.3741657864405013    0.426605610966951    0.4500236056869228    0.426605600059948    
  0.3741658165841599    0.3250452315724393    0.3049634583275464    0.3271450587884681    0.38773078404782557    
  0.458923491641612    0.5027018796581304    0.5137071205339179    0.5851963754737156    0.5493692969114622    
  0.45888372406083006    0.35812613480677996    0.2881831718986138    0.263460057767648    0.28027965867098315    
  0.32504525164992226    0.3731928262430699    0.3943763853320203    0.3731928335551472    0.32504520944007825    
  0.2802796694232066    0.2634600731318767    0.28818313559068304    0.3581261389019364    0.4588837168499036    
  0.5493692923265104    0.5851963754737156    0.6143023204656142    0.56872642042521    0.460785056896792    
  0.3494544394652214    0.2760180301518241    0.2495087435849419    0.2634600336486041    0.30496348887960517    
  0.35032184866325994    0.3701343946577593    0.3503218413333523    0.30496347899291854    0.26346006290645246    
  0.24950874535455964    0.2760180068303587    0.3494544183011714    0.4607851228865997    0.5687264420725481    
  0.6143023204656142    0.6203984255269767    0.5808578667491029    0.4837135516461015    0.37778656358071555    
  0.3041607238354738    0.276018011568938    0.28818317803829796    0.32714508530209235    0.36918761366994607    
  0.38722884781599726    0.3691876247781758    0.32714509547598325    0.2881831611935125    0.2760180302164911    
  0.3041607288922277    0.37778652655603384    0.48371352764527614    0.5808579067804762    0.6203984255269767    
  0.524239845675075    0.5230323624662255    0.49917106513122717    0.4392199520646404    0.37778657766241175    
  0.3494544560309581    0.35812611934209987    0.3877308196403594    0.4153702988007341    0.42584418319100475    
  0.41537028787973046    0.387730812080454    0.3581261412071797    0.3494544304401098    0.377786550387166    
  0.43921993971559004    0.49917108360848317    0.5230323923273852    0.524239845675075    0.2786953752071833    
  0.32927699453566617    0.43927896524247695    0.49917104162708287    0.4837135649327614    0.4607850567304917    
  0.45888374608515275    0.4589235096647649    0.4454227656178825    0.4357774734725857    0.4454227494388524    
  0.45892350152880534    0.4588837355185289    0.4607851243985186    0.48371353938089884    0.4991710668495766    
  0.4392790233549711    0.32927702745774806    0.2786953752071833    0.09514510916846133    0.14957214860790102    
  0.32927700864899845    0.5230323591779948    0.5808578160204689    0.5687264575254288    0.549369304303912    
  0.5027018182757086    0.4318244881535687    0.3972405785445144    0.43182444662108427    0.5027018514620252    
  0.549369291796806    0.5687264306419192    0.5808578625525723    0.5230323450784653    0.3292770359133032    
  0.14957216760578143    0.09514510916846133    0.05015399861559804    0.09514509517159946    0.27869535819111513    
  0.524239744701914    0.6203984024894114    0.6143022679433411    0.5851963034548197    0.5137071004826967    
  0.4154968168354046    0.37033426555329296    0.4154968413657546    0.5137071451447731    0.5851963498470876    
  0.614302252308951    0.6203983905336314    0.5242397923107085    0.2786953827598335    0.09514510358068759    
  0.05015399861559804    0.09229371501123645    0.14379861992390566    0.3099845291791556    0.48046131990374713    
  0.5207874656241724    0.5035830300410834    0.503423586356784    0.5156648982335823    0.5191078849325707    
  0.517615477223504    0.5191079019627526    0.5156649015019519    0.5034236180436649    0.5035830281282334    
  0.5207874460053935    0.48046133512011485    0.3099845375408863    0.1437986229961602    0.09229371501123645    
  0.14947029385678443    0.20486283441509875    0.3561164618139296    0.4803578120119152    0.49211557076090295    
  0.46920956891794885    0.4698607875347106    0.48698354400674976    0.4990883704737271    0.5023129785616878    
  0.4990883959452158    0.4869835154943244    0.4698607666295821    0.4692095858030753    0.4921155269462487    
  0.48035783600013093    0.3561164578094667    0.20486283779124545    0.14947029385678443    0.3477211460200253    
  0.38618137377581396    0.4545085402561856    0.46481561511120745    0.42170327101854643    0.3887612344344417    
  0.3909786681135423    0.41647644965421526    0.44302005413067735    0.45401259463153704    0.44302005848071935    
  0.41647647839179264    0.39097867047831736    0.38876119892297717    0.4217032266656412    0.46481559218925284    
  0.454508573180612    0.3861813516278908    0.3477211460200253    0.5830950354280655    0.5679434523157114    
  0.5124288143433599    0.42418804335928456    0.34618229546966534    0.3081717703677522    0.3111151612654364    
  0.3406987026342878    0.3743557445006347    0.3890213471797507    0.37435575476201516    0.3406986918102647    
  0.3111151399798311    0.30817178404202084    0.34618228547168395    0.42418805440910795    0.5124288174756532    
  0.5679435194402033    0.5830950354280655    0.6802881209773413    0.6310744579182815    0.512515687023157    
  0.3862867571363064    0.29848682113039005    0.2600852929188528    0.26299828763958955    0.29298933643095265    
  0.32804692574005484    0.34346891850472233    0.32804691980369877    0.2929893400938862    0.2629982959152303    
  0.26008529058533303    0.2984867924877987    0.3862867426428102    0.5125157437526141    0.6310744888525952    
  0.6802881209773413    0.6799156259125215    0.6291051810639551    0.5076508454337308    0.3799387651227597    
  0.2921872227640985    0.25429554219099676    0.2577425808916956    0.2882842793916784    0.3238819841324766    
  0.33956154450628606    0.3238819705615163    0.28828427427900144    0.25774255334888513    0.25429554275328864    
  0.29218722175747014    0.3799387531761656    0.5076508898875741    0.6291052548798527    0.6799156259125215    
  0.6028359352220054    0.578588681219274    0.5054239978665307    0.40635025812973435    0.32621161904987844    
  0.28933981272737624    0.2942880341724646    0.3266284796126954    0.3634353374459525    0.3796938318109261    
  0.36343534082563367    0.3266284740757752    0.2942880523118377    0.28933980106263774    0.3262115617552503    
  0.40635023031643996    0.5054239867297041    0.5785887419865846    0.6028359352220054    0.41001299494542126    
  0.43434986977247136    0.46493019129667856    0.4416798897977891    0.3871807091482626    0.3545543491742835    
  0.36108784957611356    0.3946210303064848    0.4315936066767634    0.4479330508227167    0.43159361312576117    
  0.3946210306360591    0.3610878495664602    0.3545543629582691    0.38718066462948225    0.4416799399328982    
  0.4649302184431437    0.43434990882504715    0.41001299494542126    0.22145268545288244    0.27282005349113336    
  0.39049001140062967    0.46035587382790905    0.4460743390066005    0.4212159619040438    0.42905624694427175    
  0.4622731243545559    0.49629374999742715    0.5106853500857388    0.4962937450472618    0.462273141311096    
  0.4290562189389981    0.4212159778610663    0.4460743129379041    0.4603558622361644    0.39049000607617496    
  0.2728200725145134    0.22145268545288244    0.15747088924167743    0.21143871202722955    0.35338233385524553    
  0.463593183578675    0.47038915213026816    0.44991964509024274    0.4584785692873849    0.4912936213021261    
  0.5229399435671609    0.5356732340176941    0.5229399593641849    0.4912936356060874    0.4584785978273881    
  0.44991963456613554    0.47038911392960125    0.46359317900374936    0.35338234030738563    0.2114387070583402    
  0.15747088924167743    0.2214526816181839    0.27282007585830215    0.3904900176705039    0.46035588663248317    
  0.44607435464206263    0.42121592045736245    0.4290562778409662    0.46227312081537475    0.4962937745963878    
  0.5106853724438878    0.49629372536109695    0.46227313211959437    0.4290562035876956    0.4212159782910746    
  0.44607433375037103    0.460355857657905    0.3904900143065052    0.27282008619710024    0.2214526816181839    
  0.41001298791622875    0.43434988806281494    0.46493015695883444    0.4416799149723144    0.3871806729436315    
  0.35455435473382474    0.3610878712451703    0.3946210018176886    0.4315936220691038    0.44793302674948926    
  0.43159361513389544    0.39462104186025704    0.3610878452266416    0.3545543374119259    0.3871806610001409    
  0.441679907480455    0.4649302009491954    0.4343499269389966    0.41001298791622875    0.6028359394887082    
  0.5785887129037599    0.5054239866387334    0.40635025345065046    0.32621159111149295    0.28933981968912287    
  0.2942880396033722    0.3266284782585977    0.36343531906974724    0.37969382469223806    0.3634353507566823    
  0.32662845011633734    0.29428803808910553    0.28933983354913906    0.3262115591015493    0.40635026592814893    
  0.505423963381339    0.578588751482543    0.6028359394887082    0.6799156313104623    0.6291051818842553    
  0.507650856866228    0.3799387524707601    0.29218726961956654    0.2542955272498479    0.25774254643565364    
  0.28828428041504023    0.3238819726164451    0.339561543080505    0.323881973317514    0.28828428516842164    
  0.25774256887048896    0.254295534008884    0.29218722588374857    0.3799387622997734    0.5076509100497155    
  0.6291052112452941    0.6799156313104623    0.6802880693044614    0.6310744774156637    0.5125156959513764    
  0.3862868005658875    0.2984867898693742    0.26008532078176133    0.26299830604194857    0.2929893472398031    
  0.32804689076923926    0.3434689488432542    0.32804689892192757    0.2929893503270153    0.2629982986728225    
  0.26008531861317513    0.29848679762675207    0.38628673285600523    0.5125157011381029    0.6310744908729251    
  0.6802880693044614    0.5830950551255805    0.5679434764794378    0.512428837940693    0.4241880689969042    
  0.34618231780505937    0.30817177758892816    0.3111151314967766    0.340698714239997    0.3743557585794583    
  0.3890213726699362    0.37435571729958184    0.34069868444237    0.31111513983798855    0.30817177734127393    
  0.3461822860892984    0.4241880797795092    0.5124288412685274    0.5679435620968241    0.5830950551255805    
  0.34772112620715273    0.38618132914867265    0.4545085164081988    0.46481559889342633    0.4217032965358371    
  0.38876121658324464    0.39097865769300916    0.4164764362225485    0.44302005821130813    0.45401260060006776    
  0.4430200588236831    0.41647645502597697    0.39097864972060387    0.38876121536494007    0.4217032378434167    
  0.4648156008574525    0.45450858353871887    0.3861813599079047    0.34772112620715273    0.1494703081697235    
  0.2048628240547279    0.35611645859858015    0.48035781003289213    0.492115516879738    0.4692096133774597    
  0.4698607689604792    0.4869835137833812    0.4990883644153451    0.5023129508725106    0.49908832980309226    
  0.48698352317167987    0.4698607471672205    0.46920960286091673    0.492115552224953    0.4803578236714789    
  0.3561164928271442    0.2048628283148336    0.1494703081697235    0.09229371501123645    0.14379861992390566    
  0.3099845291791556    0.48046131990374713    0.5207874656241724    0.5035830300410834    0.503423586356784    
  0.5156648982335823    0.5191078849325707    0.517615477223504    0.5191079019627526    0.5156649015019519    
  0.5034236180436649    0.5035830281282334    0.5207874460053935    0.48046133512011485    0.3099845375408863    
  0.1437986229961602    0.09229371501123645    0.2568312094218944    0.3032029732479702    0.40000602793464446    
  0.44575373051609907    0.424882045564499    0.4044525494566328    0.4207644495672497    0.4666411639380537    
  0.5148765511045849    0.5360047222709909    0.5148765709443214    0.4666411467555244    0.4207644661261777    
  0.4044525495258976    0.42488203702381533    0.44575368843604435    0.40000605322258065    0.3032029914339854    
  0.2568312094218944    0.3179630921873614    0.35578303872959044    0.4239885073439152    0.43867227510944845    
  0.40412215434877286    0.3807169993268687    0.3957551305880305    0.4399949673446547    0.48739593525450714    
  0.5084785603311238    0.48739595752984155    0.43999497230567125    0.3957551208175979    0.3807170152901403    
  0.4041220847577259    0.438672290643019    0.423988509026382    0.355783075454896    0.3179630921873614    
  0.4714513425714794    0.47777478468779827    0.46771148131979706    0.41532475865548313    0.3547836730595743    
  0.3260153244050223    0.3385510146591266    0.3795202620646062    0.42435493721969253    0.44444046997415876    
  0.42435491184595425    0.3795202805093489    0.33855101570444496    0.32601533201244437    0.3547836388914873    
  0.41532470983382364    0.46771147445502803    0.4777747935537391    0.4714513425714794    0.6045681514635147    
  0.5728382058223122    0.4870597825203743    0.38351573668169464    0.3062786523722153    0.274109704822591    
  0.2838200554289259    0.32113854764198985    0.3625394698383267    0.38083590888863716    0.3625394556107927    
  0.3211385328580634    0.28382005170047087    0.27410972115183396    0.3062786298557592    0.3835157315233156    
  0.487059777584186    0.5728382549291442    0.6045681514635147    0.6565506562763361    0.6071181715018709    
  0.4895572801689668    0.36716688954004567    0.2844717589802646    0.25071193617200227    0.2579119196966951    
  0.292279765052329    0.3312647661904436    0.34838237671883127    0.3312647947186172    0.29227976755911683    
  0.2579119243957025    0.2507119555276667    0.2844717445672197    0.36716689579001943    0.48955735468095596    
  0.6071182041516312    0.6565506562763361    0.6586734250754056    0.613600305107016    0.5039126454344344    
  0.3855205147722874    0.30267978386084926    0.2675931418725313    0.27338465053790634    0.3061510525203836    
  0.34338750148162744    0.3596241095127905    0.34338748102427225    0.306151049813555    0.2733846280226286    
  0.26759316046604753    0.3026797802854661    0.3855205243789375    0.5039126576384494    0.6136003378265521    
  0.6586734250754056    0.5538440643647742    0.5470109376655581    0.5094050024456462    0.43540790790458267    
  0.3640890508214574    0.3289637406863425    0.33307960029573414    0.3618483541938289    0.3927738748014487    
  0.4057031653510904    0.39277387836245276    0.36184834068989874    0.33307960564192896    0.328963738046716    
  0.3640890288601539    0.4354078896333177    0.5094050014267059    0.5470109819736707    0.5538440643647742    
  0.3010383325534123    0.34798281359848543    0.44373942790491716    0.4840186170592005    0.4550902724634435    
  0.4255850322630959    0.4251062943402755    0.4400277323272097    0.45043708842051505    0.4529655587361446    
  0.4504370705160326    0.44002772407557433    0.42510628916631277    0.42558506626818826    0.45509021499519897    
  0.4840186129390825    0.4437394282603575    0.3479828213282662    0.3010383325534123    0.10859599706522916    
  0.16323076959430188    0.332957068366516    0.5005993156909356    0.538551442101336    0.5203924778636745    
  0.512506861356956    0.5040074884875754    0.48102707474595546    0.46723148595534036    0.4810271011230596    
  0.5040074910979089    0.5125068417758077    0.520392503607825    0.5385514862605304    0.5005993258793411    
  0.33295705854887764    0.1632307869736184    0.10859599706522916    0.059612304940751676    0.1061566124737202    
  0.28257770892089923    0.4996670669076864    0.5723764749392981    0.5606280912776358    0.5486616473253748    
  0.5271699172612192    0.4862644313830982    0.46402586917766503    0.4862644444104915    0.5271699178387681    
  0.5486617202947085    0.5606280735488973    0.572376483992132    0.49966710160918115    0.28257770041560587    
  0.10615662092195556    0.059612304940751676    0.10859598464444932    0.16323078668091312    0.33295706806196435    
  0.5005993423484904    0.538551483933871    0.5203924351062781    0.5125068888123174    0.5040074899197637    
  0.48102709463329907    0.4672315303603831    0.48102710032441137    0.5040074828607582    0.5125068425303133    
  0.5203924561113172    0.5385514902349803    0.5005993194033195    0.3329570652967518    0.16323078255253862    
  0.10859598464444932    0.3010383273700091    0.3479828333531089    0.443739411940696    0.484018609534755    
  0.4550902510978296    0.42558506118269224    0.42510631127713033    0.4400277134206125    0.4504371063303068    
  0.4529655543539269    0.4504370950934404    0.4400277391734003    0.42510630552295653    0.4255850321189539    
  0.4550902149729633    0.4840185856621634    0.4437394482051728    0.3479828395749487    0.3010383273700091    
  0.5538440478382727    0.5470109445241333    0.5094050151332762    0.43540789858341966    0.36408906229973936    
  0.3289637489871165    0.33307960565854705    0.36184834580377956    0.39277385394455966    0.4057031475955989    
  0.39277388492596677    0.3618483021651583    0.333079611697386    0.3289637636686161    0.36408900313455483    
  0.4354079135707768    0.5094050110712788    0.547010965687132    0.5538440478382727    0.6586734291769314    
  0.613600316378081    0.5039126293361358    0.3855205274440684    0.3026798282993324    0.2675931448175958    
  0.27338461234128647    0.3061510701322812    0.3433875185257808    0.35962411365194863    0.3433874662825791    
  0.30615106860885877    0.2733846304877647    0.267593146079346    0.3026797857986815    0.3855205288227049    
  0.5039126796022019    0.6136002959451079    0.6586734291769314    0.6565506281982589    0.60711819408694    
  0.489557296439458    0.36716692876741513    0.2844717419771906    0.2507119595909527    0.25791193102373017    
  0.29227976296055597    0.33126476015332185    0.3483823668910155    0.3312647727851883    0.292279774762697    
  0.2579119175567946    0.25071196654359434    0.28447174052051394    0.36716687652067165    0.4895573071845707    
  0.6071182815619466    0.6565506281982589    0.6045681591842622    0.5728382102588616    0.4870597914294038    
  0.38351573799865674    0.3062786544238462    0.274109733908077    0.28382004264621796    0.32113855922997037    
  0.36253947450126683    0.3808359110067293    0.36253947137520415    0.3211385203931004    0.2838200424974445    
  0.2741097042051056    0.306278649291574    0.3835157319249304    0.4870598127568574    0.572838263404214    
  0.6045681591842622    0.4714513241942954    0.4777747386866036    0.4677114275610974    0.41532473488198013    
  0.3547836936381816    0.32601531804102435    0.3385510008398697    0.37952027185397696    0.424354902623588    
  0.4444404801283188    0.4243548990663567    0.3795202617260342    0.33855098394791727    0.32601535139354    
  0.35478364420391906    0.4153247451281783    0.4677114839269601    0.47777479627532443    0.4714513241942954    
  0.3179630852431588    0.35578301825992875    0.4239884799341091    0.4386722434025045    0.40412210532918325    
  0.3807170136130044    0.3957551425579224    0.4399949922188314    0.487395928559442    0.5084785273094373    
  0.4873959341996075    0.43999496511062997    0.3957551291329296    0.38071702633691484    0.40412208159488955    
  0.43867225992713016    0.423988540292438    0.35578306201627335    0.3179630852431588    0.2568312094218944    
  0.3032029732479702    0.40000602793464446    0.44575373051609907    0.424882045564499    0.4044525494566328    
  0.4207644495672497    0.4666411639380537    0.5148765511045849    0.5360047222709909    0.5148765709443214    
  0.4666411467555244    0.4207644661261777    0.4044525495258976    0.42488203702381533    0.44575368843604435    
  0.40000605322258065    0.3032029914339854    0.2568312094218944    0.46402661543368806    0.46723075057268926    
  0.4529662157681916    0.40570248377042706    0.3596246968603143    0.34838179024800886    0.3808364934871736    
  0.4444398220708837    0.5084792409813316    0.5360039723902535    0.5084792562003091    0.4444398008864765    
  0.38083653632163655    0.3483817871567645    0.3596246984453019    0.4057024789636871    0.4529662577135768    
  0.46723078482709396    0.46402661543368806    0.48626376098925544    0.48102777856823536    0.4504364024655983    
  0.3927744633043951    0.3433869292919365    0.33126530751989897    0.3625388646710484    0.42435553416503463    
  0.48739524108184384    0.5148773130029417    0.48739526439791503    0.42435555221109156    0.36253882716640295    
  0.3312653552364386    0.34338687341020346    0.3927744935525609    0.4504364018243066    0.4810278133677624    
  0.48626376098925544    0.5271706813793651    0.5040067810524216    0.4400283888572107    0.3618477258095225    
  0.30615161967135923    0.2922792126171534    0.3211391085799347    0.3795196486103271    0.43999567227436576    
  0.46664047884101106    0.43999566478909835    0.37951967582055296    0.32113911712287563    0.29227921008762686    
  0.3061515933461936    0.36184772229836165    0.4400284081299231    0.504006773791955    0.5271706813793651    
  0.5486609379179312    0.5125075700436998    0.4251056481383504    0.3330801698550082    0.27338411095158127    
  0.2579124336086478    0.2838195099229656    0.338551593353649    0.3957544973980598    0.42076511061066985    
  0.3957545061207442    0.33855159236645366    0.2838195082666216    0.2579124600031192    0.27338407874932674    
  0.33308018889709695    0.42510564033336806    0.5125076091835918    0.5486609379179312    0.5606288880182171    
  0.5203917255585775    0.42558566530634556    0.32896314404013166    0.26759368661502564    0.2507114217830635    
  0.27411023703519855    0.3260147578533967    0.3807176332050869    0.40445190772797324    0.38071766246872335    
  0.3260147600033867    0.27411025400238753    0.2507114294749273    0.26759367077928153    0.32896314664765924    
  0.4255857506933454    0.5203917406301578    0.5606288880182171    0.57237575937986    0.5385521622760969    
  0.4550895746532349    0.3640896052034203    0.3026792296718726    0.28447229570088495    0.3062780988002438    
  0.3547842535925046    0.4041214831972656    0.42488268285854625    0.404121488101697    0.3547842606150475    
  0.3062780757083815    0.2844723186092002    0.3026792261243989    0.36408962955855845    0.4550895762167952    
  0.5385522268323054    0.57237575937986    0.49966781085120854    0.5005986054011022    0.48401928731770294    
  0.43540725401913194    0.38552117976658196    0.3671662873045702    0.3835163669903134    0.41532412774472877    
  0.4386729739343496    0.44575311585018096    0.4386729326789594    0.41532412414480036    0.38351637762843827    
  0.36716630275276574    0.3855211330552753    0.4354072531489414    0.4840192831068866    0.5005986601753121    
  0.49966781085120854    0.28257714267832673    0.3329576438139402    0.4437387983913999    0.5094056917420703    
  0.5039119734074891    0.48955798078144    0.4870590787426905    0.4677121141069492    0.4239878720516427    
  0.40000666313782784    0.4239878531663082    0.4677121417755787    0.48705906802368854    0.48955802460477477    
  0.5039119282911567    0.5094057028641662    0.4437387711934422    0.33295765865079135    0.28257714267832673    
  0.10615701976951777    0.163230312739771    0.3479834275990525    0.547010209592809    0.6136010664379887    
  0.6071174476666326    0.5728389715470306    0.4777741048451829    0.3557836695290712    0.3032024342672189    
  0.3557836761036204    0.47777412958357046    0.5728389551235692    0.6071174878096297    0.6136010618941451    
  0.5470101936793823    0.34798343194834325    0.16323033097818174    0.10615701976951777    0.05961199997528322    
  0.108596356826187    0.30103775223145884    0.5538447600201486    0.6586725750385757    0.6565514021675819    
  0.604567328770776    0.4714520023653418    0.31796246368820874    0.2568317157859374    0.3179624988149751    
  0.4714519779271364    0.6045674020907171    0.6565513522415406    0.6586725901493008    0.5538447729244986    
  0.30103773362023484    0.10859636725604672    0.05961199997528322    0.10615700797221028    0.16323032196977216    
  0.3479834318606575    0.5470102228239974    0.6136010926860836    0.6071174044755586    0.5728389705650561    