#     DFTpy    
  CRYSTAL 
    
  PRIMVEC    
  4.345586206896551    0.0    0.0    
  0.0    4.345586206896551    0.0    
  0.0    0.0    2.3941379310344826    
  PRIMCOORD    
  4    1    
  Si    0.0    0.0    0.0    
  Si    2.1727931034482757    2.1727931034482757    1.1970689655172413    
  Si    0.0    2.1727931034482757    0.5985344827586206    
  Si    2.1727931034482757    0.0    1.795603448275862    
  BEGIN_BLOCK_DATAGRID_3D    
  3d_datagrid_density    
  BEGIN_DATAGRID_3D#0    
  19    19    11    
  0.0    0.0    0.0    
  4.345586206896551    0.0    0.0    
  0.0    4.345586206896551    0.0    
  0.0    0.0    2.3941379310344826    
  0.04949807319826483    0.09760082088359298    0.2870466593458555    0.5014699197295946    0.5508961219401645    
  0.5329691914991049    0.520329419659741    0.4798693725002847    0.40549062426426763    0.36748581283617016    
  0.4054905962301782    0.4798693885250942    0.5203294289022472    0.5329691603080076    0.550896004793273    
  0.5014699255553043    0.2870466976203503    0.09760081192304088    0.04949807319826483    0.09760079075244198    
  0.15539625992712663    0.3349112913723859    0.4929392416169352    0.5106026549628438    0.48858201648369454    
  0.4828975975890573    0.46331340287767186    0.4147660098376426    0.38746100590943405    0.41476594982601495    
  0.4633134460096565    0.4828976271731522    0.48858199360822224    0.5106027327110922    0.4929393325767151    
  0.3349113340236283    0.15539628533703437    0.09760079075244198    0.2870465813113519    0.33491130724301216    
  0.42565991658125507    0.4506951885178842    0.41365908618925945    0.38665190901358554    0.3919868471325548    
  0.4074246623403265    0.40928398741428473    0.4058402621836744    0.4092839692022786    0.407424690789339    
  0.39198677991902914    0.386651764423977    0.41365914543752647    0.45069525503209895    0.4256598591178943    
  0.33491124313276105    0.2870465813113519    0.5014698913885111    0.4929393758126476    0.4506952198441093    
  0.37662136135749347    0.31226650448440935    0.2849787078924309    0.2952225939067062    0.3278156832916725    
  0.35996087693837114    0.3728536557440997    0.359960900283193    0.32781568683588785    0.2952225140649973    
  0.2849786575511072    0.312266545123405    0.3766213799807338    0.45069532575799814    0.49293928114479896    
  0.5014698913885111    0.5508960247659442    0.5106026859542585    0.4136591897592443    0.31226650241724396    
  0.24431776434501887    0.21890939182105273    0.23007043080353287    0.2657849926392657    0.304949258743709    
  0.32183007841067734    0.3049491950096215    0.26578501535944865    0.2300704228590721    0.21890933870260398    
  0.24431777409873578    0.3122665258142017    0.4136591694748543    0.5106027107734081    0.5508960247659442    
  0.5329690472996191    0.48858205368499374    0.38665186293057013    0.2849786488993417    0.21890936261762978    
  0.1951390405114164    0.20700458268131522    0.24335496936402645    0.2835290565525434    0.3008614243604235    
  0.28352902601731955    0.243355062455299    0.20700461841824744    0.19513899362833173    0.21890939247456426    
  0.2849786579819802    0.3866519025951498    0.48858198493186467    0.5329690472996191    0.5203293066398246    
  0.4828976317812044    0.39198683360162795    0.2952225665091129    0.23007048796103602    0.20700465962265718    
  0.22051869972429405    0.2595469453994338    0.3027473971500368    0.32153954891844877    0.3027473383372774    
  0.25954701715802797    0.22051870939151183    0.2070046243316263    0.2300704980326735    0.2952224917958732    
  0.3919869136930169    0.4828975730438077    0.5203293066398246    0.47986927198214463    0.4633135860507926    
  0.4074247285154278    0.32781566157739755    0.2657848976752143    0.24335501909499593    0.2595469047093686    
  0.303620859955148    0.3523809284858198    0.37373640970034927    0.3523807994829055    0.303620934488593    
  0.25954691074564834    0.2433550363575824    0.2657850624859645    0.3278156539947796    0.407424701061259    
  0.46331343978801576    0.47986927198214463    0.4054905146914136    0.4147659286958768    0.409284098193745    
  0.3599608372340943    0.30494918750714683    0.28352904177261207    0.3027473446382867    0.3523807925848717    
  0.40687443229386167    0.43085410931068185    0.4068743998658602    0.3523808108206487    0.30274733291418354    
  0.28352900698099526    0.30494922633883875    0.3599608449135926    0.40928403056574264    0.4147660109843641    
  0.4054905146914136    0.36748585777742715    0.38746104253123853    0.40584018979042463    0.37285364093273576    
  0.3218301878208035    0.30086149393330813    0.32153964464828483    0.3737364194577157    0.43085419526906893    
  0.4560696675843645    0.4308540704355484    0.37373652168292304    0.3215395852381666    0.3008614664316146    
  0.3218301261410906    0.372853632728363    0.4058402268931365    0.38746101388229    0.36748585777742715    
  0.4054905343635918    0.41476599026096195    0.4092840830073291    0.3599608151667015    0.3049492068137274    
  0.2835291062414204    0.302747370095578    0.352380770033428    0.406874495600398    0.4308541965704225    
  0.40687443575849497    0.3523807928140011    0.30274733677296484    0.28352906153617097    0.3049492457042685    
  0.35996082514283695    0.4092841000079971    0.4147659411138996    0.4054905343635918    0.4798692628048468    
  0.46331343990292295    0.40742469599730813    0.32781567432836267    0.2657848792925343    0.24335505176613945    
  0.25954695163646263    0.3036208452653734    0.3523807527601366    0.37373648141785165    0.35238077557334596    
  0.30362091354233106    0.2595469216164692    0.24335499152382462    0.2657849817941462    0.327815687070159    
  0.40742472474308483    0.46331345464830626    0.4798692628048468    0.5203293344863326    0.48289767527255284    
  0.39198691636957783    0.29522254229302075    0.23007046890054267    0.20700467954255006    0.22051871844748047    
  0.25954691881600067    0.3027473845915523    0.32153949713152363    0.30274738656505784    0.25954702117716366    
  0.22051868921437529    0.2070046157198475    0.2300704829330499    0.29522252285380124    0.39198691873263103    
  0.4828975869623715    0.5203293344863326    0.5329691988211963    0.4885820542934081    0.3866518603999872    
  0.2849785885590171    0.2189093582549809    0.19513904271794644    0.2070046188663439    0.24335502988775004    
  0.28352910277257115    0.3008614133664084    0.28352910041098367    0.24335505423929613    0.20700460215793698    
  0.1951390219311352    0.21890935958989258    0.28497868041268676    0.38665182640841983    0.4885820363701451    
  0.5329691988211963    0.5508959592098666    0.5106026935445293    0.4136591199481098    0.31226652319247805    
  0.24431769871455564    0.21890935606829925    0.2300704213598759    0.26578494559236887    0.30494921874922803    
  0.32183014468215704    0.3049491570696101    0.2657849453002241    0.230070428229996    0.2189093210624504    
  0.24431774360592073    0.3122664766951338    0.4136591836029946    0.5106026379805558    0.5508959592098666    
  0.5014698687852498    0.49293929273426285    0.4506952326701215    0.37662139570936204    0.3122666069314976    
  0.2849787339802617    0.2952225343659871    0.32781567400914624    0.3599608963264652    0.37285365430500333    
  0.35996088093270584    0.32781577164442804    0.29522256350509113    0.28497867155021916    0.31226656020569227    
  0.3766213311448643    0.4506953056480962    0.49293935969399    0.5014698687852498    0.2870465963555985    
  0.33491140688854915    0.42565986520569854    0.4506952084345861    0.4136591987928077    0.3866518684602772    
  0.39198682950638386    0.407424627621745    0.40928413858389845    0.4058402462794166    0.40928405395672    
  0.40742467473534166    0.3919867761353894    0.38665175782717554    0.41365927602035235    0.4506952462921146    
  0.4256598589077199    0.33491127427405176    0.2870465963555985    0.09760077018590212    0.15539627859814614    
  0.33491136532511534    0.49293923848777704    0.5106026445680136    0.48858201277176905    0.4828974864500852    
  0.46331334452894934    0.41476587471503285    0.38746092317466374    0.41476583446051685    0.4633134064143147    
  0.4828975356873911    0.48858197150666466    0.5106027039879887    0.49293927366271545    0.33491128598438263    
  0.15539628670072217    0.09760077018590212    0.04949807319826483    0.09760082088359298    0.2870466593458555    
  0.5014699197295946    0.5508961219401645    0.5329691914991049    0.520329419659741    0.4798693725002847    
  0.40549062426426763    0.36748581283617016    0.4054905962301782    0.4798693885250942    0.5203294289022472    
  0.5329691603080076    0.550896004793273    0.5014699255553043    0.2870466976203503    0.09760081192304088    
  0.04949807319826483    0.09435970103463315    0.14901182461624007    0.3150889383524949    0.4515737117184504    
  0.45325467160461785    0.42423618074457253    0.42636423660663286    0.448853366623293    0.4662646669596604    
  0.47124975871523767    0.4662646118208867    0.448853426632594    0.4263642476408008    0.424236165484679    
  0.45325460954141633    0.4515737249024237    0.31508896807853964    0.1490118080663257    0.09435970103463315    
  0.15491907195155485    0.21232749299883596    0.3565669303328069    0.44482095810829414    0.4244172959877472    
  0.392383720496739    0.39500759063083163    0.4203625696659076    0.4429290285838831    0.4507618248890485    
  0.44292898772105366    0.4203625915920475    0.39500757133897013    0.39238371066982103    0.42441741466931426    
  0.4448210228002246    0.3565670160507539    0.21232747745036049    0.15491907195155485    0.3535206635670808    
  0.38695447369725855    0.4335845964974075    0.4136111984781109    0.3548794121831362    0.31905634963894774    
  0.32210284856008314    0.350567795322386    0.3809709764150499    0.39354751435360813    0.38097095715438795    
  0.35056784720994827    0.3221027701922705    0.31905630272360513    0.35487949228737353    0.4136112790414061    
  0.4335845802536236    0.3869543523536042    0.3535206635670808    0.5507822112229418    0.5289238938376036    
  0.45849061023779136    0.36101990315498894    0.28317798667610605    0.24734000044152402    0.24997789776150256    
  0.2777091446887894    0.31022376017989156    0.3245544978878407    0.3102237883282951    0.27770917540114276    
  0.24997781559203297    0.24733998206795146    0.28317801414688587    0.36101991953089335    0.45849066886042306    
  0.528923771628454    0.5507822112229418    0.6036048441817278    0.5547588266745097    0.4391390210353613    
  0.3197581148328089    0.23924384505721485    0.20489815428543628    0.2071497892038534    0.23331780947931707    
  0.26475789681327927    0.27861393232932996    0.26475783249984497    0.2333178781624693    0.2071497724715858    
  0.20489810683180393    0.23924385128239062    0.31975810962388856    0.4391389601973376    0.5547588019227951    
  0.6036048441817278    0.6002206887597198    0.5501794139142736    0.43307441702284116    0.3135506697609829    
  0.23350791206722682    0.19967258705912708    0.20223021172720054    0.2286332759922192    0.2602469205795059    
  0.2741400233813559    0.2602469426831551    0.2286333390059519    0.20223021930127139    0.19967252406012856    
  0.2335079806615803    0.3135506604109833    0.43307443525009476    0.5501793644709765    0.6002206887597198    
  0.5605405398255692    0.5306306235862601    0.4466778629443621    0.34287758522166467    0.2648346590662378    
  0.23029736425860328    0.23389990605566677    0.2628021107475959    0.29691964449612074    0.3119846955281542    
  0.296919561621694    0.2628021792141746    0.2338999173607617    0.23029733388515308    0.2648346737532585    
  0.34287751982216574    0.44667787268715337    0.5306305890705393    0.5605405398255692    0.40884318071918657    
  0.4264252230042972    0.43518208822452376    0.3874390220009118    0.3222536632595874    0.2878830600745119    
  0.29306823580291985    0.325668900232213    0.3627248224447481    0.3788412174136678    0.3627247611368702    
  0.32566898858170373    0.2930682362506463    0.28788305068175646    0.32225376823635227    0.38743906409331774    
  0.4351820637671272    0.4264251379086108    0.40884318071918657    0.22859093958561646    0.2791820050953234    
  0.3828458128955618    0.4184931146352647    0.3794008734500248    0.34764995994896636    0.3544897062827462    
  0.3897291617403721    0.4278599516073011    0.4439919206976869    0.42785995214444544    0.38972920892665003    
  0.3544897235062475    0.3476499497823516    0.379400967226665    0.4184931328659038    0.38284575000960847    
  0.2791820895217988    0.22859093958561646    0.162867325539161    0.21821103270519104    0.3520641783512626    
  0.42735835575577075    0.4032585974776919    0.37346175751413996    0.3810257175677336    0.41695338973091245    
  0.4550220696027141    0.47094359192262036    0.4550219266990211    0.41695348462313636    0.3810256513033224    
  0.37346169683196484    0.40325859371763517    0.42735834635490927    0.3520642360251212    0.21821099878335262    
  0.162867325539161    0.22859089929876605    0.2791820917780721    0.38284579687654535    0.4184931058058757    
  0.37940087415820584    0.34765003726784327    0.3544896995446386    0.38972917933265394    0.42786005592771326    
  0.44399209974197035    0.42785997233791756    0.3897292127497627    0.3544896933885003    0.34764996904369705    
  0.379401001306228    0.41849317042318224    0.3828458154101904    0.2791820695912679    0.22859089929876605    
  0.40884312317697974    0.426425123540346    0.4351820470922814    0.3874390035926824    0.3222536648688802    
  0.2878830517416543    0.2930682288714013    0.32566886824702984    0.362724728887338    0.37884123499001554    
  0.3627246979287801    0.3256689233793039    0.2930682166643684    0.28788300910134623    0.3222537513551478    
  0.38743906961310665    0.4351820816675698    0.42642510159880875    0.40884312317697974    0.5605404974320431    
  0.5306306960149071    0.4466779448193747    0.34287758241481725    0.2648346774632067    0.2302973522670924    
  0.2338999622556995    0.2628020206109235    0.29691957488335335    0.3119847196339864    0.29691956327072766    
  0.2628021354772102    0.23389991529198018    0.2302973237552615    0.264834640688315    0.34287751452294474    
  0.4466779571977455    0.5306304794569505    0.5605404974320431    0.6002208473179736    0.5501794372515212    
  0.43307440216366694    0.3135506709629765    0.23350795393444393    0.19967263294479434    0.2022302350912971    
  0.22863330580074356    0.2602470132361383    0.274140038744226    0.26024693839348245    0.22863334189814175    
  0.20223025555800833    0.19967258294137355    0.23350792064975975    0.31355068305447964    0.4330743791870825    
  0.5501794073899141    0.6002208473179736    0.6036047748554868    0.5547588378775563    0.4391390179411921    
  0.31975809770028796    0.2392437970303781    0.20489810896563002    0.20714974210875264    0.23331780809584451    
  0.26475782122519825    0.2786139668549541    0.2647578282892572    0.23331783000545533    0.20714979149837065    
  0.20489808715488528    0.2392438673640888    0.31975806798759543    0.4391390209821298    0.5547587773162935    
  0.6036047748554868    0.5507821951410027    0.5289237465688339    0.4584906372954618    0.36101987835591176    
  0.2831780505358953    0.2473400225460171    0.24997785846484963    0.2777091809466827    0.31022377322359124    
  0.3245545009096076    0.3102237760339042    0.2777092583532555    0.24997788149378536    0.2473399874050852    
  0.2831780179137064    0.3610198754671582    0.45849069483855626    0.528923851872979    0.5507821951410027    
  0.3535207264214516    0.3869544850376723    0.433584535146382    0.41361116042845547    0.3548794718277463    
  0.31905628836913275    0.322102797661356    0.350567824268144    0.3809710783012778    0.39354753324378616    
  0.38097105880575616    0.35056785241535676    0.3221027479220401    0.31905627100508327    0.3548795192494326    
  0.413611257740415    0.433584517465784    0.38695441304409695    0.3535207264214516    0.15491911467247146    
  0.21232749774837612    0.3565670688911323    0.4448209327288839    0.4244172699886363    0.39238366407481456    
  0.39500752619414214    0.4203625299948705    0.44292897409173554    0.4507616924578175    0.44292896247043295    
  0.4203625999706368    0.39500759580231243    0.39238370793949057    0.42441731825002793    0.444821030634395    
  0.35656695043844994    0.21232746196844518    0.15491911467247146    0.09435970103463315    0.14901182461624007    
  0.3150889383524949    0.4515737117184504    0.45325467160461785    0.42423618074457253    0.42636423660663286    
  0.448853366623293    0.4662646669596604    0.47124975871523767    0.4662646118208867    0.448853426632594    
  0.4263642476408008    0.424236165484679    0.45325460954141633    0.4515737249024237    0.31508896807853964    
  0.1490118080663257    0.09435970103463315    0.26293811181941024    0.3065115223044345    0.3866571661183303    
  0.40098480353554544    0.3585772719792677    0.3317052720633772    0.3452343074880212    0.38984126523408247    
  0.43928083717634814    0.46100731719719634    0.43928081477089886    0.3898412831939123    0.34523429154598106    
  0.3317051809037039    0.35857715938761053    0.40098479988983743    0.3866571692071713    0.3065114945093963    
  0.26293811181941024    0.3215352577760183    0.3546903452716346    0.4035286821472205    0.3897751452977541    
  0.3387140805362643    0.31079250655337476    0.3230530865201008    0.3654829479909653    0.4128347102681336    
  0.4336116265906992    0.4128346812248961    0.3654829728484076    0.32305310169397855    0.31079241505505073    
  0.3387141457860906    0.3897752034287656    0.4035287317346108    0.35469039927707047    0.3215352577760183    
  0.45658363996203505    0.4557047031148867    0.427050196911035    0.35799763302704635    0.2917881790741337    
  0.2622022527673795    0.2718285278970297    0.30929537993135625    0.35186467956812745    0.3705734546078851    
  0.351864676864265    0.30929540350598733    0.2718284492175802    0.262202182333684    0.2917882945953936    
  0.35799774368096005    0.42705021500444174    0.45570453854596965    0.45658363996203505    0.5506719524054272    
  0.5150456331723317    0.4236458046138458    0.32009716673623634    0.24657507467159323    0.21654441371429164    
  0.22390143579579827    0.256569216913404    0.29412450591177747    0.31058295415850623    0.294124535539958    
  0.25656928103389093    0.22390141222792945    0.2165443363199441    0.24657508427607233    0.32009711718694855    
  0.4236458347972599    0.515045542678919    0.5506719524054272    0.5754781940047063    0.5269556044750233    
  0.41466930248841327    0.301444252654389    0.2264810398759531    0.19630486013061033    0.2021659453113086    
  0.23203354157907569    0.26655715081410514    0.28158493655747224    0.26655709838270314    0.23203364761892903    
  0.20216595165860224    0.19630478711295485    0.2264810685785629    0.3014442853544897    0.41466917630842687    
  0.5269555799041026    0.5754781940047063    0.5859430860699283    0.5405864546241295    0.43219450678690946    
  0.31929510027590347    0.24300708460773207    0.21150062627222055    0.21662383564556364    0.24591248867996704    
  0.27988941306302273    0.29475843859019096    0.2798893899829831    0.24591255632968165    0.21662384206018567    
  0.21150056576677265    0.24300719478917895    0.31929509170505826    0.43219447269462863    0.5405863684854371    
  0.5859430860699283    0.5283028457217451    0.5142810247950574    0.4592032538613985    0.3726331367806853    
  0.29966047350691305    0.2662160970819278    0.271026400611281    0.30007853919677757    0.33221494063816703    
  0.3460089020340151    0.33221485337311046    0.3000785881512775    0.2710264324978867    0.26621607240891343    
  0.29966051684520023    0.3726331016948411    0.4592032973020291    0.5142810731509032    0.5283028457217451    
  0.3091434034107059    0.35269465869534045    0.42829526158678943    0.4350268132045678    0.3865993167526659    
  0.3532494260975288    0.3564333591659401    0.37982421222855445    0.3994783732888104    0.4059839278135879    
  0.3994783684591842    0.37982425329836134    0.35643329046452465    0.35324944986603674    0.38659939630986206    
  0.4350267778744519    0.4282951622582774    0.352694599788307    0.3091434034107059    0.11187848749087152    
  0.1696435979142386    0.3373604319936359    0.46936014384131297    0.4699078677713525    0.44133978133761753    
  0.4401622962780618    0.44863253702411837    0.44332877015035793    0.4366260287806688    0.443328731984449    
  0.4486326091243806    0.44016229862156575    0.44133973599967263    0.46990795721229295    0.4693601845461441    
  0.3373603008049002    0.1696436355467493    0.11187848749087152    0.059563026772092395    0.1093460828168869    
  0.29019685401244794    0.4755991466469589    0.5044248491713539    0.47975552210154077    0.47569102478701514    
  0.47435685194214117    0.45477577042571526    0.4410946629519003    0.45477565685021426    0.4743569377777307    
  0.475690996662617    0.4797553880816545    0.50442484123664    0.47559919491964486    0.29019687086717455    
  0.10934607128658747    0.059563026772092395    0.11187846268876597    0.1696436559516526    0.33736033778267976    
  0.46936012709728236    0.46990786237105026    0.44133987758691706    0.44016230109417404    0.4486325854520185    
  0.44332889805889486    0.4366261507068371    0.44332873768127506    0.4486325804626041    0.4401623207794698    
  0.44133972716687236    0.4699079933205065    0.46936017367746835    0.3373603819417262    0.1696436415489479    
  0.11187846268876597    0.30914334507457203    0.3526945917310862    0.4282951646703128    0.4350267071255428    
  0.3865992371276144    0.35324942105834434    0.35643337257066515    0.3798241532541675    0.39947829627463116    
  0.4059839183363549    0.3994782944262334    0.3798242980722028    0.3564333163732409    0.35324936021997705    
  0.38659932585579754    0.43502681765576046    0.4282952157322854    0.35269454268840034    0.30914334507457203    
  0.5283027846977868    0.5142811391808461    0.45920329243279473    0.3726331364922928    0.2996605083626136    
  0.2662161188954064    0.2710264850935778    0.30007842356129355    0.3322148772243696    0.3460089471468327    
  0.33221485764112274    0.3000785523796224    0.2710264704375403    0.2662160791542027    0.29966048888610314    
  0.372633160357799    0.45920335199791207    0.5142810406054805    0.5283027846977868    0.5859431690482135    
  0.5405863924045371    0.43219438675692334    0.31929509086861535    0.24300715454906596    0.211500658821014    
  0.2166238741567304    0.24591255435106457    0.27988948472340436    0.29475849850033253    0.27988942682302753    
  0.245912582604877    0.21662384260203238    0.21150061583425747    0.24300716965661462    0.3192951209528771    
  0.4321943325573939    0.5405863711828178    0.5859431690482135    0.5754781980980275    0.526955546911963    
  0.4146692837964587    0.30144424954214577    0.2264809790844022    0.19630480838412795    0.20216591104497178    
  0.2320335422309353    0.2665570304402034    0.2815849542334682    0.26655705465715    0.2320335480748077    
  0.20216593999040322    0.1963047711974034    0.2264810715207713    0.30144427167136084    0.41466924019302914    
  0.5269556022021442    0.5754781980980275    0.550671986070551    0.5150454813326709    0.4236457659742297    
  0.3200971914394118    0.24657510212415024    0.2165444382105025    0.22390141846194567    0.2565692493655024    
  0.2941245475262523    0.3105829632240065    0.29412450577139865    0.2565693018294875    0.2239014768223598    
  0.2165443791010425    0.24657508977261478    0.3200971577847192    0.423645849073231    0.5150455930064064    
  0.550671986070551    0.4565836845435334    0.4557046840624773    0.42705016068132146    0.3579976455737161    
  0.2917882308018642    0.2622022119067338    0.2718284627425896    0.3092954144687484    0.35186477517164766    
  0.37057348217732006    0.35186469931028913    0.30929538173593873    0.2718284338975329    0.2622022451165902    
  0.2917882908145652    0.35799765295917874    0.42705013429167593    0.45570459604064556    0.4565836845435334    
  0.3215353543877484    0.35469036189197933    0.4035287982421421    0.3897750953080623    0.33871403469486244    
  0.3107924592638216    0.3230530320209449    0.36548293571391915    0.4128346646256715    0.4336114768249512    
  0.4128346075571732    0.3654830118962685    0.3230530994917701    0.3107924095260488    0.3387141041379214    
  0.3897752021128699    0.4035286726469531    0.3546904055701481    0.3215353543877484    0.26293811181941024    
  0.3065115223044345    0.3866571661183303    0.40098480353554544    0.3585772719792677    0.3317052720633772    
  0.3452343074880212    0.38984126523408247    0.43928083717634814    0.46100731719719634    0.43928081477089886    
  0.3898412831939123    0.34523429154598106    0.3317051809037039    0.35857715938761053    0.40098479988983743    
  0.3866571692071713    0.3065114945093963    0.26293811181941024    0.4410963311018849    0.43662462703313953    
  0.4059854635903455    0.34600749689618127    0.29475984333128197    0.2815837230952032    0.3105843155780266    
  0.370571962411084    0.433613223066096    0.461005704897177    0.4336131901424861    0.37057199391914697    
  0.3105843543945131    0.2815836542074376    0.29475975286676254    0.34600747316829206    0.4059854600741272    
  0.43662458484346733    0.4410963311018849    0.4547739367162018    0.4433303560356344    0.3994768207630611    
  0.3322162467411448    0.2798881498206826    0.266558386964983    0.2941231550461115    0.3518660817579789    
  0.41283313943044764    0.43928247941923426    0.412833147278282    0.3518661345766469    0.29412313105762744    
  0.2665583115566442    0.2798881954085266    0.33221627500828077    0.39947680032164096    0.443330416387226    
  0.4547739367162018    0.4743583624817378    0.4486310457600927    0.37982574251373846    0.30007714874986563    
  0.2459137287211856    0.23203239439406778    0.256570493566819    0.3092940465988935    0.3654844421033605    
  0.3898397683869589    0.3654844185510074    0.3092940585138299    0.25657045185966354    0.23203235400486455    
  0.245913858517897    0.3000772394723947    0.37982577072636636    0.44863092745418337    0.4743583624817378    
  0.4756892137144343    0.44016398693201364    0.3564319387074169    0.2710276372056988    0.21662272583321357    
  0.20216712012012406    0.22390027369352755    0.27182978382228645    0.32305174963965816    0.3452356652818992    
  0.32305174025255273    0.2718297951024257    0.2239002365831555    0.2021670662528506    0.21662273097306484    
  0.2710276241031441    0.3564320003246863    0.44016390343082556    0.4756892137144343    0.47975702559037325    
  0.44133821888789526    0.35325094449724626    0.2662147859049912    0.21150179584587123    0.19630374527646965    
  0.21654552536228378    0.2622009401329882    0.31079389191826345    0.3317037633382655    0.310793809411106    
  0.26220104022346497    0.21654552329207247    0.19630366715908387    0.21150179022535484    0.26621481042875017    
  0.35325081701771255    0.44133821980860855    0.47975702559037325    0.5044230744622118    0.4699095957876005    
  0.3865979052319351    0.29966179486320105    0.24300585455562082    0.22648221554115716    0.24657377512712025    
  0.2917894735186826    0.33871267853943593    0.3585786554145247    0.33871262338714003    0.2917895940905171    
  0.24657380844584514    0.2264821880316267    0.24300595436856715    0.29966179096219886    0.38659786196048557    
  0.4699095658890859    0.5044230744622118    0.4756008195128896    0.46935848947985    0.4350283510071736    
  0.3726316765391861    0.3192964958969746    0.30144294968631385    0.3200985489055773    0.35799628400297706    
  0.38977671371841516    0.4009832863455809    0.38977660800073793    0.3579963281466424    0.3200985840826787    
  0.30144296745909127    0.3192965283448625    0.37263162319365756    0.4350284231768887    0.4693585463532559    
  0.4756008195128896    0.29019545320928136    0.33736178027024155    0.42829368493648867    0.4592049000044298    
  0.4321928116917381    0.41467071725985677    0.4236441712675836    0.42705167453404713    0.40352723972931637    
  0.3866586665316684    0.40352718108327934    0.4270517528853686    0.4236441163179425    0.4146707620347481    
  0.432192899336989    0.4592048472771055    0.4282935813445836    0.3373617308768576    0.29019545320928136    
  0.10934700149099157    0.1696424975617421    0.3526961617227482    0.514279350758244    0.5405880864374166    
  0.5269538442365294    0.5150471214081812    0.4557030489178246    0.35469176267272184    0.30651001263540173    
  0.3546917671953646    0.4557030205847965    0.5150471580155563    0.5269537844751544    0.5405881150236104    
  0.5142793972406429    0.35269602933183847    0.16964254764414707    0.10934700149099157    0.05956228645685641    
  0.11187944895221158    0.3091420638597548    0.5283045660397452    0.5859413468505626    0.5754802317445438    
  0.5506703804562787    0.4565853336441771    0.3215340162045635    0.26293940352900746    0.3215339309392873    
  0.4565855269709406    0.5506703284053224    0.5754801529067174    0.585941352266805    0.5283045835552334    
  0.3091421273604264    0.11187943189510564    0.05956228645685641    0.10934694503401689    0.16964258315954717    