#     DFTpy    
  CRYSTAL 
    
  PRIMVEC    
  6.534965517241378    0.0    0.0    
  0.0    6.534965517241378    0.0    
  0.0    0.0    3.600344827586206    
  PRIMCOORD    
  4    1    
  Si    0.0    0.0    0.0    
  Si    3.267482758620689    3.267482758620689    1.800172413793103    
  Si    0.0    3.267482758620689    0.9000862068965515    
  Si    3.267482758620689    0.0    2.7002586206896546    
  BEGIN_BLOCK_DATAGRID_3D    
  3d_datagrid_density    
  BEGIN_DATAGRID_3D#0    
  29    29    17    
  0.0    0.0    0.0    
  6.534965517241378    0.0    0.0    
  0.0    6.534965517241378    0.0    
  0.0    0.0    3.600344827586206    
  0.060391749446851946    0.10611996683028561    0.2568507486907666    0.363717810633922    0.2936064340504121    
  0.18332415158865256    0.11477076912024861    0.08488777064807768    0.08104088353791247    0.09817410259148412    
  0.13608045585068074    0.19240116433332424    0.2533580581007171    0.2973147310736305    0.3124186233678921    
  0.2973148415312221    0.2533578919454297    0.1924013795015252    0.13608024066373667    0.09817431619803396    
  0.08104066639147768    0.08488798568163487    0.11477053123809479    0.18332443960973094    0.29360614307903127    
  0.36371806759226016    0.25685061381829766    0.1061200149868941    0.060391749446851946    0.10611997467392913    
  0.15789979729879383    0.29623645822374045    0.36209928223122406    0.2782915061815677    0.17307795208377041    
  0.10923688831901134    0.08136871253827914    0.07776493507601762    0.09375816111917706    0.12902625795262013    
  0.18149523563639816    0.2390091347087551    0.28171289154129553    0.296843775635163    0.28171278889279017    
  0.23900932243209874    0.18149501237195548    0.12902645185260744    0.09375796572789062    0.07776514497970702    
  0.0813684986671951    0.10923712740806361    0.17307769191791728    0.2782917947385098    0.3620989751699846    
  0.2962366212629019    0.15789968561171744    0.10611997467392913    0.256850711285105    0.29623649809773317    
  0.35866147434719725    0.3336086226836067    0.23481425694099686    0.14637916480166202    0.09483056954104739    
  0.07213532768514608    0.06917994009638578    0.08226320547557946    0.11088094929637567    0.15335024802993497    
  0.20080261692589976    0.2378500379082009    0.25168840437656187    0.2378501431727533    0.20080246079372566    
  0.15335044370947223    0.11088076918251623    0.08226338903290432    0.06917972687920619    0.07213552854565353    
  0.09483034266340847    0.14637943182298044    0.23481398250958493    0.3336088884936518    0.35866126227628115    
  0.2962365735899744    0.256850711285105    0.3637178780550338    0.36209919235657145    0.3336087055992807    
  0.260724739144742    0.17618655657666532    0.11301692531552371    0.07663298653616286    0.060327322528863296    
  0.05822160748376838    0.0677323897808518    0.08822940349273908    0.11818170994486239    0.15169009637832742    
  0.17855122851936933    0.188868576886893    0.17855118209252446    0.1516902310103046    0.11818155724916687    
  0.08822957802487533    0.06773221455096763    0.058221789325612686    0.06032713702206537    0.07663319911612172    
  0.11301670110847088    0.17618675907315812    0.2607245505376307    0.3336087845946091    0.36209907684388276    
  0.3637178780550338    0.2936063381347901    0.2782915881491845    0.23481423000713922    0.17618655496364033    
  0.12169634275124623    0.08261255332297743    0.05962671995099425    0.04908901093871562    0.047755652994357904    
  0.05400429514896673    0.0671871352108872    0.08592577076397916    0.10655812610408634    0.12304816241113445    
  0.1293670195197443    0.12304821977915545    0.10655802802728712    0.08592591089567575    0.06718698774321372    
  0.05400446206179029    0.04775548517768015    0.049089180622006096    0.05962652757828707    0.0826127623060258    
  0.12169614465658331    0.17618675476698753    0.234814031530117    0.2782916902174506    0.2936063381347901    
  0.1833242737041125    0.17307787777733077    0.14637923706213776    0.11301689644521001    0.08261258562878115    
  0.06029392160744792    0.04667234306186898    0.040244992244027854    0.03941088192751356    0.04323009231920767    
  0.05112383314417967    0.06197548051261532    0.07362155274448705    0.0827471159135656    0.08618503038374994    
  0.08274708265360499    0.07362165083930396    0.06197536294809291    0.051123974428281226    0.04322993908383593    
  0.03941102901802108    0.040244843392849346    0.04667250692867125    0.06029374919187702    0.08261274714788182    
  0.11301672919228413    0.1463793625832619    0.17307780504039663    0.1833242737041125    0.11477067137858925    
  0.1092369828761738    0.09483051805094164    0.07663303137722476    0.05962669082332499    0.0466723482739964    
  0.038410345314866576    0.03433897665574638    0.03373445230043538    0.036010718544226016    0.04063191198118492    
  0.04678610403290924    0.053188706600365974    0.058087837422556826    0.059917349085945606    0.058087888763056164    
  0.05318862849897355    0.04678619326285837    0.0406317907237485    0.03601084897205066    0.033734316929589066    
  0.03433912411053947    0.03841019304183714    0.046672509282994365    0.05962655151067524    0.07663317089556332    
  0.09483040901710499    0.10923702958128004    0.11477067137858925    0.08488786543027727    0.08136861725471302    
  0.07213539345777303    0.06032728003387789    0.04908903265990386    0.04024498142262025    0.03433898673811348    
  0.031255593551976796    0.030638783950257806    0.03201573029485043    0.03487963141610517    0.038643881356845655    
  0.042444357044866945    0.04529359177071928    0.046362110859965174    0.04529355734217192    0.04244442490022201    
  0.0386437906126945    0.03487974648928318    0.032015603998141205    0.030638915191472164    0.03125545381046104    
  0.03433912904627276    0.04024483490870636    0.04908917189276    0.06032717259736873    0.0721354714822487    
  0.08136858797229085    0.08488786543027727    0.08104076512286776    0.07776502882394548    0.06917986268687978    
  0.0582216579143772    0.047755623568280205    0.03941090191407705    0.03373443916954559    0.03063878404144081    
  0.029750004122290983    0.030607484510637998    0.03273692304560217    0.035596620838671496    0.03845421881644708    
  0.04057618858248293    0.041374188060787284    0.04057622894348341    0.03845415587146476    0.03559670439853472    
  0.03273681148977451    0.030607599529152478    0.029749880274230003    0.03063891998986261    0.033734302510500504    
  0.0394110482253802    0.04775549267876801    0.0582217694691956    0.06917977804988718    0.07776506528936923    
  0.08104076512286776    0.09817420434859978    0.09375806548557852    0.0822632838708442    0.06773233416365151    
  0.05400433546081567    0.04323006483974005    0.0360107266041812    0.03201572031498747    0.030607484029838015    
  0.031222051230703037    0.03329984882772858    0.03618357096836815    0.03911866322073274    0.041316932702864836    
  0.042131291111160506    0.04131689432555741    0.0391187279592571    0.03618347260885997    0.03329996500113707    
  0.031221920666920377    0.03060761143240131    0.03201558268339771    0.036010870015739355    0.04322992494632768    
  0.05400446878450932    0.06773221437236118    0.08226337703904221    0.09375802066352866    0.09817420434859978    
  0.1360803056818339    0.12902636087957448    0.11088085436563656    0.08822944801663879    0.06718709567958898    
  0.05112385129455176    0.04063188831159014    0.03487963952470124    0.03273691494667371    0.03329984779601576    
  0.035809424226863645    0.03940579854852812    0.04314833687744824    0.04597390352832246    0.04701077627589029    
  0.04597394138002852    0.0431482759815293    0.03940589335980432    0.035809313006048345    0.03329997352205135    
  0.03273677103920237    0.0348797803087295    0.040631736482651656    0.05112400547380082    0.06718694208336047    
  0.08822959915518343    0.11088074121934634    0.12902641470754134    0.1360803056818339    0.1924013254502015    
  0.18149507291964706    0.1533503626338174    0.11818162684417534    0.08592583139158648    0.06197544615425701    
  0.04678610549849631    0.03864388274256555    0.0355966190112333    0.03618357386515455    0.039405795770081395    
  0.044197304634798415    0.04927496059973002    0.05315536411861044    0.0545896103857453    0.053155334431018116    
  0.04927504177978118    0.044197207862351595    0.03940591840352101    0.03618343982674092    0.035596756083044245    
  0.03864373130049394    0.046786263409912446    0.061975283199046306    0.08592599856301684    0.11818149094877241    
  0.15335046731339774    0.1814950050980167    0.1924013254502015    0.25335789459224756    0.23900930273310106    
  0.20080251673533464    0.15169016724391576    0.10655811498032443    0.07362158006282245    0.05318869252728469    
  0.042444347123565616    0.03845422222834741    0.03911865533093541    0.04314835374482221    0.04927496372926661    
  0.05585745743292749    0.06096769461234893    0.06289434133293359    0.0609677331031675    0.055857382813591476    
  0.04927507264168411    0.043148231249037806    0.039118791485966344    0.038454077432600445    0.0424445171835751    
  0.05318852041541942    0.07362175651879391    0.10655791381045492    0.15169035270714307    0.20080239714044487    
  0.23900936778250748    0.25335789459224756    0.2973148931837409    0.2817127391255758    0.2378501421040714    
  0.17855114271227696    0.1230481888407932    0.082747100584203    0.058087838938782284    0.04529358947462517    
  0.04057618232759303    0.04131694101060409    0.0459738870832735    0.05315539944970353    0.060967680214080555    
  0.06707653965342136    0.06938737485916757    0.06707650665049579    0.060967760516501074    0.053155283984664604    
  0.045974019626246074    0.04131679883372542    0.04057632704278653    0.04529342676005162    0.05808801426354866    
  0.08274692212114935    0.12304839948399365    0.17855098532742975    0.23785029005406513    0.28171267690244667    
  0.2973148931837409    0.31241850621609274    0.2968439021400284    0.25168834603581897    0.18886865329588243    
  0.129367023860155    0.0861850226477493    0.05991736134290388    0.046362109917429645    0.04137421278659022    
  0.04213127000568621    0.04701078886805215    0.05458960142724009    0.0628943636374851    0.06938735721860088    
  0.07183577353064506    0.0693874038143397    0.06289427712689159    0.054589690597315194    0.04701067219087276    
  0.042131415145200204    0.04137405364793246    0.04636227467119193    0.059917177955538345    0.08618522015268873    
  0.12936681736239883    0.1888688465480996    0.2516881722348762    0.2968439859516278    0.31241850621609274    
  0.2973149484979157    0.28171272107325057    0.23785016122779795    0.17855113112456525    0.12304822239548606    
  0.08274708598993136    0.05808785360547266    0.045293575581865655    0.04057618815769045    0.04131692419537656    
  0.04597390364744567    0.053155378896808075    0.060967692505411196    0.06707652450138064    0.06938739517549518    
  0.06707649549569579    0.06096779018339841    0.053155259155832565    0.04597403341126957    0.04131679083886972    
  0.04057634422612212    0.045293407070074246    0.058088032960445284    0.0827468997834473    0.12304842593069315    
  0.17855096953623115    0.23785033436762054    0.28171265644307075    0.2973149484979157    0.25335780070793323    
  0.2390093483565959    0.20080244805237532    0.1516902138644613    0.10655805376149004    0.0736216204031591    
  0.053188657162470024    0.042444384225965776    0.03845419464011854    0.03911868224561922    0.0431483315531494    
  0.04927499133307198    0.055857440148563586    0.060967732096758216    0.0628943156224043    0.06096777173208212    
  0.055857336721914536    0.04927509640035692    0.04314820020518691    0.039118817575480525    0.038454043371210805    
  0.04244454266238101    0.05318848540382274    0.07362180093694619    0.1065578558360517    0.15169038684333422    
  0.20080229403601466    0.23900944578555716    0.25335780070793323    0.19240138739886933    0.18149497472358755    
  0.15335046363260102    0.1181815582938891    0.08592588810261269    0.06197539642448654    0.04678615461814045    
  0.03864382908681386    0.03559665556030735    0.036183529732474094    0.03940583978194535    0.044197263178202835    
  0.04927500781510522    0.05315531956399022    0.05458965332255304    0.05315528131909892    0.04927509096793985    
  0.04419716385121192    0.039405954988348174    0.03618340425879976    0.035596794929169104    0.03864368393295281    
  0.04678631175103841    0.06197522513881335    0.08592604957257266    0.11818141150007656    0.15335054410204757    
  0.18149491575601853    0.19240138739886933    0.13608021847768395    0.1290264473712639    0.1108807675659491    
  0.08822954106524232    0.06718702252820165    0.05112391651747172    0.04063183463353173    0.03487968660744492    
  0.03273686288225092    0.033299897843719554    0.0358093667791657    0.03940585066853734    0.043148289088446694    
  0.04597395391509695    0.04701071677229182    0.0459739914546548    0.043148222474242416    0.03940594470121565    
  0.03580925728462082    0.03330002471431449    0.03273672575063884    0.03487983630138388    0.04063167677865634    
  0.05112407289232669    0.06718687109538024    0.0882296778685054    0.11088064197276357    0.12902651550281066    
  0.13608021847768395    0.09817430518115502    0.09375797309788819    0.08226337841876628    0.06773226584139698    
  0.0540044088863579    0.043229996611589765    0.036010789041581816    0.03201565900200647    0.030607535665880353    
  0.031221988769505434    0.03329990631729201    0.036183507364079735    0.039118720647001386    0.04131686143946055    
  0.042131361148181216    0.041316834930361084    0.03911879419098571    0.03618342335820017    0.03330001658031632    
  0.03122186250268738    0.03060767296817224    0.03201552642263673    0.036010931729784125    0.04322985894077134    
  0.05400454388871745    0.06773212447899365    0.08226347556078732    0.09375792535805326    0.09817430518115502    
  0.0810406633195917    0.07776511774402975    0.0691797730782729    0.058221738767340485    0.04775554409874867    
  0.039410970664237564    0.033734379410817694    0.03063884657743381    0.029749946193838802    0.030607543906163912    
  0.03273685363143543    0.03559668403499004    0.038454157528776185    0.04057626025031882    0.041374114307171174    
  0.04057630060860027    0.03845408099539259    0.03559676871928462    0.03273674480548324    0.030607663423660066    
  0.029749817879440348    0.030638981826203955    0.03373423739342689    0.03941111003328928    0.04775541687493596    
  0.05822185543480212    0.06917967746007664    0.07776516686948756    0.0810406633195917    0.08488796737353878    
  0.08136851989289226    0.07213549334524721    0.0603271944772722    0.04908910759012453    0.04024491233149071    
  0.0343390444908342    0.03125552570319825    0.030638843155366996    0.03201566952973491    0.03487970216864071    
  0.0386438138219502    0.042444422399381475    0.045293511174106495    0.04636219109814273    0.04529347821601926    
  0.04244449250587352    0.03864371961509105    0.0348798135518986    0.03201554246979808    0.030638978842213976    
  0.031255386502732053    0.03433919049299757    0.04024476531771711    0.04908924282213716    0.06032708352583196    
  0.07213555898131829    0.08136849002714522    0.08488796737353878    0.11477055737522036    0.10923709152783463    
  0.09483041297529647    0.076633132720317    0.05962660932817797    0.04667243008784044    0.03841027932253672    
  0.03433904405480548    0.03373438252058443    0.036010785301718896    0.040631836975885856    0.04678617010095156    
  0.05318862565597002    0.05808791170947277    0.05991726586001408    0.058087970204380016    0.05318855091963642    
  0.04678626893329256    0.04063171663653847    0.03601091239695618    0.03373424786083738    0.034339186796224254    
  0.03841013399185957    0.04667257968841058    0.059626465470369185    0.07663324886135452    0.09483031023193092    
  0.10923713815109454    0.11477055737522036    0.1833243855337845    0.17307775618800084    0.14637935499728838    
  0.11301678861687475    0.08261266332716523    0.06029384287389842    0.04667240658706354    0.040244929502908554    
  0.03941094271834856    0.04323002252245542    0.05112389789144095    0.06197540411728259    0.07362163458677211    
  0.08274704188109296    0.08618510496075599    0.08274699609929395    0.0736217215022352    0.0619752843824001    
  0.05112403291918207    0.04322987063831537    0.039411090714859216    0.04024477727216402    0.04667256705491584    
  0.06029367488373972    0.08261283649855844    0.11301662317357274    0.14637946976743302    0.17307769916324378    
  0.1833243855337845    0.2936061788259402    0.2782916884895785    0.23481410361316632    0.17618665044544557    
  0.12169625653197659    0.08261263241949653    0.05962665191423131    0.049089063434511394    0.04775559981774232    
  0.05400434963622875    0.06718706054583916    0.08592585570983917    0.10655804899429253    0.1230482536353834    
  0.129366934723126    0.12304832544429851    0.10655794578166979    0.08592598802499253    0.06718692295000477    
  0.054004519654117816    0.04775543232401051    0.04908923114212671    0.05962646686677867    0.08261284166020222    
  0.12169604773626741    0.1761868449872168    0.23481393509297907    0.27829177155853074    0.2936061788259402    
  0.36371802042156987    0.3620991007250858    0.33360876105937426    0.26072467307761305    0.17618663683200056    
  0.11301685852282058    0.07663303963726043    0.06032727695357914    0.05822166235363768    0.06773233908717068    
  0.08822945890711058    0.11818164101157581    0.15169014669776706    0.17855113957136992    0.18886865670528183    
  0.1785510676511418    0.1516902874938339    0.11818146144586605    0.08822963487114327    0.06773216498645569    
  0.05822183599214487    0.060327087263465466    0.0766332494952285    0.11301663010405243    0.1761868691589771    
  0.260724438971728    0.33360891445900603    0.3620989619264102    0.36371802042156987    0.2568506501833867    
  0.29623655811876254    0.35866136746732263    0.3336087589846807    0.23481419607287782    0.14637921929942468    
  0.09483052141427879    0.07213536867217892    0.06917988873187582    0.08226323850748939    0.11088090093993865    
  0.15335029880752515    0.2008025396911883    0.23785012023337082    0.2516883645650836    0.237850200259472    
  0.2008024461162751    0.15335049388234717    0.11088070378155013    0.08226343522913296    0.06917969346089255    
  0.07213557649666173    0.09483030271208662    0.14637947031659876    0.23481393776293213    0.3336089553568297    
  0.3586612220556906    0.29623665576264646    0.2568506501833867    0.10611998375476468    0.15789976303623243    
  0.2962364836954699    0.362099193625684    0.2782915270289295    0.17307792065511726    0.10923690930448912    
  0.08136869075233386    0.07776495617101993    0.0937581435927783    0.1290262780160057    0.181495178503787    
  0.23900917894884088    0.2817128289590547    0.29684383761853467    0.28171278408427775    0.23900931625705332    
  0.18149499155504936    0.12902648294294794    0.09375794425507128    0.07776516654414152    0.08136847422223192    
  0.10923715828605825    0.17307766554690693    0.27829183673988334    0.362099003129974    0.2962366499948881    
  0.15789969499640782    0.10611998375476468    0.060391749446851946    0.10611996683028561    0.2568507486907666    
  0.363717810633922    0.2936064340504121    0.18332415158865256    0.11477076912024861    0.08488777064807768    
  0.08104088353791247    0.09817410259148412    0.13608045585068074    0.19240116433332424    0.2533580581007171    
  0.2973147310736305    0.3124186233678921    0.2973148415312221    0.2533578919454297    0.1924013795015252    
  0.13608024066373667    0.09817431619803396    0.08104066639147768    0.08488798568163487    0.11477053123809479    
  0.18332443960973094    0.29360614307903127    0.36371806759226016    0.25685061381829766    0.1061200149868941    
  0.060391749446851946    0.10290023848882694    0.1544946369584269    0.293826453148879    0.36168468679682636    
  0.27788933392615606    0.1711761222932247    0.10545471374330181    0.07492832121681951    0.06659786336142774    
  0.07381831586729108    0.09404001158267353    0.12505876655863402    0.16041648060099856    0.18883413090498644    
  0.19972263471231236    0.18883404983133292    0.16041662244564417    0.12505859763358776    0.09404020584781761    
  0.0738181373472128    0.0665980437627888    0.07492811488458209    0.1054549572946395    0.17117587070643908    
  0.2778896181971625    0.3616844496708158    0.29382663922909763    0.1544945930317416    0.10290023848882694    
  0.1545492158488053    0.2066580335819371    0.3246012814520096    0.35575251489814186    0.26307121198482286    
  0.16187390235587718    0.10062107711154158    0.07208104053155201    0.06425907709418932    0.07103159604669518    
  0.08996120537483022    0.11889931149659938    0.15180493883155813    0.17831779181922897    0.18852809323224812    
  0.17831786533843608    0.15180483995612665    0.11889945484779017    0.08996104026861931    0.07103178458959056    
  0.06425889346752542    0.07208123646230838    0.10062085980959748    0.16187417627117123    0.26307090147903184    
  0.3557527199195252    0.3246011232450484    0.20665808708413055    0.1545492158488053    0.2946354941503259    
  0.32535906836325    0.363503692038738    0.32066826996819986    0.22169514701758083    0.1374805259080189    
  0.08792777276344273    0.06458794915185906    0.05813812842358458    0.06374621958937393    0.0793401628837247    
  0.10293962689095791    0.12954830806683768    0.15098120476414864    0.15926313002187328    0.15098115337999715    
  0.12954841723878494    0.10293948634483294    0.07934032863126551    0.06374604774832825    0.05813830600727853    
  0.0645877548925333    0.08792798820391245    0.13748028594277734    0.22169539490171647    0.3206680498904078    
  0.36350390272315747    0.32535899711793365    0.2946354941503259    0.3641527846534502    0.3579827996186225    
  0.3219692907900022    0.24778783461752257    0.1668724856389862    0.10694393125953183    0.07180688016333356    
  0.054923106756502596    0.05023301700383946    0.05439378497790683    0.06582692582682306    0.08282895660515592    
  0.10170713329378323    0.11676701554169829    0.12254239617427197    0.11676708873762866    0.10170703062017296    
  0.08282907882572475    0.06582677937409091    0.05439395174895221    0.050232842499335705    0.05492329513142887    
  0.0718066856912618    0.10694415480357561    0.1668722333516895    0.24778806981489143    0.32196906229642086    
  0.35798289924813836    0.3641527846534502    0.2821664346748597    0.26686780237789226    0.22436818882221218    
  0.16819582061237479    0.11644509844326684    0.07914642127724894    0.05670666647226144    0.04562100529429823    
  0.042526835506735944    0.04535965453366301    0.05298230220447831    0.06401933287796824    0.07602835238831873    
  0.08547658019647154    0.08905209203958896    0.08547654924839632    0.0760284422168822    0.06401922138524206    
  0.052982446189061484    0.04535951641725259    0.042526982444373126    0.04562084092969517    0.05670684340455495    
  0.07914623948222978    0.11644530118334998    0.16819563459868597    0.22436831354536094    0.2668677154163882    
  0.2821664346748597    0.1779663510380584    0.16800217616348448    0.14215949378870701    0.10993382495240865    
  0.08052450020132144    0.05878636890642946    0.04520617953086555    0.03827822690700801    0.0363145413525104    
  0.038135648521598314    0.042931485500921664    0.049654904662604894    0.05678895534234358    0.062314444107474984    
  0.06438223196494663    0.0623144896487538    0.05678888808290589    0.04965501825401088    0.042931355651078654    
  0.03813577898110683    0.03631439485551493    0.0382783864159196    0.045206020359498396    0.05878653678297581    
  0.080524337000447    0.10993397076881857    0.142159371871985    0.16800224653392717    0.1779663510380584    
  0.11591101403551854    0.1102351674005615    0.09557163113181316    0.07712495296159129    0.05985502347884265    
  0.04662807273822839    0.03803583068944451    0.033482717342626644    0.03214140950501011    0.03329475635197667    
  0.03631006059397942    0.040430904839998484    0.044675600713715395    0.047902782183225634    0.04910937763511033    
  0.04790275450699589    0.04467566345010068    0.040430797715644784    0.036310177597415935    0.033294625419459545    
  0.03214155274747673    0.03348257261097659    0.038035977411766786    0.04662791801076412    0.05985517726684008    
  0.07712483507820576    0.09557171453428027    0.11023511907909347    0.11591101403551854    0.09191264126586504    
  0.08786972593471266    0.07737281679312291    0.06407410172226648    0.05146429110341927    0.0415700249839291    
  0.03492562036583801    0.03126745586537878    0.030094459728652215    0.030834316693764012    0.03292651460560615    
  0.03578429314244703    0.03866753342597636    0.040817246171051515    0.04162445035952991    0.040817283583769765    
  0.03866747360594056    0.03578438175500233    0.03292640332506346    0.03083443374750464    0.03009432328256308    
  0.03126759775797822    0.03492548187931109    0.04157016946650888    0.051464154123034817    0.06407423207618818    
  0.07737271908618083    0.0878697913834126    0.09191264126586504    0.09620362115522119    0.09189019357957265    
  0.08065699968322108    0.06644654607498433    0.05303310151457759    0.04250820274686463    0.03542328372332183    
  0.03146800202984408    0.030035450349498036    0.03051272151491644    0.03231990324674328    0.034866152424533094    
  0.0374518888597814    0.03937567188946333    0.04009097697995284    0.039375652926580615    0.037451950390526144    
  0.03486606081312437    0.032320015733063596    0.030512600085512723    0.030035589247726664    0.031467861327940404    
  0.0354234303254864    0.04250806517409417    0.05303323806003882    0.06644641906737471    0.08065708025277928    
  0.09189013713653206    0.09620362115522119    0.12782829362025802    0.1213558079937832    0.10454638177934322    
  0.08349560776867886    0.06399158363665902    0.049059168420840356    0.0392428526283633    0.033806716347223036    
  0.03168961050823937    0.032012581999730325    0.03403861543829958    0.03700420482923223    0.04010383009134561    
  0.042440683168313335    0.04329745861324781    0.042440720212257504    0.04010376746361004    0.03700430054436358    
  0.03403850781339906    0.03201269892726338    0.03168947139952509    0.03380685834193921    0.039242702337875045    
  0.04905932356618481    0.06399142832644573    0.08349574335263747    0.10454629145474276    0.12135587222506482    
  0.12782829362025802    0.19022863250689562    0.17944118704121442    0.15144314291952782    0.11653639145937486    
  0.08472148004128248    0.06109527210374659    0.0460543036720885    0.03791053006911793    0.03469665890912546    
  0.034934434856334226    0.037586277697484974    0.04164364172403051    0.04598371815596519    0.04929374539528884    
  0.05050639395829855    0.04929370825289703    0.04598378725197084    0.04164354098641016    0.0375864040664638    
  0.03493430685589591    0.03469679614445188    0.03791038479521458    0.046054473338275774    0.0610951062553234    
  0.08472164224949298    0.11653624501954278    0.15144324427654343    0.17944110655551376    0.19022863250689562    
  0.27561784411446416    0.2603711305300714    0.21878419231937796    0.16434334592414973    0.11408499766661953    
  0.07752709079068536    0.05501006541530996    0.04316080404629159    0.038522073934888025    0.03869945489350003    
  0.04225900540212923    0.04791396646161769    0.054057427270755305    0.058806183653746666    0.06058083915525408    
  0.058806231144724976    0.05405736463239338    0.0479140567748463    0.042258890709339476    0.038699594128813526    
  0.03852192470543373    0.0431609686246647    0.055009899094796935    0.07752727472865113    0.11408480280350375    
  0.1643435398799818    0.21878402261602914    0.26037119285765437    0.27561784411446416    0.34596328413459265    
  0.33255237846758634    0.28745195546136376    0.21684634124239419    0.14667758625525876    0.09535930923141532    
  0.06440931028700728    0.04848060774710379    0.04231209207865011    0.04248182073556161    0.047060243008252886    
  0.05446210557217782    0.06259661138193587    0.06898674487527072    0.0714251336162048    0.06898669577502352    
  0.0625966917785971    0.05446200358240924    0.04706037224318072    0.04248167486556976    0.04231224148659653    
  0.04848044084281664    0.0644094981349372    0.09535910267796321    0.1466777828695268    0.2168461347038819    
  0.2874521298848685    0.33255233034902226    0.34596328413459265    0.36729112935641034    0.363345116064151    
  0.3310422013822648    0.25681306276115434    0.17269259239890183    0.10946429220131021    0.07169291225501939    
  0.05253190394318664    0.04516473570037694    0.045326066521905656    0.05068616356281815    0.059455915971297714    
  0.06921135913250011    0.07692457563927071    0.07987814422377403    0.07692463007962498    0.06921126482221286    
  0.0594560186579129    0.05068603754978727    0.04532620853735348    0.045164578922897596    0.05253207658935744    
  0.07169271163769418    0.10946452834503602    0.17269235765113805    0.25681331531366774    0.33104199504122706    