#     DFTpy    
  CRYSTAL 
    
  PRIMVEC    
  5.440275862068965    0.0    0.0    
  0.0    5.440275862068965    0.0    
  0.0    0.0    2.9972413793103447    
  PRIMCOORD    
  4    1    
  Si    0.0    0.0    0.0    
  Si    2.7201379310344826    2.7201379310344826    1.4986206896551724    
  Si    0.0    2.7201379310344826    0.7493103448275862    
  Si    2.7201379310344826    0.0    2.2479310344827583    
  BEGIN_BLOCK_DATAGRID_3D    
  3d_datagrid_density    
  BEGIN_DATAGRID_3D#0    
  25    25    13    
  0.0    0.0    0.0    
  5.440275862068965    0.0    0.0    
  0.0    5.440275862068965    0.0    
  0.0    0.0    2.9972413793103447    
  0.0603720702034919    0.10399904165215494    0.25313193492132446    0.3853496038163626    0.3518310606746394    
  0.26177273636243836    0.20829719141513045    0.20090469657824037    0.23221694693388434    0.2905153045839702    
  0.3475123442015422    0.37575041866782394    0.3810690330250202    0.3757504031439474    0.34751228753599916    
  0.2905153201980048    0.23221691524084284    0.20090471934059448    0.208297168672819    0.2617727516834715    
  0.3518310961712916    0.38534952504647296    0.2531319683886324    0.10399906098009337    0.0603720702034919    
  0.10399908148477553    0.15362465828119004    0.29383299481111497    0.38706693215625365    0.33543301755194577    
  0.247459311657318    0.19724166377667104    0.19029558182884837    0.2196708244058888    0.2752315446895845    
  0.3324520489005508    0.3652648793415758    0.37354907824234346    0.3652649086739682    0.3324520688079521    
  0.2752315476724654    0.21967077099862448    0.19029561575058745    0.1972416243895226    0.24745932024073394    
  0.3354330546292571    0.3870668562468603    0.29383301865503325    0.1536246805089048    0.10399908148477553    
  0.25313192410627877    0.29383298023135346    0.3679268342503336    0.36765242558980377    0.28836174440552953    
  0.2102781300704595    0.16900881465762188    0.1633704264122799    0.18753531848435145    0.2345427517735351    
  0.28776597612781274    0.325630195719648    0.3382919700710284    0.3256301969031456    0.28776596207683963    
  0.23454271907806162    0.1875353278670394    0.16337045320485077    0.16900881959623537    0.21027808756757713    
  0.2883617470606398    0.3676524243770209    0.3679269045446672    0.29383305464301535    0.25313192410627877    
  0.3853496440954132    0.3870668342637802    0.3676524551342793    0.3040553284076464    0.22451991485010664    
  0.16470318531703565    0.13457718957778783    0.13044232642411238    0.14791294633501142    0.1824276880200963    
  0.2239888639579658    0.25727402152919276    0.26974300959428216    0.25727398364348153    0.22398883828094182    
  0.18242770301074934    0.14791292436430584    0.13044232560722807    0.13457717866119542    0.1647031614149923    
  0.22451993015767194    0.3040552842190256    0.367652408755484    0.38706682778224705    0.3853496440954132    
  0.3518310284984062    0.335433065370061    0.2883616939645699    0.22451999464747444    0.16555452514948518    
  0.12462682011005188    0.10394860232594232    0.10086288885289334    0.112355969726455    0.1350640061399052    
  0.16283126575787552    0.18596502343517587    0.19493993657575895    0.18596506377348374    0.16283127626413815    
  0.13506401880943836    0.11235594464725736    0.10086291954268911    0.10394859597182307    0.12462681220108948    
  0.1655545823430816    0.2245199551687141    0.2883617136790245    0.3354330866792737    0.3518310284984062    
  0.2617728127503018    0.24745924471356212    0.21027811551844197    0.1647031588557461    0.12462679026718479    
  0.09688305505004512    0.08247948084884625    0.07993752863100143    0.08722281734238072    0.1017029365406334    
  0.11931024709314943    0.1340717773667339    0.1398650752878999    0.13407180105904662    0.11931023590250042    
  0.10170295215241595    0.08722279039201865    0.07993753852543314    0.08247946534212584    0.0968830321379351    
  0.12462683206882863    0.16470315033282007    0.21027812659501274    0.24745926767031212    0.2617728127503018    
  0.20829712121058572    0.19724169413850587    0.16900874089463286    0.13457721335441003    0.1039485712030553    
  0.08247949353716638    0.07107657092000065    0.06856819250848835    0.07333346281846576    0.08328638014592095    
  0.09542062536931487    0.10561258923930764    0.10963620241518837    0.10561257823470732    0.09542060990363385    
  0.08328639259311889    0.0733334450053148    0.06856820648411285    0.07107656370761851    0.08247949053359116    
  0.10394858028956662    0.13457721305149284    0.16900875576295038    0.19724171319205552    0.20829712121058572    
  0.2009047585045593    0.19029549078299773    0.16337053798497483    0.1304422845858136    0.10086292116146858    
  0.07993752210715455    0.06856820715504235    0.06552163578115244    0.06917236960747845    0.07752326558120183    
  0.08786437581236546    0.09656385550066894    0.09998887337004847    0.09656386726340349    0.08786438568415796    
  0.07752327480517339    0.06917235047764123    0.06552163906485518    0.068568195372077    0.07993749625187249    
  0.10086293245626679    0.13044224958029493    0.16337052022208315    0.19029552358028906    0.2009047585045593    
  0.23221681760357266    0.2196708805940784    0.187535257442597    0.14791303634880548    0.11235589700298335    
  0.08722285627392186    0.07333343801910905    0.06917236095360231    0.0727748122990954    0.08176511073585618    
  0.09311793242742072    0.10270670354149328    0.10645952985400843    0.10270670546070025    0.09311792712968525    
  0.0817651422921857    0.07277480374936553    0.06917238599707921    0.0733334320430707    0.08722284467084586    
  0.1123559260235518    0.1479129932429318    0.1875352334804399    0.21967093161771528    0.23221681760357266    
  0.29051543876932123    0.27523137901818157    0.23454282074441143    0.18242761968455257    0.13506406880340327    
  0.10170289709014302    0.08328641630727407    0.07752323842224014    0.0817651353411664    0.0930745191258969    
  0.1076287346134673    0.11997579926408106    0.12477785269792638    0.11997580157373282    0.10762870542565736    
  0.09307453628120368    0.0817651317149799    0.07752326112280902    0.08328639570143916    0.1017028839034116    
  0.13506407468262077    0.18242760130261015    0.23454278994885894    0.2752314093707208    0.29051543876932123    
  0.3475122185817824    0.332452200009769    0.28776581101181303    0.22398902073388355    0.16283117395288516    
  0.11931031933402066    0.09542057384629582    0.08786437757582445    0.09311791900210441    0.10762871672295736    
  0.12653024392995874    0.14267106241693484    0.1489720671943484    0.14267106982380434    0.12653022267386424    
  0.107628727724334    0.09311790209327647    0.08786439858921023    0.09542056633878314    0.11931030675983939    
  0.1628312054089157    0.22398897832991968    0.2877658303235096    0.332452277280309    0.3475122185817824    
  0.37575056578562804    0.36526474981536466    0.3256303321116283    0.25727391411134354    0.18596509979664289    
  0.13407173709674075    0.10561262064985459    0.09656381510483046    0.10270673320043058    0.1199757924939269    
  0.1426710460764085    0.16234640280318127    0.17016275845489165    0.1623464119800416    0.14267106640100627    
  0.11997579899597954    0.10270670979964189    0.09656384168500338    0.10561262999952278    0.134071719687242    
  0.18596510191373675    0.25727386265316066    0.32563035342418034    0.3652647486218737    0.37575056578562804    
  0.38106886167932214    0.3735492379383604    0.338291786239179    0.26974315909758106    0.19493985272878317    
  0.13986516577420274    0.10963614463796491    0.09998892053181385    0.10645952858669412    0.12477785565704566    
  0.14897204277407655    0.17016282842891295    0.17866457116907372    0.17016275982970852    0.14897205603924188    
  0.12477786008978195    0.10645952825223007    0.0999889355174078    0.10963613974086758    0.1398651519498316    
  0.19493985850856183    0.2697431215821905    0.33829183026337856    0.37354921704519284    0.38106886167932214    
  0.3757505807103743    0.3652647292605151    0.3256303437069723    0.25727394520701824    0.18596510990884932    
  0.13407174079084316    0.10561263182314488    0.0965638058769758    0.10270671750813194    0.11997580086456637    
  0.14267106277815028    0.16234639226206013    0.17016274863085545    0.16234640242163004    0.14267109735281033    
  0.11997577971186475    0.10270669174319602    0.0965638506594519    0.10561262718470249    0.13407173048180052    
  0.18596512803375476    0.2572738961432921    0.3256303609440001    0.3652647493973864    0.3757505807103743    
  0.34751219398213234    0.33245219761492056    0.2877658075531295    0.22398897176261948    0.16283116472628048    
  0.11931031375320737    0.09542057294818616    0.08786437134936789    0.09311791488977648    0.10762874021573265    
  0.12653024184365103    0.14267105675569364    0.1489720420578836    0.14267105577669503    0.12653024678255273    
  0.10762872898877879    0.09311791006656198    0.08786441351062232    0.09542056874398996    0.11931029068347593    
  0.16283120920399116    0.22398894423165322    0.2877658314185946    0.3324522196993811    0.34751219398213234    
  0.2905154493827966    0.2752314147895992    0.23454280601047484    0.1824276164124186    0.13506406259132958    
  0.10170288679546906    0.08328641293255136    0.07752324281518157    0.08176513068364719    0.09307453484641297    
  0.10762871547749331    0.11997582135338535    0.12477785059738303    0.11997578422499232    0.10762872358789327    
  0.09307453659131357    0.08176512765735192    0.07752324861731473    0.08328640293917014    0.10170288530013959    
  0.1350640710571796    0.182427599290768    0.23454279935135244    0.27523139980028233    0.2905154493827966    
  0.23221683375271776    0.21967090983706683    0.18753524972044688    0.14791305363330895    0.11235589547337327    
  0.08722284499965281    0.07333344406701836    0.06917236151971523    0.0727748171835853    0.0817651196273924    
  0.09311792315739524    0.10270670586504518    0.10645955934420209    0.10270673011572481    0.0931179434081924    
  0.08176513352691907    0.072774804597668    0.06917239310628558    0.07333342986381029    0.08722284827717874    
  0.11235591495031783    0.14791300039302513    0.1875352456159774    0.21967093208719618    0.23221683375271776    
  0.20090479181818688    0.19029548908781954    0.16337050818582807    0.13044229752683126    0.10086292288193147    
  0.07993751902393807    0.06856819844898984    0.06552162812248274    0.06917237797883907    0.07752326944484836    
  0.08786436722925399    0.09656385669294386    0.09998888154281586    0.09656385834083649    0.0878643552037505    
  0.0775232672211258    0.06917235852860534    0.06552164666931824    0.06856820214989658    0.07993750700069088    
  0.1008629503984516    0.13044224931140905    0.16337051232022898    0.19029551656169386    0.20090479181818688    
  0.20829710680803987    0.1972417025592086    0.16900876188283362    0.13457722310319842    0.10394856823323936    
  0.0824794904495967    0.07107658655531102    0.06856819042508323    0.07333347657028262    0.08328636825680719    
  0.09542061509157448    0.10561259368748971    0.10963619153937891    0.10561257208278232    0.09542060616127572    
  0.08328639757688175    0.07333345229035655    0.06856819161660904    0.0710765779177422    0.08247949740597924    
  0.10394857829789997    0.13457720366540304    0.16900876107235316    0.19724171118615552    0.20829710680803987    
  0.261772785746696    0.24745925661925885    0.21027815630145372    0.1647031797355838    0.12462679732573821    
  0.09688304044721488    0.08247947922667134    0.0799375246454361    0.0872228133751726    0.10170294036545245    
  0.11931023341100856    0.13407180969091595    0.13986508308264933    0.13407182621896052    0.11931026465864175    
  0.10170295745183502    0.08722278929011971    0.07993754097733576    0.08247945305165766    0.09688303032393811    
  0.12462682941685577    0.16470314033411446    0.21027813772410547    0.2474592512265263    0.261772785746696    
  0.35183101570374414    0.33543307737247624    0.2883617130099203    0.2245199731589584    0.1655545411827948    
  0.12462680611944084    0.10394860245010545    0.10086288501229054    0.11235596133675037    0.13506400134623514    
  0.1628312834232685    0.1859650050041641    0.1949399090789406    0.18596504167262565    0.16283127936178735    
  0.13506403152792978    0.11235595435132516    0.10086291428479317    0.10394858554859635    0.12462680267740989    
  0.16555458673759682    0.22451994522325439    0.2883617309285382    0.33543311604350495    0.35183101570374414    
  0.38534964203145666    0.3870668617253541    0.36765244065415764    0.30405532094121496    0.22451992893624426    
  0.16470317410068058    0.13457719534018436    0.13044232168918868    0.14791296306389523    0.18242769085710328    
  0.2239889089823365    0.2572740008273274    0.2697430116626307    0.2572740231087871    0.22398884834753952    
  0.18242768713415633    0.1479129306118448    0.13044233735238028    0.13457717472074482    0.16470317130354334    
  0.2245199401459063    0.30405530095838207    0.3676524162449953    0.3870668758766726    0.38534964203145666    
  0.2531319367288437    0.2938329476677152    0.3679268995856875    0.3676524851438416    0.28836169890604446    
  0.21027810940647396    0.16900882598826464    0.16337044774305332    0.18753534068566002    0.23454268773153544    
  0.2877659602528482    0.32563021658567964    0.33829194017101116    0.325630198645095    0.28776598574283635    
  0.23454273991260435    0.18753532782177879    0.16337046390405843    0.1690088013971279    0.2102781093500335    
  0.28836175798404134    0.36765238881659196    0.3679268895339539    0.29383304538120314    0.2531319367288437    
  0.1039990683682116    0.15362466502872596    0.2938329732573319    0.387066930358009    0.33543299656290226    
  0.2474593296441863    0.19724165661877852    0.19029555974699197    0.21967081839074595    0.27523153905082914    
  0.33245201460999285    0.36526490480781465    0.37354907558181644    0.365264921580863    0.3324520352789944    
  0.27523153943405176    0.21967080629571115    0.19029560336014004    0.1972416187654847    0.24745929155189325    
  0.33543305868930234    0.3870668544940902    0.29383301498207687    0.15362467042346348    0.1039990683682116    
  0.0603720702034919    0.10399904165215494    0.25313193492132446    0.3853496038163626    0.3518310606746394    
  0.26177273636243836    0.20829719141513045    0.20090469657824037    0.23221694693388434    0.2905153045839702    
  0.3475123442015422    0.37575041866782394    0.3810690330250202    0.3757504031439474    0.34751228753599916    
  0.2905153201980048    0.23221691524084284    0.20090471934059448    0.208297168672819    0.2617727516834715    
  0.3518310961712916    0.38534952504647296    0.2531319683886324    0.10399906098009337    0.0603720702034919    
  0.11400414657732827    0.16389083111585545    0.29906668719523133    0.38038700881439785    0.32085646615544183    
  0.22829299139121628    0.17212370721526646    0.15481913725424454    0.16726984311413656    0.20195378306752554    
  0.2466050313453782    0.2835150422109001    0.29774314155950105    0.28351500544362224    0.24660500049190653    
  0.20195377397801917    0.1672698106324598    0.15481916659472628    0.17212369565012658    0.22829296923924836    
  0.32085650922968345    0.3803869361793305    0.29906669425165505    0.16389081436200648    0.11400414657732827    
  0.1645203517361914    0.21429738558969744    0.3301398070066437    0.3767770379350409    0.3056732195884628    
  0.21652005240857358    0.16384129371866146    0.14764126967705948    0.1593016244915058    0.19173228697176636    
  0.23361841641595493    0.26858246056628216    0.28216717394672913    0.2685824694540808    0.23361845015492638    
  0.191732302098146    0.1593016116127281    0.14764130614527832    0.16384128088788982    0.21652004090059207    
  0.305673277734089    0.3767770264161577    0.3301398206516172    0.21429738055783762    0.1645203517361914    
  0.30374571680002327    0.33410794404489363    0.3773350036877642    0.34942713459010283    0.2634123441833728    
  0.1860061252800061    0.14255127348655255    0.1292285848152551    0.13883104663566376    0.1653731164474639    
  0.19987064558254253    0.22918077714007126    0.24071558376639945    0.22918079654340973    0.19987066263324818    
  0.16537310782738923    0.13883106017070684    0.12922859187293675    0.14255127607731502    0.1860060896080358    
  0.2634123805865784    0.3494270930878979    0.377335039122417    0.33410799064014746    0.30374571680002327    
  0.39458622021662704    0.3895896907948239    0.3572652749445124    0.28703413954623863    0.20780314101428474    
  0.14872276348408278    0.11647112547717786    0.10651185617551986    0.11355796863356378    0.13294156469178522    
  0.15813289441432707    0.1797051990962241    0.1882254031863611    0.17970517210842643    0.1581328786229709    
  0.1329415493393749    0.11355796011328081    0.10651187005045204    0.11647112809053163    0.14872274953115028    
  0.20780313713832838    0.28703413081363405    0.3572652640281356    0.3895897343388702    0.39458622021662704    
  0.3470912010164522    0.32948771097832513    0.2806130895377135    0.21629868323850043    0.15757184571362487    
  0.11619528925177193    0.09344466372608916    0.08620818614535279    0.09096722143053176    0.10419403007449196    
  0.12126429036592352    0.1357986666471778    0.14151152066159844    0.13579867681654004    0.12126427798764498    
  0.10419404336739108    0.09096723019700267    0.08620820733009317    0.09344465861565872    0.11619527866326147    
  0.15757188589231405    0.2162986346396361    0.2806131244205696    0.3294877158289852    0.3470912010164522    
  0.2685065260793718    0.25336464690827565    0.21430806218408388    0.16650046519950618    0.12422576451523135    
  0.09449093652822489    0.07791313329369447    0.07239866055041987    0.07547463902356655    0.0845490497291637    
  0.09628627685345115    0.10623761063323    0.11013286302923563    0.10623762388056823    0.09628628472460896    
  0.08454905294938728    0.07547462676905799    0.07239868527648737    0.07791311413712186    0.09449092920015506    
  0.12422579474970108    0.1665004504911938    0.21430804140600385    0.2533646276831409    0.2685065260793718    
  0.23137014035894327    0.21856071024195597    0.18589568047064395    0.14601556561835327    0.11043705781728445    
  0.08524050638915802    0.07111479067970887    0.06619202744101227    0.0683320960622081    0.07540924588210213    
  0.08470714670694239    0.09261433288224083    0.09571399179374443    0.09261431800515842    0.08470712127867204    
  0.07540925297154347    0.0683320845031157    0.06619203859772503    0.07111478800820964    0.08524050676509859    
  0.11043707374291141    0.14601556125564083    0.1858956738824077    0.21856073468080547    0.23137014035894327    
  0.24474511012008693    0.23102399496207918    0.19602644586478288    0.15328860793705626    0.11516120066802447    
  0.0881121518087021    0.07280652330437665    0.0672885364480511    0.06926005905362063    0.0763551745882339    
  0.08572607720554577    0.09372056381463692    0.09686121229383178    0.09372056679763954    0.08572608987240675    
  0.07635518109994197    0.06926003724857206    0.067288545480724    0.07280650652880306    0.08811213526452652    
  0.11516121732220432    0.15328857527873652    0.1960264292839473    0.2310240183358494    0.24474511012008693    
  0.30217743996418706    0.28555745332440224    0.24179250748380807    0.18670513608026956    0.13717532217729442    
  0.10213638480269736    0.08227916453025384    0.0750187323531616    0.07736775855395236    0.08621234157849317    
  0.09795706153760919    0.10805773943020916    0.1120453096294122    0.10805773096523554    0.09795704660010734    
  0.08621234365464886    0.07736773877799318    0.07501876895546347    0.08227915553415478    0.10213636995737932    
  0.13717535517683094    0.186705108507324    0.24179250966920554    0.2855575059932013    0.30217743996418706    
  0.37087480232761805    0.3561346316385101    0.309843247626108    0.24087059153083884    0.17352121845673396    
  0.12505636300141842    0.09782593164417631    0.0878819681538127    0.09091844995463971    0.10288012664209968    
  0.11901868039714295    0.13304287507575874    0.13861386104645654    0.133042875733414    0.11901866985847895    
  0.10288013120627736    0.09091843264777157    0.08788198997511941    0.0978259141868348    0.12505634598771914    
  0.17352124128301472    0.24087057401441636    0.3098432275880611    0.3561346798662773    0.37087480232761805    
  0.37951915970153155    0.3816831682450175    0.3629307156140303    0.29824398962715465    0.21572595223032912    
  0.15182518670297354    0.11580250714837209    0.10272820767443001    0.10664805766830389    0.12252129057235267    
  0.14416579262952475    0.16312401814689192    0.1707115044468858    0.1631240685586805    0.14416580548416152    
  0.12252130306158891    0.10664802102307906    0.10272823242765573    0.1158024990084498    0.15182518272346285    
  0.21572600142897014    0.2982439140862105    0.3629307559227267    0.38168329762351066    0.37951915970153155    
  0.3213709874406071    0.3458575002134389    0.37472141791229086    0.33657519414653353    0.2496074241446823    
  0.17396506580289925    0.13057576418733516    0.11484518120428072    0.11950540500185455    0.13872506017847264    
  0.16515022365074317    0.18848000821195673    0.19789632476159705    0.1884800056149808    0.16515022346026784    
  0.13872505234353957    0.11950537907965152    0.11484519917638004    0.1305757506196059    0.17396504673644664    
  0.24960745521275024    0.3365751361704458    0.3747214845808915    0.3458575087675856    0.3213709874406071    
  0.2865847885389598    0.3196288610149083    0.37055778046687793    0.348557268754234    0.262399211825397    
  0.18258899108638857    0.13634918264836965    0.11956028075556807    0.12447969812750749    0.1449808990007219    
  0.17330260465874178    0.19842028124124267    0.2086128757314154    0.1984202136772315    0.17330261991396598    
  0.1449808979155657    0.12447968110561318    0.1195603115244072    0.13634916312702472    0.1825889823571222    
  0.26239919542793505    0.34855718403262714    0.3705578461433334    0.31962883979311923    0.2865847885389598    
  0.3213709854169118    0.3458574814245385    0.37472143505448013    0.33657525229956187    0.24960746453762195    
  0.1739650436615069    0.1305757735068841    0.11484516644024395    0.11950541269415943    0.13872508267196848    
  0.16515023852056762    0.18847998672502214    0.19789629778047424    0.18847998848831574    0.1651502475736435    
  0.13872508083815044    0.11950535556132487    0.1148452112954004    0.13057576021730954    0.17396504785158248    
  0.2496074611702343    0.33657519532400726    0.3747214551875304    0.34585750033774537    0.3213709854169118    
  0.37951912427668844    0.3816832233622092    0.36293066387033746    0.2982439156671653    0.21572599983199323    
  0.15182519027879893    0.1158025064909732    0.10272820489018414    0.10664804281261622    0.12252131045572054    
  0.14416580575162893    0.16312404857984036    0.17071148719835436    0.16312403007661241    0.1441657856206571    
  0.12252132136360455    0.10664804134633563    0.10272824456928996    0.11580248947760986    0.15182515986322104    
  0.21572603607773844    0.29824391064889394    0.3629307668049331    0.3816831923614048    0.37951912427668844    
  0.3708748449582761    0.3561346524411388    0.3098432788106943    0.24087056769905796    0.17352120996301812    
  0.12505635664663098    0.09782592508745142    0.08788197261019591    0.09091845088287166    0.10288012822305902    
  0.11901868269791954    0.13304288957252078    0.13861386337119783    0.13304285023448173    0.11901868464804163    
  0.10288013663276556    0.09091844501981111    0.08788198076269388    0.09782589773386968    0.12505636972447112    
  0.17352123228162097    0.2408705391751795    0.3098432736755329    0.3561346878974631    0.3708748449582761    
  0.3021774903132802    0.28555746659246606    0.24179248541987358    0.1867051311261584    0.13717530772155193    
  0.10213637107332611    0.08227916645965042    0.07501873907498804    0.07736775543231222    0.08621232574654036    
  0.0979570603703321    0.1080577426082456    0.11204534645399865    0.10805778105270654    0.0979570532072389    
  0.0862123545283774    0.0773677425601845    0.0750187644279082    0.08227916321228554    0.10213636339484787    
  0.13717533923987316    0.18670511003044873    0.24179249124732627    0.28555750334231117    0.3021774903132802    
  0.24474511608169291    0.23102396146087187    0.19602640343689964    0.15328860588878454    0.11516120006246125    
  0.08811215376635709    0.07280652368673901    0.0672885286308704    0.06926006372680514    0.07635516990846022    
  0.08572608642927887    0.09372056100966222    0.0968611934090691    0.0937205502760428    0.08572605352894444    
  0.07635516503960839    0.06926004447987981    0.06728854746341535    0.07280651196963689    0.08811214963031254    
  0.11516122480307288    0.15328856014441603    0.19602643963617802    0.23102400541970036    0.24474511608169291    
  0.23137015888275797    0.2185607128803228    0.18589567008901048    0.14601556602992075    0.11043704437951049    
  0.08524051450685217    0.07111480256439719    0.06619202669262347    0.06833210540440038    0.07540924281977045    
  0.08470712871147554    0.0926143517228297    0.09571397677624413    0.0926143262294841    0.08470712591000094    
  0.07540925748008664    0.06833207508438922    0.06619203100780546    0.07111479353820536    0.0852405113526659    
  0.11043706842245067    0.14601556760520787    0.18589568376537255    0.21856071666873242    0.23137015888275797    
  0.26850651250561447    0.25336463030031836    0.21430809830190373    0.1665004754788883    0.12422577086436205    
  0.09449092830433657    0.07791312518985498    0.07239866598436911    0.07547465184527506    0.08454902641552624    
  0.09628628060025103    0.10623763121866381    0.11013284536685317    0.10623763285569574    0.09628629936646936    
  0.08454905406702089    0.07547462356313013    0.07239868086074115    0.0779131108683792    0.0944909185479782    
  0.12422579434639516    0.16650046311103195    0.2143080410143677    0.25336463412015264    0.26850651250561447    
  0.34709117081965046    0.3294877122660302    0.2806130912483204    0.21629865073829133    0.157571868467696    
  0.11619527743708107    0.09344467353722276    0.08620819315600149    0.09096723443059004    0.10419403649406883    
  0.12126428697745618    0.13579867093851694    0.1415115058673856    0.1357986708557954    0.12126425559587016    
  0.10419405870781355    0.0909672281775305    0.08620821260232436    0.09344465437827838    0.11619527635663265    
  0.15757189980461245    0.21629864059829074    0.2806131476267128    0.32948773512016305    0.34709117081965046    
  0.3945862376166733    0.38958973875227454    0.3572652539646744    0.2870341170988715    0.20780315691400691    
  0.14872275227055307    0.11647113886811028    0.10651186432859662    0.11355797929890335    0.13294156197552695    
  0.15813290430326957    0.1797051797897021    0.18822540225522627    0.17970521187386515    0.15813288564755068    
  0.13294155663666854    0.11355797482110372    0.10651185887016813    0.11647110867674312    0.14872274297131052    
  0.20780316132470622    0.2870341255718084    0.357265252229478    0.38958974587597384    0.3945862376166733    
  0.30374575136895404    0.33410791104096504    0.37733499665663406    0.34942717137086227    0.2634123182312131    
  0.1860061062867705    0.14255129516194567    0.1292285947708134    0.13883105301112575    0.16537308727656638    
  0.1998706309401222    0.2291808187723801    0.24071559306965518    0.229180815017137    0.1998706536140236    
  0.16537309392515784    0.13883104995454296    0.12922863047591815    0.14255127313627045    0.186006144347437    
  0.2634123693975143    0.34942709784153314    0.37733500498461914    0.3341079675610213    0.30374575136895404    
  0.1645203383306784    0.21429734330600977    0.3301397435036753    0.376777010825904    0.30567321747424797    
  0.21652002807357654    0.16384127111168928    0.14764127527263876    0.15930166538476867    0.19173228331330747    
  0.23361841078912193    0.2685824472727802    0.2821671703280828    0.26858248156795494    0.23361839908695659    
  0.19173226920973976    0.1593016259436111    0.14764131579651812    0.16384124690085544    0.21652003725700927    
  0.30567325969262815    0.376776996566955    0.33013979514938396    0.21429737730830695    0.1645203383306784    
  0.11400414657732827    0.16389083111585545    0.29906668719523133    0.38038700881439785    0.32085646615544183    
  0.22829299139121628    0.17212370721526646    0.15481913725424454    0.16726984311413656    0.20195378306752554    
  0.2466050313453782    0.2835150422109001    0.29774314155950105    0.28351500544362224    0.24660500049190653    
  0.20195377397801917    0.1672698106324598    0.15481916659472628    0.17212369565012658    0.22829296923924836    
  0.32085650922968345    0.3803869361793305    0.29906669425165505    0.16389081436200648    0.11400414657732827    
  0.2865840896144451    0.31962953243337505    0.37055706386618514    0.348557964738201    0.26239858230562135    
  0.18258947261629604    0.1363487468973698    0.11956069048264888    0.1244793076828804    0.14498130404576653    