#     DFTpy    
  CRYSTAL 
    
  PRIMVEC    
  4.246068965517241    0.0    0.0    
  0.0    4.246068965517241    0.0    
  0.0    0.0    2.339310344827586    
  PRIMCOORD    
  4    1    
  Si    0.0    0.0    0.0    
  Si    2.1230344827586203    2.1230344827586203    1.169655172413793    
  Si    0.0    2.1230344827586203    0.5848275862068965    
  Si    2.1230344827586203    0.0    1.7544827586206895    
  BEGIN_BLOCK_DATAGRID_3D    
  3d_datagrid_density    
  BEGIN_DATAGRID_3D#0    
  19    19    11    
  0.0    0.0    0.0    
  4.246068965517241    0.0    0.0    
  0.0    4.246068965517241    0.0    
  0.0    0.0    2.339310344827586    
  0.049636100827280406    0.09600900227222178    0.28237027980511026    0.5130215068390326    0.5853379952021266    
  0.5728183509012995    0.5522062965503878    0.4963219885457745    0.4097686416806154    0.3681855848141309    
  0.4097685871087921    0.49632203402774216    0.5522062667349324    0.5728183930155418    0.5853380472900864    
  0.5130215211014565    0.28237023696317615    0.09600900245171506    0.049636100827280406    0.09600898198648301    
  0.1519521609334428    0.33157652270786786    0.5077857782986629    0.5449418614920526    0.5276085527388219    
  0.5154205209689867    0.4825479285304286    0.42275120004263556    0.3918601366778894    0.42275118528384914    
  0.4825478831485659    0.5154205196102944    0.5276085383148094    0.5449418939275814    0.5077858661519213    
  0.3315765197410563    0.1519521835229501    0.09600898198648301    0.28237018770470385    0.33157651480579675    
  0.43213969272138764    0.47419978936669077    0.44741106254565527    0.42234229917548965    0.42415217955760753    
  0.43222762205645304    0.4267176187499248    0.42026846676168467    0.4267175961029116    0.4322276153768885    
  0.4241521986331054    0.42234235550883203    0.44741104962615585    0.47419979681312274    0.4321396721872593    
  0.33157651731952226    0.28237018770470385    0.5130214499879419    0.5077857451464262    0.47419980671462325    
  0.4065833827196354    0.3433812419650691    0.3155320522785494    0.3249654457981506    0.3562699471196999    
  0.38636206341696466    0.39805788305620354    0.386361946866544    0.3562699632600892    0.3249654121499626    
  0.31553205273839957    0.34338127292781434    0.4065834592366905    0.47419973106699354    0.5077858049794308    
  0.5130214499879419    0.5853379663676548    0.5449418504028122    0.44741105845321    0.343381262121509    
  0.27237780388539073    0.24562871585620735    0.25728318342169515    0.2946692045067808    0.3353456989912873    
  0.35277048299503044    0.3353456692038315    0.2946691942996279    0.25728315899420995    0.24562877138977932    
  0.27237782325057114    0.3433812608556499    0.4474110511138501    0.5449418590648281    0.5853379663676548    
  0.57281835217655    0.5276085599370179    0.42234238658941725    0.3155320338267976    0.24562875962319403    
  0.2205217370462718    0.23333141589789383    0.27222935863000514    0.31504824955261146    0.33356477968018333    
  0.3150481926755912    0.27222931351322804    0.23333145506430172    0.22052174824994278    0.24562875913951976    
  0.31553205328468675    0.42234235688029204    0.527608537571951    0.57281835217655    0.5522063197819369    
  0.5154205792494158    0.4241522359214954    0.3249654256600778    0.25728315160404536    0.23333141276467914    
  0.24848544268825393    0.290411437774249    0.33605903209660143    0.35595943194853896    0.3360589954230327    
  0.2904114721188059    0.24848543165258793    0.23333144735718947    0.2572831828897126    0.3249654437687694    
  0.42415218458071857    0.5154205657782898    0.5522063197819369    0.49632200258864584    0.48254787710666613    
  0.4322276609746479    0.356269946943111    0.2946691795301314    0.2722292867492211    0.2904114454412755    
  0.33704945676057735    0.38763936196107146    0.4100706109424751    0.3876392976416579    0.3370494544632442    
  0.2904114660906962    0.2722293068492977    0.29466914674708694    0.35626994864696954    0.4322276100646934    
  0.4825479080670898    0.49632200258864584    0.4097685725780702    0.42275121657111814    0.4267176234155066    
  0.3863620296896267    0.33534562210522034    0.3150481860424419    0.3360589931376027    0.38763934133999545    
  0.4434026178824532    0.4682863726978524    0.4434025712270687    0.38763935165726593    0.3360589674675861    
  0.31504821591660276    0.33534561895799214    0.38636202667368197    0.4267175884481963    0.4227511632101571    
  0.4097685725780702    0.36818552684945133    0.39186016562234344    0.4202684737787436    0.39805786424831    
  0.35277045798471224    0.3335647671684841    0.3559594282760181    0.4100705937561365    0.46828638401087075    
  0.49415480412665025    0.468286372343706    0.4100706364884498    0.3559594541516659    0.333564816029183    
  0.35277044911004035    0.3980578727342011    0.4202684368147619    0.3918602179567227    0.36818552684945133    
  0.40976858257711213    0.42275115443878597    0.4267176210964861    0.38636202219702476    0.3353456220850322    
  0.31504819776410364    0.3360589786819921    0.3876393376592253    0.44340263676982444    0.46828633244498824    
  0.44340257357619856    0.38763936346420996    0.33605896838190025    0.3150481955889054    0.33534562414368596    
  0.38636203146686904    0.4267175793059428    0.42275119699888486    0.40976858257711213    0.49632197993009086    
  0.4825479406573464    0.43222764963178945    0.35626992969426335    0.2946691816623054    0.2722292986485825    
  0.29041145159250137    0.33704942577590974    0.38763937055721626    0.41007064022963957    0.3876393559059431    
  0.33704946334912383    0.29041143721750207    0.27222935322533576    0.294669153409162    0.35626995587581106    
  0.4322276106996676    0.4825479342220226    0.49632197993009086    0.5522063040763521    0.5154205141272328    
  0.4241522216076372    0.3249654368713244    0.2572831658542866    0.23333143363925113    0.24848543867858416    
  0.29041145615056935    0.3360590311381972    0.35595945604348417    0.3360589716161085    0.29041149212722944    
  0.24848540589027895    0.23333143981825494    0.25728320413761574    0.3249654930752471    0.42415216351371055    
  0.5154205542510336    0.5522063040763521    0.572818341428814    0.5276084738464951    0.4223423596387806    
  0.3155320431196307    0.24562877188220147    0.2205217035176882    0.23333145471285535    0.2722293316152661    
  0.31504823478749805    0.3335647937863524    0.31504819179132026    0.2722293324460382    0.2333314344291967    
  0.22052176240504548    0.24562874735930335    0.3155320473455078    0.42234235328746705    0.5276085203473817    
  0.572818341428814    0.585337972914301    0.5449419238446601    0.4474110359251264    0.3433812475131495    
  0.2723777903742494    0.24562875474091447    0.25728314547477776    0.29466917301457674    0.33534569319281937    
  0.3527704828546052    0.3353456315244061    0.2946691726137476    0.25728317422230784    0.24562876885721885    
  0.2723778405634817    0.34338126119056017    0.4474110258611961    0.5449418642856731    0.585337972914301    
  0.5130214681457216    0.5077858487177155    0.47419981488144497    0.40658337407458767    0.3433812647407205    
  0.31553200837142503    0.3249654243250275    0.3562699471855725    0.3863620396767147    0.3980578748677252    
  0.3863620267178118    0.35626995216941787    0.32496542085522817    0.3155320508348075    0.3433812700402914    
  0.4065833962022457    0.4741997043738232    0.5077858231900424    0.5130214681457216    0.28237022018428076    
  0.3315765195113923    0.43213967433767253    0.47419980061997064    0.4474110147876121    0.42234230161884095    
  0.4241521737454191    0.43222765356208814    0.42671761749305986    0.4202684397590062    0.4267175534961441    
  0.43222766748809655    0.42415219777564306    0.4223423345078104    0.44741102766109353    0.4741997774118488    
  0.4321396607686881    0.33157653560474776    0.28237022018428076    0.09600899028294757    0.15195221861869188    
  0.33157653841213713    0.5077857956337735    0.5449418845422299    0.5276084769183779    0.515420509606269    
  0.4825478546068153    0.4227511948980392    0.3918601960044645    0.42275117390626044    0.4825478907153543    
  0.5154205324954276    0.5276085455109717    0.5449418531720185    0.5077858025639719    0.33157651105533736    
  0.15195220455672803    0.09600899028294757    0.049636100827280406    0.09600900227222178    0.28237027980511026    
  0.5130215068390326    0.5853379952021266    0.5728183509012995    0.5522062965503878    0.4963219885457745    
  0.4097686416806154    0.3681855848141309    0.4097685871087921    0.49632203402774216    0.5522062667349324    
  0.5728183930155418    0.5853380472900864    0.5130215211014565    0.28237023696317615    0.09600900245171506    
  0.049636100827280406    0.09302587062564245    0.14593154818618126    0.31190363911634245    0.46564584313311025    
  0.4860912214602499    0.462340708159008    0.46348320668609866    0.4813540443063223    0.49197498530858885    
  0.4939648659374715    0.49197494248131873    0.48135406925257307    0.4634831811178142    0.4623407531465348    
  0.48609127575114747    0.4656457927269421    0.3119035911258998    0.14593158517387395    0.09302587062564245    
  0.1517226737634758    0.20801635698948912    0.3558300301448226    0.46212214905629156    0.4570983552624678    
  0.4291413081462352    0.43092904897219136    0.45254872960792675    0.4701577915297294    0.4759297716560857    
  0.47015773668947586    0.4525487238110306    0.43092905722009417    0.4291413238030679    0.4570983430706421    
  0.46212221548653304    0.35583004690272163    0.20801636943538787    0.1517226737634758    0.35022485696966826    
  0.38619405994713923    0.4437263162191487    0.438361782285468    0.3867911822715679    0.3521410024945708    
  0.35480316930622713    0.3820301881492517    0.41075122137925146    0.4226935009257476    0.4107511973467732    
  0.38203018457277343    0.35480317020741525    0.35214104242932787    0.38679114337650605    0.4383618006581357    
  0.44372626998186077    0.38619408271446876    0.35022485696966826    0.567076134008503    0.5482568943515412    
  0.48467839127584295    0.3911595713155825    0.3128901232647263    0.27592501270396985    0.27870120843160967    
  0.3074221345716481    0.34057787317104266    0.35503630747369175    0.3405777609201362    0.30742213814229846    
  0.2787011837614531    0.27592501233408506    0.3128901610565057    0.3911596248283124    0.484678351046515    
  0.5482569398716991    0.567076134008503    0.6416584840565298    0.592223969464442    0.4746687094185901    
  0.3513520125288192    0.26688479101063883    0.23061475591352487    0.23316395615832722    0.26117885749732256    
  0.2944560897085822    0.30906022453949    0.29445608630907355    0.2611788607639939    0.23316395766809642    
  0.23061479062015688    0.2668847774996799    0.3513520212105043    0.47466866801275776    0.5922240342512675    
  0.6416584840565298    0.639674293693989    0.5889186736886369    0.4692174820984905    0.3450572095443591    
  0.26086966927118926    0.2251015119224823    0.22806497497356779    0.25646632037664835    0.2901128148170384    
  0.3048523230056457    0.2901127556451874    0.25646631710155    0.22806500109496208    0.225101526905741    
  0.2608696595149688    0.3450572170708537    0.46921744695313167    0.5889186444486486    0.639674293693989    
  0.581654952360389    0.5543700481050508    0.4751719254583402    0.37308049152046174    0.2936867674518842    
  0.2579464821545974    0.2622035889904981    0.29288782017431747    0.32835425655525396    0.34393640414956156    
  0.32835423144952913    0.2928878414896489    0.26220357674865924    0.2579465258185887    0.2936868044839294    
  0.37308051668700815    0.4751718593361011    0.5543700678617729    0.581654952360389    0.40903289818159855    
  0.4300798455592976    0.44964765875592577    0.41351754488832093    0.35312697319746167    0.3193501365611828    
  0.3252318069464974    0.35847152709837043    0.3955876730466603    0.4118862513631829    0.39558761537169573    
  0.3584715332061656    0.3252318135688706    0.31935016710939856    0.35312696342665434    0.4135175203562372    
  0.44964761928824576    0.43007989323136775    0.40903289818159855    0.2244071976148723    0.27540556769597546    
  0.3861863811707199    0.43870649302521947    0.4113581208908315    0.3826249688519308    0.39000336805588226    
  0.42452460799822284    0.46087583581874225    0.4763966157643516    0.46087576895658944    0.42452465715100096    
  0.39000337243843514    0.38262502370360685    0.41135809087006586    0.43870648998996714    0.3861863663354026    
  0.2754055703941642    0.2244071976148723    0.1597011809777641    0.21426625009490388    0.3521181972226875    
  0.44475801551847755    0.4355429951910101    0.40988051207251    0.4180149997341051    0.4528533407476025    
  0.4880442808979893    0.5027135905984493    0.4880442780655285    0.4528533439535692    0.41801498072340965    
  0.4098805679243668    0.43554304110294495    0.4447579709924335    0.3521181410114006    0.21426626546404806    
  0.1597011809777641    0.22440719224514846    0.2754055615713369    0.3861863957608909    0.43870647940541013    
  0.4113580967775088    0.38262499343055756    0.39000334467285785    0.4245246626941185    0.4608758662871712    
  0.4763965829467399    0.4608758123061432    0.4245246679632508    0.3900033531078686    0.3826249917254856    
  0.4113580831890359    0.4387065533305922    0.3861863898572407    0.27540557609170696    0.22440719224514846    
  0.4090329003964074    0.43007986295522915    0.4496476748708363    0.4135175052358186    0.35312700974868044    
  0.31935010747288967    0.3252318036605196    0.35847149099165926    0.395587695532125    0.4118863151691602    
  0.3955876352295429    0.3584715134339503    0.32523180125638634    0.3193501864290316    0.3531269580383103    
  0.4135175256391198    0.44964761393436237    0.4300798989839867    0.4090329003964074    0.5816549623562751    
  0.5543700377033066    0.47517191838444284    0.37308047521558424    0.29368678852841135    0.2579465023969512    
  0.26220358489555257    0.29288782663589785    0.3283542411984924    0.3439364262824606    0.32835417333803657    
  0.29288783320835166    0.2622035462112797    0.2579465109148669    0.2936867991110298    0.3730805437351978    
  0.4751718428802882    0.5543701098153242    0.5816549623562751    0.6396743115365928    0.5889185893865273    
  0.46921748478154707    0.345057207694669    0.26086964266649604    0.22510148743937528    0.22806498178572773    
  0.2564663334946189    0.290112798840998    0.3048523127785959    0.2901127703554046    0.2564663083711184    
  0.2280649838925064    0.22510153907951178    0.2608696426805133    0.3450571850701026    0.4692174662764166    
  0.588918680577788    0.6396743115365928    0.6416584762096351    0.5922241066460787    0.474668682628357    
  0.35135196529775875    0.2668847938296976    0.23061475881933094    0.23316396870515035    0.26117886297421916    
  0.29445611083240514    0.3090602454449641    0.2944560851043019    0.26117885067719576    0.23316396789547278    
  0.23061479261395207    0.2668848091524123    0.3513520184694265    0.474668636142514    0.5922240187439076    
  0.6416584762096351    0.5670761168078833    0.5482569797274863    0.4846784067490075    0.3911595767791858    
  0.31289015879190357    0.275925001732817    0.2787012065160642    0.3074221317101623    0.34057787580800686    
  0.3550362917866743    0.3405778025566897    0.3074221393492551    0.2787011954304434    0.27592502494008103    
  0.3128901602079227    0.39115959887135293    0.4846782963528106    0.5482569341450483    0.5670761168078833    
  0.35022487974168903    0.38619404770194193    0.4437262972617367    0.4383617912327501    0.38679117727680634    
  0.35214100880433413    0.3548031762010946    0.38203020340204474    0.410751206368173    0.42269348194538325    
  0.41075119914951763    0.3820302046562317    0.3548031749133458    0.352141037607552    0.38679116444346523    
  0.43836177061521925    0.44372627514269125    0.38619404149136466    0.35022487974168903    0.15172263954490076    
  0.208016414646302    0.3558300440885828    0.46212215120993333    0.45709832279900087    0.4291412887325308    
  0.4309291078164696    0.4525486902272669    0.4701577796691135    0.475929832713793    0.4701577293176433    
  0.4525487307532216    0.43092908873099517    0.4291413398214163    0.45709837760661676    0.4621221545379188    
  0.35582997365945046    0.20801637970996753    0.15172263954490076    0.09302587062564245    0.14593154818618126    
  0.31190363911634245    0.46564584313311025    0.4860912214602499    0.462340708159008    0.46348320668609866    
  0.4813540443063223    0.49197498530858885    0.4939648659374715    0.49197494248131873    0.48135406925257307    
  0.4634831811178142    0.4623407531465348    0.48609127575114747    0.4656457927269421    0.3119035911258998    
  0.14593158517387395    0.09302587062564245    0.25921651375915605    0.3042815893942268    0.3927939217103626    
  0.42234486012853184    0.390172550145935    0.3661742073428383    0.3810747752876135    0.42662983230033613    
  0.4758712698858083    0.4976532661148351    0.47587120759023704    0.4266298313385378    0.38107475790067163    
  0.3661742226160962    0.39017253758348863    0.42234483722100935    0.39279387447709097    0.30428164465915053    
  0.25921651375915605    0.3190153935813377    0.3546637533425675    0.41325591537296996    0.41320986477641763    
  0.369856638587391    0.3438992062154381    0.3575144061695152    0.4010018309356398    0.4486077553960993    
  0.4697993993989977    0.4486077285289653    0.40100184435980457    0.3575144093928922    0.3438992666167624    
  0.3698566657113369    0.41320987568176804    0.41325590598507794    0.35466376918397746    0.3190153935813377    
  0.46360550290396635    0.46642336432967824    0.4467496754219036    0.38538291636177807    0.3216027399944141    
  0.2922016895021508    0.3033035992343116    0.3426092692422431    0.38631620080003143    0.405729025695722    
  0.38631613762998157    0.34260929499396675    0.3033035999056611    0.2922017245019157    0.32160271118267947    
  0.38538291725136986    0.4467496507445751    0.46642332824371346    0.46360550290396635    0.5773710314253201    
  0.5435371721137692    0.4543041855432041    0.3501831054825286    0.2745863205124211    0.24343968793367896    
  0.2519499183002686    0.2869958204550816    0.3264458570209797    0.34372403483806313    0.3264458245003293    
  0.28699578294044603    0.25194990304131304    0.2434396789424791    0.27458636439213574    0.35018318081821836    
  0.4543041023632568    0.5435372592755755    0.5773710314253201    0.6154667365960192    0.5662150465525488    
  0.45090474780496964    0.3326319117561329    0.2535754814892906    0.22167316355858224    0.22812533538908075    
  0.260190485875242    0.29699840201600586    0.31301564226397344    0.29699840557886714    0.26019048390391614    
  0.22812532082720677    0.2216732198263436    0.2535754719973477    0.3326319136361713    0.4509046742317802    
  0.5662150938755335    0.6154667365960192    0.6220765286705807    0.5763890560316446    0.4668519501368467    
  0.35077109461663336    0.2709350591546299    0.23771091140775896    0.24312886889878493    0.2741289217879119    
  0.3097745224828541    0.3252925249330227    0.30977452212383    0.27412889973381327    0.2431288920480154    
  0.23771093475854252    0.2709350518945828    0.35077112148378525    0.4668519206158253    0.5763890487657973    
  0.6220765286705807    0.5412996957224758    0.5304784356339427    0.4835626170624489    0.40265092864500496    
  0.3301658260244181    0.29583639280538376    0.3002706920870115    0.32928337384536094    0.36095422900481816    
  0.37431679741936    0.36095417750857534    0.3292833764224673    0.3002706639651212    0.29583642085862877    
  0.33016586128314823    0.4026509360360725    0.4835624935193123    0.530478420033451    0.5412996957224758    
  0.3046608794978187    0.3498818205161398    0.43569782999548545    0.45876855664515204    0.41945635228847533    
  0.38782810150346236    0.389230771727804    0.4086749061410721    0.42405618766170405    0.42875408476608584    
  0.4240561407467721    0.4086748970757393    0.3892307704704815    0.3878281308921671    0.41945629420052205    
  0.4587685552351886    0.4356977797304391    0.3498818484677403    0.3046608794978187    0.10985183217611871    
  0.1658899729774345    0.3346250874340389    0.4846853130128934    0.5032765677825279    0.4794962910444876    
  0.4752164660567289    0.4755663542442956    0.46156646432317144    0.4514834919672052    0.4615663704455608    
  0.47556634864892716    0.47521651913182145    0.4794963602725867    0.5032765663893036    0.484685305595702    
  0.3346250643664553    0.1658899656345675    0.10985183217611871    0.05937264216951359    0.10735496114834522    
  0.28580106179779974    0.4875848947800507    0.5378333020752135    0.5189957375903091    0.5111976445070647    
  0.5001434365887917    0.46986186354876    0.4519829810282748    0.46986181780479047    0.5001434435113818    
  0.5111975736116193    0.5189957721059151    0.5378332838520121    0.48758484479524195    0.28580101458512475    
  0.10735497735890392    0.05937264216951359    0.10985186342660354    0.16588995318856936    0.3346250864220793    
  0.48468531332872106    0.5032765984778894    0.47949631315537067    0.47521648788960946    0.47556635257844704    
  0.46156643538981595    0.4514834177362166    0.46156641107903856    0.47556635857510654    0.4752164997911537    
  0.4794963438086739    0.5032765821079533    0.48468534114807504    0.3346250792687217    0.16588995591033712    
  0.10985186342660354    0.3046608580516206    0.3498818182339431    0.435697838088514    0.45876854550063545    
  0.419456340359737    0.38782808881709885    0.3892307737873903    0.40867484832185735    0.42405622456647724    
  0.42875413205747587    0.42405618191448907    0.40867488153596604    0.38923075915739797    0.38782815337848714    
  0.4194563107564282    0.4587685715526913    0.43569776299128105    0.34988186683218325    0.3046608580516206    
  0.5412996665240107    0.5304784052900228    0.4835625713959793    0.4026509045911843    0.33016583651115616    
  0.29583640263684247    0.3002706981354919    0.3292833463845667    0.3609542170524896    0.37431678362113063    
  0.36095417367838256    0.3292833483788265    0.30027066632197397    0.29583642143651456    0.3301658575949251    
  0.4026509746689115    0.48356253736946453    0.5304784258053267    0.5412996665240107    0.622076533414785    
  0.576388964843232    0.46685194155278864    0.3507711116424903    0.27093505892247194    0.23771090293822472    
  0.243128877177274    0.27412894529145937    0.30977454059111936    0.325292525429584    0.3097745132004612    
  0.27412891810146733    0.2431288807914965    0.23771094605561954    0.27093503938555186    0.35077112467297555    
  0.46685194534183366    0.5763890235105217    0.622076533414785    0.6154667032582303    0.5662151301275249    
  0.4509046918431266    0.33263187918642495    0.25357547640744316    0.22167318627572136    0.22812535622123084    
  0.2601904695138382    0.296998399295456    0.3130156621967288    0.2969983800562877    0.26019047049812094    
  0.22812534459135775    0.22167321052061154    0.2535754863300956    0.3326319271991005    0.4509046525275724    
  0.5662150825366409    0.6154667032582303    0.5773710423958875    0.5435372533848283    0.45430420284143513    
  0.3501831143013549    0.2745863476318884    0.24343965704954057    0.2519499243688938    0.2869958075958387    
  0.32644585012125965    0.34372405003418244    0.326445820407518    0.28699580417869575    0.25194991707368447    
  0.24343969680112443    0.27458634268939147    0.3501831270332876    0.4543040831621774    0.5435372727008894    
  0.5773710423958875    0.46360552081488926    0.4664233353910388    0.4467496321638095    0.38538293035416504    
  0.3216027194457433    0.2922016806769123    0.30330361396881944    0.3426093305091786    0.38631616899359433    
  0.4057290101832916    0.38631613626217287    0.34260932310467446    0.30330359950315017    0.2922016968354844    
  0.3216027040113394    0.3853829070727798    0.44674961642981625    0.46642332854378643    0.46360552081488926    
  0.3190153830368265    0.3546638272424069    0.4132558824597017    0.4132098751171644    0.36985662970472594    
  0.3438992335033578    0.35751442199512773    0.40100181176475436    0.4486077546098316    0.4697994514154972    
  0.4486077245561763    0.40100183852520316    0.35751443252254705    0.34389924741825306    0.36985665598370593    
  0.4132098608113258    0.4132558379767747    0.35466377683730604    0.3190153830368265    0.25921651375915605    
  0.3042815893942268    0.3927939217103626    0.42234486012853184    0.390172550145935    0.3661742073428383    
  0.3810747752876135    0.42662983230033613    0.4758712698858083    0.4976532661148351    0.47587120759023704    
  0.4266298313385378    0.38107475790067163    0.3661742226160962    0.39017253758348863    0.42234483722100935    
  0.39279387447709097    0.30428164465915053    0.25921651375915605    0.4519817742336528    0.45148462622341456    
  0.4287530360654281    0.3743178373758693    0.32529153282248474    0.3130165820156392    0.3437230223709018    
  0.4057301127285588    0.4697982873111947    0.4976544891741179    0.46979824275358767    0.4057301175464255    
  0.3437230111332189    0.31301662344402026    0.3252915242724359    0.37431782499810723    0.4287529705072702    
  0.45148467039226037    0.4519817742336528    0.46986299670271836    0.4615652313584621    0.4240572880397061    
  0.36095320400942094    0.3097754650954632    0.2969974313081025    0.3264467953348723    0.38631509968633315    
  0.448608893100155    0.47587002597252553    0.44860886256636    0.38631509132653336    0.3264467993181478    
  0.29699748168806167    0.30977548114707015    0.3609532159608901    0.42405729723070623    0.4615652471246764    
  0.46986299670271836    0.5001421757143294    0.47556752191702756    0.4086738137578239    0.3292843422482824    
  0.27412800248238    0.2601913445303436    0.28699484715540646    0.342610285688859    0.4010007998535165    
  0.4266309402090921    0.40100073951471293    0.34261031002465064    0.28699483849131685    0.260191366959701    
  0.2741279877201097    0.32928432956710185    0.40867379690329625    0.4755675282698028    0.5001421757143294    
  0.5111988384429952    0.4752152852479651    0.3892318816585026    0.3002697121708225    0.24312974319202954    
  0.22812449472757237    0.25195079979523655    0.30330267658118865    0.3575154968954321    0.38107371032907883    
  0.3575154205806488    0.30330267571939884    0.251950780536577    0.228124482681302    0.24312975430358    
  0.30026977797882726    0.38923179592114787    0.47521532220626556    0.5111988384429952    0.5189944879299152    
  0.4794974870518645    0.38782709729637427    0.29583736298046065    0.2377100587357214    0.22167400210750776    
  0.243438805298676    0.29220267288544616    0.34389821918382596    0.36617526355751323    0.34389820885185785    
  0.29220268184231196    0.24343881071342124    0.22167405799547502    0.237710056947119    0.2958373644946829    
  0.387827047950951    0.4794975536995026    0.5189944879299152    0.5378344985286074    0.5032754233412663    
  0.4194574535752724    0.33016481478357335    0.2709359692892302    0.25357457981936027    0.2745872397125563    
  0.3216017689920333    0.3698577098074933    0.39017149113871524    0.36985764658242004    0.3216017386449402    
  0.2745872777838261    0.2535746121322118    0.2709359670618984    0.3301648512496832    0.41945744184319345    
  0.5032753818623124    0.5378344985286074    0.48758367327025987    0.48468648714843526    0.4587674750652583    
  0.4026519980634466    0.3507700789749094    0.3326328721613452    0.350182124576417    0.385383964532439    
  0.4132087884902862    0.4223459748128803    0.41320871110759544    0.38538399498987996    0.3501820951113691    
  0.3326329185352892    0.3507701204074594    0.40265200549154984    0.45876736624432707    0.4846864524525276    
  0.48758367327025987    0.2858019708587454    0.33462404523917266    0.4356989257655743    0.4835614204654738    
  0.4668530939041522    0.4509035231975927    0.45430528328560116    0.4467485434055938    0.41325695682896013    
  0.392792794442092    0.4132569517686367    0.44674854852008306    0.45430527812930116    0.4509035626530055    
  0.46685305790961573    0.48356138927775427    0.4356988880208394    0.3346240700080738    0.2858019708587454    
  0.10735428968024599    0.16589074564431505    0.3498808343587742    0.5304796392479844    0.5763877277113827    
  0.5662163182632809    0.5435359838162914    0.4664244970564177    0.35466277214509945    0.30428260306117566    
  0.35466271520998255    0.46642450435915717    0.5435360404634789    0.566216374003165    0.5763877052736268    
  0.5304796441463138    0.3498807959036477    0.16589073300972998    0.10735428968024599    0.05937315378673167    
  0.10985120173294823    0.3046618998118995    0.5412985019698271    0.6220778847381366    0.6154654128191064    
  0.5773723336128191    0.46360441222165205    0.3190164210137032    0.25921561860400405    0.3190163773415986    
  0.46360440581866585    0.5773723051292916    0.6154655014501473    0.622077877739272    0.5412984481852912    
  0.30466183580157    0.10985121384936222    0.05937315378673167    0.10735430704374395    0.16589072578461395    