#     DFTpy    
  CRYSTAL 
    
  PRIMVEC    
  5.838344827586207    0.0    0.0    
  0.0    5.838344827586207    0.0    
  0.0    0.0    3.216551724137931    
  PRIMCOORD    
  4    1    
  Si    0.0    0.0    0.0    
  Si    2.9191724137931034    2.9191724137931034    1.6082758620689654    
  Si    0.0    2.9191724137931034    0.8041379310344827    
  Si    2.9191724137931034    0.0    2.4124137931034477    
  BEGIN_BLOCK_DATAGRID_3D    
  3d_datagrid_density    
  BEGIN_DATAGRID_3D#0    
  25    25    15    
  0.0    0.0    0.0    
  5.838344827586207    0.0    0.0    
  0.0    5.838344827586207    0.0    
  0.0    0.0    3.216551724137931    
  0.060857041659784755    0.1114192965696609    0.27563428571211374    0.3752565734811395    0.29516107068290415    
  0.19504308169607137    0.1452845761642382    0.1399742031345609    0.17125124995561483    0.2325914406023179    
  0.3022605419705292    0.3484441218133269    0.361604207236579    0.34844407611782224    0.30226050528354625    
  0.23259145144003776    0.17125125036289834    0.13997416116089892    0.1452846072113113    0.19504305357767543    
  0.2951610259707574    0.37525656189466    0.2756342915738976    0.1114193095809721    0.060857041659784755    
  0.11141930355431888    0.168606886525599    0.31514395354398045    0.3689853956667371    0.27784292032982216    
  0.1836342991624826    0.1378223783820987    0.13308809972705027    0.162071492894145    0.21916955022499296    
  0.2860338883718182    0.333712841791602    0.34877547126184716    0.33371286498227754    0.2860338959798499    
  0.2191695723392878    0.16207148670099478    0.13308808877797468    0.13782238399895752    0.18363429410549592    
  0.27784293580956365    0.36898541878729063    0.3151438746131617    0.16860690378978563    0.11141930355431888    
  0.27563428328569395    0.3151439020915891    0.36973344207541226    0.3305998461079005    0.23171423204095412    
  0.15490174191371847    0.11867671423944387    0.11504270090416104    0.13821005719577556    0.18401391603738745    
  0.24034231835529146    0.285529779699989    0.3020126853401131    0.2855297740044697    0.24034230765222636    
  0.18401397627329638    0.13821006156678475    0.11504269913587589    0.11867673415212919    0.1549017233978153    
  0.23171427734033243    0.33059990506583653    0.3697333842335992    0.31514390926571967    0.27563428328569395    
  0.37525659456852195    0.368985384687687    0.33059989085906694    0.2530517913444299    0.1737001820353173    
  0.12044293924591845    0.09532783589799901    0.09278571837493477    0.10896071640324405    0.1405374968517137    
  0.18002398538149236    0.21365486243301396    0.22684367805494238    0.21365480923825092    0.1800239793831546    
  0.14053751070330164    0.10896068746815085    0.09278570051391967    0.09532783443955112    0.12044293373976869    
  0.17370020772572123    0.25305181485331085    0.33059983237391904    0.368985408792111    0.37525659456852195    
  0.295161075422878    0.2778429261233065    0.23171427180971924    0.17370020370418154    0.12354086129992228    
  0.09066007687820335    0.07475806194049657    0.07304116451398202    0.0830939611910547    0.10239162009200764    
  0.12623810286978893    0.14653959821036935    0.15457325429966914    0.1465396099400793    0.12623807408325938    
  0.10239165992720772    0.08309396370644505    0.07304114835651744    0.07475806117434852    0.09066005518745654    
  0.12354086532164393    0.17370019219962962    0.23171422975845302    0.2778429221226148    0.295161075422878    
  0.19504308707022144    0.18363427135236204    0.1549017246444237    0.12044294707840839    0.09066006748026473    
  0.07058701464495609    0.060484035671633116    0.05905715765392333    0.06483271367197785    0.07607768724837534    
  0.08973137826588659    0.10103116271179398    0.10543498436740191    0.10103117220116943    0.08973136029683798    
  0.076077725192714    0.06483270733797879    0.059057149113697506    0.060484052669654696    0.07058700126136329    
  0.09066007129180197    0.12044296007449608    0.15490170501006503    0.18363431756141035    0.19504308707022144    
  0.14528458774199235    0.1378223899876326    0.11867672591539637    0.09532783898840351    0.07475806833605604    
  0.06048403507680366    0.052962816281177896    0.05140086364660793    0.05478163962371927    0.06180652485879402    
  0.07023292060083562    0.07706365712429344    0.07970248997507806    0.07706363455388493    0.07023290594271543    
  0.06180654183438928    0.054781639747017434    0.05140084954473237    0.05296281654687493    0.06048404316234091    
  0.07475807422337086    0.09532783768650954    0.11867672955923518    0.13782239776131688    0.14528458774199235    
  0.13997417095492196    0.13308810632624749    0.11504270899773615    0.09278570860475398    0.07304115703323691    
  0.059057160563592094    0.05140084251157294    0.04930886724604933    0.05165646099722766    0.05713948770215941    
  0.0638079455081793    0.0692266554946953    0.07131944932852093    0.06922664480986822    0.06380793897582099    
  0.057139506128185774    0.05165646061470696    0.049308868404778584    0.0514008408767787    0.05905715186917346    
  0.07304116893598495    0.09278569681422583    0.11504266607912551    0.1330880911891241    0.13997417095492196    
  0.17125121794851833    0.1620714707429956    0.13821006584481713    0.10896069102808083    0.08309396637388743    
  0.06483271501796865    0.054781630689332415    0.051656460705774405    0.053795445685814576    0.05959270348378692    
  0.06690885533625841    0.07300509823606885    0.07539344984998315    0.07300510744779    0.06690883306573135    
  0.05959272744096472    0.05379543165305675    0.051656463523738726    0.0547816398729285    0.06483272124865372    
  0.08309397473109903    0.1089606930844752    0.13821005028255468    0.16207149591405487    0.17125121794851833    
  0.2325915331783806    0.2191695072827585    0.18401396152314964    0.1405375060542101    0.10239165160909934    
  0.07607767613685652    0.061806544509021656    0.05713950753811413    0.05959270364150109    0.06703579188929502    
  0.07671329428017806    0.08500413695207208    0.08830619921477458    0.0850041106830542    0.076713291091073    
  0.06703580790627425    0.05959272017273592    0.05713949682234746    0.06180654943309409    0.07607768058286431    
  0.10239165470093284    0.14053749987216838    0.18401391620077806    0.21916953568814285    0.2325915331783806    
  0.30226050707424723    0.28603394135006294    0.24034234362406914    0.18002399272296227    0.12623810958316456    
  0.08973137994607887    0.07023290154984188    0.06380795697966474    0.06690884923837065    0.07671325410034678    
  0.08970823671414206    0.10104661850201488    0.10561570947076009    0.10104662845156548    0.08970822969697219    
  0.07671327780001382    0.0669088487212168    0.06380795420256496    0.07023290359109423    0.08973137001321917    
  0.12623811577505847    0.1800239783945474    0.2403422699968164    0.286033908456269    0.30226050707424723    
  0.3484440791121473    0.33371286995798255    0.285529760194855    0.2136548177764081    0.14653962339533325    
  0.10103117539530426    0.07706364386315315    0.06922664903783296    0.07300511123945432    0.08500411233571466    
  0.10104662378054578    0.11512635794156638    0.12077077574948732    0.11512636281365338    0.10104661459863648    
  0.08500415708020753    0.07300509957307377    0.06922665644899487    0.07706365020163626    0.10103116875865321    
  0.14653964407639988    0.2136548333850793    0.28552978893987097    0.3337129033203534    0.3484440791121473    
  0.361604161606573    0.3487755217549193    0.3020126824651832    0.2268436989808287    0.1545732374011797    
  0.10543497721068922    0.07970247324449439    0.07131945643870875    0.07539346141633073    0.08830616810910702    
  0.10561570744158605    0.12077076100049224    0.1268070133790111    0.12077075072936999    0.1056156583061656    
  0.0883061594699515    0.07539343937258064    0.07131946310175434    0.0797024884013479    0.10543497132451324    
  0.15457326758743134    0.22684368164744947    0.30201265914884584    0.3487755124093837    0.361604161606573    
  0.3484440940788623    0.33371285751094915    0.2855298283361447    0.21365480513397048    0.14653961782493613    
  0.10103117636113587    0.07706366422618181    0.06922664749745774    0.07300510606199687    0.08500412258805787    
  0.1010466093896148    0.11512639692790737    0.12077072993858043    0.11512635653921029    0.10104661029367977    
  0.08500413665391049    0.07300510471286342    0.06922664247028959    0.07706365497413008    0.10103115348555601    
  0.14653963391732114    0.2136548140165705    0.2855297538226571    0.3337129020165327    0.3484440940788623    
  0.3022605086318153    0.28603389530268797    0.24034231077115972    0.1800239857333839    0.12623806890945238    
  0.08973136433106665    0.07023290028632764    0.06380795185094856    0.06690885074813709    0.07671326918284525    
  0.0897082371401701    0.10104662120712564    0.10561572118350146    0.1010466258509719    0.08970824799837321    
  0.07671329059417266    0.06690884161606024    0.06380795561679893    0.0702329013208547    0.08973136239687023    
  0.12623809920954016    0.18002400185414388    0.24034228897257143    0.2860339032716515    0.3022605086318153    
  0.23259147658462934    0.21916954312170323    0.1840139503865964    0.14053749456022563    0.10239165619114926    
  0.07607769597184738    0.06180654226726176    0.05713949835091945    0.059592708122673754    0.06703581395450593    
  0.07671329063322481    0.085004140988434    0.08830618033864218    0.0850041331380973    0.07671327263976002    
  0.06703580252192531    0.059592715596350966    0.057139508807028914    0.0618065477928682    0.07607768930149042    
  0.10239168176122584    0.1405375196574496    0.1840139341172917    0.21916953403350115    0.23259147658462934    
  0.1712512293007185    0.16207149451614267    0.1382100802288836    0.1089606699303947    0.0830939648603757    
  0.06483273433033075    0.05478163160292623    0.051656481332298    0.053795448819440296    0.05959268584940866    
  0.06690885227191411    0.0730051002304465    0.07539344559652414    0.07300510745909486    0.06690884186441329    
  0.05959270326485523    0.05379544327478411    0.051656463549478705    0.054781628814145736    0.06483271443998481    
  0.08309396885076582    0.10896068117502551    0.13821004568517725    0.16207149520289885    0.1712512293007185    
  0.13997417269475776    0.1330880811283715    0.11504270834781197    0.09278570737936287    0.07304114944031384    
  0.05905715712910318    0.05140084556480369    0.0493088598178653    0.051656460198730526    0.057139494024539515    
  0.06380795481729988    0.06922665225281957    0.0713194547243574    0.0692266521703592    0.06380793688197937    
  0.0571395123072207    0.051656460282511134    0.0493088534868378    0.05140085298565859    0.059057146506229    
  0.07304115281608453    0.09278569989110803    0.1150426963943222    0.13308810110312697    0.13997417269475776    
  0.14528459679453462    0.1378223841605386    0.11867671830750641    0.09532782190881835    0.07475806819516352    
  0.06048404371284366    0.05296281584780765    0.0514008573442695    0.054781640549257354    0.06180653071406186    
  0.07023290889006696    0.07706365790121396    0.07970248785883526    0.07706364287520666    0.07023289417528206    
  0.06180654250745001    0.054781646939375164    0.051400845208401665    0.052962823187478615    0.060484044268791025    
  0.07475807474850625    0.09532784032939087    0.1186767307769137    0.13782240287447975    0.14528459679453462    
  0.19504307602904095    0.18363431077505743    0.15490173989082287    0.12044295216314645    0.09066005690099663    
  0.07058700213246617    0.06048404830513382    0.059057160577392846    0.06483271789268222    0.07607769394640927    
  0.08973136801703128    0.10103117390446502    0.10543496861537473    0.10103116776137233    0.08973137747071584    
  0.07607769617171381    0.06483272173834925    0.05905716552098731    0.060484040955806076    0.07058700511234238    
  0.09066007446171233    0.12044293478126758    0.15490170267459905    0.1836343124058074    0.19504307602904095    
  0.29516105574282603    0.27784290769739656    0.2317142265509624    0.17370018946529658    0.12354084971057162    
  0.09066007568422509    0.07475806935225024    0.07304114621025753    0.08309394663137379    0.10239164192404535    
  0.12623810899415835    0.14653957929819586    0.1545732475401308    0.14653959506005254    0.12623809009825784    
  0.1023916805638834    0.08309395186361308    0.07304114462664094    0.07475807733048652    0.09066006645649702    
  0.12354087552696254    0.17370020606883738    0.2317142307695297    0.27784290840311243    0.29516105574282603    
  0.3752565969930391    0.3689854068099473    0.3305998789396677    0.2530518144824103    0.17370019182815086    
  0.12044293482613548    0.09532783057048648    0.09278570758371266    0.10896070570043358    0.140537501440061    
  0.18002399850744916    0.21365484183763941    0.22684370653303848    0.21365480827000144    0.1800240005563001    
  0.14053749786041916    0.10896070830907627    0.09278572337172353    0.0953278407175411    0.12044294798325612    
  0.1737001950083137    0.25305181820859995    0.33059987751595715    0.3689854299471976    0.3752565969930391    
  0.27563429561507136    0.31514390466946296    0.3697334138831422    0.33059983211659416    0.2317142408894793    
  0.1549017232311519    0.11867671363948396    0.11504269967901606    0.13821009282107063    0.18401391272487905    
  0.24034228293445398    0.2855298060278447    0.30201267434991685    0.2855298049023285    0.24034231376236026    
  0.184013931985613    0.13821005845918466    0.11504269560519717    0.11867672718528194    0.1549017202951987    
  0.2317142946275307    0.3305998383478932    0.3697334025753416    0.31514391863144864    0.27563429561507136    
  0.1114192833913313    0.16860687133252614    0.3151438581694184    0.36898537621226085    0.27784289798355993    
  0.18363432868264004    0.1378223886914419    0.133088096461952    0.1620714834032907    0.21916953584531518    
  0.2860338703838482    0.33371287320678894    0.34877546220513145    0.3337128488209468    0.28603389078529246    
  0.21916959560114616    0.16207147969872304    0.1330880756321745    0.13782239834076176    0.18363427617451247    
  0.2778429738478489    0.36898542432597914    0.31514386033139513    0.16860691984397586    0.1114192833913313    
  0.060857041659784755    0.1114192965696609    0.27563428571211374    0.3752565734811395    0.29516107068290415    
  0.19504308169607137    0.1452845761642382    0.1399742031345609    0.17125124995561483    0.2325914406023179    
  0.3022605419705292    0.3484441218133269    0.361604207236579    0.34844407611782224    0.30226050528354625    
  0.23259145144003776    0.17125125036289834    0.13997416116089892    0.1452846072113113    0.19504305357767543    
  0.2951610259707574    0.37525656189466    0.2756342915738976    0.1114193095809721    0.060857041659784755    
  0.10559400515306362    0.16260403723911226    0.31196850728987746    0.3692163589711174    0.2760242726067747    
  0.1772588587413466    0.12547219748878    0.11165465129435133    0.12532147388165338    0.16021268356568671    
  0.20625301305555693    0.24588191486494437    0.26121402576685115    0.24588190444577337    0.2062529457610628    
  0.1602126777839976    0.12532146292358085    0.11165462312677582    0.12547223654885328    0.17725884261853508    
  0.27602425098546113    0.36921630568607716    0.3119685224084867    0.1626040437754176    0.10559400515306362    
  0.16250674566542056    0.2193791266337815    0.34151613615638565    0.3592209700149909    0.25982052018409013    
  0.16731970463401527    0.11951679166341649    0.10680593111372413    0.11953033244890758    0.1518440794583944    
  0.19454993105945798    0.23156814695687664    0.2460036432401923    0.23156813318175437    0.19454993698602524    
  0.1518440963728863    0.11953034400461866    0.10680592165455678    0.11951678488240493    0.16731970190123088    
  0.25982056963803796    0.35922101222184805    0.3415160476581577    0.21937917345976707    0.16250674566542056    
  0.31193453776620067    0.34152861737870227    0.37099184724166956    0.3159665574297073    0.2170154958623308    
  0.1422292814659149    0.10426410645522405    0.09413685848754115    0.1044490984274562    0.13028662341105093    
  0.16433758806370366    0.19408776640030456    0.20585726722030348    0.1940877586570793    0.16433757214382297    
  0.1302866656977646    0.1044491145248163    0.09413684287033111    0.10426412529817473    0.1422292721011895    
  0.2170155243081947    0.31596662166415196    0.37099178508651126    0.3415286137899659    0.31193453776620067    
  0.37243847521247986    0.36217014533231806    0.318223536016545    0.24068768174874783    0.16405200126423325    
  0.11211153766234325    0.08559308622339994    0.0784094290948467    0.08576854409699258    0.1038676971412728    
  0.12738250737350934    0.1478248461085664    0.15594729294888354    0.1478248061151804    0.12738250554416292    
  0.10386772777594692    0.08576852905840325    0.07840940865578326    0.08559309322517668    0.11211154426094415    
  0.16405197358025508    0.24068768686607203    0.31822351422532974    0.362170167083046    0.37243847521247986    
  0.2861639788046117    0.26904473147337926    0.22402330700593237    0.16786444815650353    0.11900750312862247    
  0.08626465806937592    0.06910737002590754    0.06435189861188984    0.06908335180033068    0.08062917214031153    
  0.0953524861457736    0.10790083763878254    0.11284580265734775    0.10790082907459012    0.09535245415154317    
  0.08062920019433113    0.06908334546095532    0.06435189044418324    0.069107369134728    0.08626465021861408    
  0.11900752013690961    0.16786444705743558    0.22402328395554177    0.26904469147016946    0.2861639788046117    
  0.1967658620284949    0.18517456065635612    0.1559465615199156    0.12087825117274259    0.09037373294875048    
  0.06935294983345805    0.057968723046253404    0.054610655118069014    0.05749470135563626    0.06477561719591814    
  0.0738902801438972    0.0814699248552805    0.08443781769988418    0.08146992320445834    0.07389027017569798    
  0.06477564282647029    0.05749469386340229    0.05461065236284854    0.05796873681288286    0.06935294195398561    
  0.09037373304212518    0.12087827235205319    0.15594656040650576    0.18517460219549117    0.1967658620284949    
  0.1588600179910188    0.15028981764343505    0.12837041533436383    0.1018117201745183    0.07846984901172109    
  0.0620670559092421    0.052937864204151495    0.04997298149662761    0.05182262944050623    0.057024502331740216    
  0.06348431884172641    0.0687931894552656    0.07088113540513387    0.06879317581968868    0.0634843100171359    
  0.057024509594525805    0.05182262707535229    0.04997297122205266    0.05293786407282665    0.06206706416916784    
  0.07846986237363353    0.10181174672326217    0.12837040641605074    0.15028982493815382    0.1588600179910188    
  0.1691359440113628    0.1599153659445181    0.1360995028755593    0.10714436456627505    0.08173776615848379    
  0.06383040361162716    0.05374639658973896    0.050207807355380336    0.05165331183934388    0.05652151423836074    
  0.06275606843203096    0.06792160947492824    0.06994161801552357    0.06792159837109565    0.06275606951265661    
  0.05652153527022774    0.05165330826877191    0.050207808010927696    0.05374639577762679    0.06383038815178953    
  0.08173778241494492    0.1071443529571945    0.1360994473927759    0.15991535647532704    0.1691359440113628    
  0.2250029653738297    0.21177998275655804    0.17752120952463432    0.13566681921992832    0.09914499625017023    
  0.07384547467368152    0.059797791607651384    0.05471794986161076    0.05621950663955278    0.06220072777244244    
  0.0701859044760742    0.07696582263012536    0.0796167864300026    0.07696582356662918    0.07018589960611006    
  0.06220075752395328    0.05621948992412951    0.054717946312055496    0.059797800507869286    0.07384546302307607    
  0.0991450093391686    0.13566684512705665    0.17752120514980216    0.21178000560352972    0.2250029653738297    
  0.3120532097883478    0.2952675787792111    0.24788522306382169    0.18511183578840004    0.1289253741389102    
  0.09067726958898639    0.0699401483440548    0.06243578734261451    0.06434942776061536    0.07266753249010383    
  0.08401593023294128    0.09388055846434648    0.09778726678365646    0.09388053103151482    0.08401593409480396    
  0.07266753160899281    0.06434941585238638    0.062435788303310334    0.06994016857941497    0.09067726626039185    
  0.12892537275187396    0.1851118268322266    0.2478851868167942    0.29526757229910494    0.3120532097883478    
  0.37043557426422913    0.36221950878614106    0.32119289899371745    0.24368789764514462    0.16502579423648914    
  0.11065204041783751    0.08167000606182691    0.07129239056170654    0.07380498777131352    0.08509198551540186    
  0.1006998429507766    0.11455622125634903    0.12011818980711858    0.11455620732890973    0.10069984542383674    
  0.08509200763918365    0.07380497238503687    0.0712923808440015    0.08167001696611381    0.11065202919882788    
  0.16502580693589539    0.2436879060917537    0.3211928099015172    0.36221952120601725    0.37043557426422913    
  0.35687512606037647    0.3691047572171075    0.36180921926743576    0.28949047681296225    0.19537063697256749    
  0.12724035426884958    0.09121055039375785    0.07845009052869029    0.08148933042446971    0.09534123480425874    
  0.11471339578644398    0.13206067593245474    0.13903123916709767    0.1320606919287627    0.11471337960363415    
  0.09534127677639848    0.08148932397003417    0.07845009970228557    0.09121055404807882    0.1272403408028197    
  0.19537062108375175    0.2894904761291107    0.36180924363259304    0.3691047664992011    0.35687512606037647    
  0.33473689801250944    0.35713819230770305    0.3702262715707231    0.3059472556862949    0.20724595782983685    
  0.13373935961906444    0.09492703968094286    0.08122680112721814    0.08448338493430133    0.09937860839912172    
  0.1202838027818967    0.13900093105171954    0.14649274628944678    0.13900092455732785    0.12028377760069511    
  0.09937859483096383    0.08448337547224752    0.08122679267344315    0.09492706354986523    0.13373935375047866    
  0.2072460267333025    0.30594721210180176    0.37022625184048535    0.3571382092349546    0.33473689801250944    
  0.35687519970206916    0.36910476570910944    0.3618092896509389    0.28949042774169437    0.19537060817350105    
  0.12724036700991323    0.09121055023842049    0.07845009656484733    0.08148932485425658    0.09534127004071051    
  0.11471340572188289    0.1320606979862785    0.13903117546489435    0.13206069369802248    0.11471338204915091    
  0.0953412535188031    0.08148933935457109    0.07845008752877349    0.09121055369939492    0.12724032607868113    
  0.19537062794727802    0.2894904365016367    0.36180921023535195    0.3691047747548352    0.35687519970206916    
  0.3704355967279338    0.36221948666321435    0.32119288081642633    0.24368791199137646    0.16502579026319183    
  0.11065203754131492    0.08166999134228697    0.0712923846652339    0.07380500493852829    0.08509201881443942    
  0.10069987006597231    0.11455620543793896    0.12011821916976234    0.11455619043760136    0.10069986293582567    
  0.08509204119528568    0.07380498884669456    0.07129238517828532    0.0816700210805341    0.11065202733360635    
  0.16502580070191866    0.24368795133745225    0.3211928507124916    0.3622195033336395    0.3704355967279338    
  0.3120531450158452    0.2952675865228353    0.2478852852570601    0.18511178665472094    0.12892537029130757    
  0.09067728175579359    0.06994015602232556    0.06243579368867346    0.06434942388715274    0.07266752912915879    
  0.08401591259216885    0.09388055217062968    0.0977872583210883    0.0938805529843039    0.08401590765088585    
  0.07266751689453552    0.06434941321887234    0.062435782067839354    0.06994015813223403    0.09067728467147589    
  0.12892539875707787    0.18511183415316182    0.2478852164462668    0.2952675826829142    0.3120531450158452    
  0.22500298543721564    0.2117800052388852    0.17752120623813472    0.13566679571498164    0.09914500394445931    
  0.07384547709863126    0.059797787158258946    0.054717964116572114    0.056219504284014926    0.06220071201459863    
  0.07018590599917764    0.07696582258950417    0.07961677295927926    0.07696582664730305    0.07018587559184122    
  0.06220074403301055    0.056219505312048126    0.05471794983994324    0.0597977927960007    0.0738454690648722    
  0.09914501059381893    0.1356668202175642    0.17752119180643824    0.2117800043669833    0.22500298543721564    
  0.16913597003021869    0.15991534069179406    0.13609948467885222    0.10714436623507004    0.08173776767444568    
  0.0638303911143349    0.05374639259464725    0.05020779626644004    0.05165330814192075    0.05652151952132595    
  0.06275606698939895    0.0679215936047618    0.06994164083921409    0.06792160102296596    0.06275605537218622    
  0.05652154155435546    0.05165331148527916    0.05020779970048315    0.05374640447670009    0.06383039295776889    
  0.08173776730264079    0.10714437035962976    0.13609945983066887    0.15991535162904583    0.16913597003021869    
  0.15885999536032863    0.1502898314937162    0.1283704170410744    0.1018117234050312    0.078469858303866    
  0.06206705108164932    0.05293787072994076    0.04997298853096838    0.051822628190914564    0.05702450121740646    
  0.06348432386761056    0.06879319159403958    0.07088113950953631    0.06879317437773552    0.06348430252874701    
  0.057024508156073815    0.05182262402408428    0.04997296550568273    0.05293787020774289    0.06206705697052115    
  0.07846986320347196    0.10181172676359039    0.12837042540811922    0.15028985257059807    0.15885999536032863    
  0.19676585569269375    0.18517459547651818    0.15594659987645604    0.12087824268201319    0.09037372420126447    
  0.06935294254919709    0.05796873448704409    0.05461066806734744    0.057494700621805825    0.06477561817561825    
  0.07389028201115452    0.08146993421999642    0.0844378012592545    0.08146994170832776    0.07389028098866264    
  0.06477562238308376    0.05749470089161454    0.054610663277252953    0.05796872623227442    0.06935294301442507    
  0.09037374617126238    0.12087823331830654    0.15594654849998285    0.1851746057974838    0.19676585569269375    
  0.2861639640160478    0.2690447178924495    0.22402330736871995    0.16786445912794698    0.11900750118130528    
  0.08626465901872722    0.06910737880403636    0.06435188529884227    0.06908333525818096    0.08062918882845006    
  0.09535248019443028    0.10790079841506026    0.11284581316798104    0.107900806235185    0.09535248150465875    
  0.08062923567850605    0.06908333399019057    0.06435188138299391    0.0691073868402353    0.0862646455603198    
  0.1190075176132832    0.16786445382640086    0.22402328053686651    0.2690447268115929    0.2861639640160478    
  0.37243847312410094    0.36217014099305306    0.3182235516805352    0.2406877388864577    0.16405198110258357    
  0.11211154017401408    0.08559308914184119    0.07840942802192795    0.08576853067741182    0.103867728493787    
  0.1273825348578197    0.14782485291004055    0.15594729286576303    0.14782482028287067    0.12738250345611482    
  0.10386770772733674    0.08576853850405551    0.07840941085143455    0.08559309772747259    0.11211154613495544    
  0.16405197499343324    0.24068769397109202    0.3182235291721446    0.36217017007448093    0.37243847312410094    
  0.3119345365737214    0.3415286315516361    0.3709918537505613    0.3159666009423152    0.2170155205168568    
  0.14222927697571452    0.10426410217169771    0.09413684859746858    0.10444913330295266    0.1302866184909759    
  0.16433756559472354    0.19408776570688266    0.20585723783008894    0.19408777548836897    0.1643375806190828    
  0.13028661725192345    0.10444912354955618    0.09413684767039394    0.1042641195793828    0.14222926299917507    
  0.21701554112026938    0.3159665559893505    0.3709917601594435    0.34152865741286353    0.3119345365737214    
  0.16250671942834422    0.2193791503917159    0.3415160549343198    0.3592209866421512    0.2598205417824797    
  0.1673197331997606    0.11951678734046756    0.10680591664666395    0.1195303219520053    0.15184405821353045    
  0.19454992246064823    0.23156815187312854    0.24600363686448126    0.23156815848303083    0.1945499499307601    
  0.15184412100383593    0.11953032700816166    0.106805924089776    0.11951680108087519    0.1673197046647881    
  0.2598205490760265    0.3592210377754175    0.3415160204543714    0.21937917520619402    0.16250671942834422    
  0.10559400515306362    0.16260403723911226    0.31196850728987746    0.3692163589711174    0.2760242726067747    
  0.1772588587413466    0.12547219748878    0.11165465129435133    0.12532147388165338    0.16021268356568671    
  0.20625301305555693    0.24588191486494437    0.26121402576685115    0.24588190444577337    0.2062529457610628    
  0.1602126777839976    0.12532146292358085    0.11165462312677582    0.12547223654885328    0.17725884261853508    
  0.27602425098546113    0.36921630568607716    0.3119685224084867    0.1626040437754176    0.10559400515306362    
  0.25545171182621684    0.30010360598268154    0.3688698283232025    0.33717483954319216    0.23361787368789272    