#     DFTpy    
  CRYSTAL 
    
  PRIMVEC    
  4.3455862068965505    0.0    0.0    
  0.0    4.3455862068965505    0.0    
  0.0    0.0    2.3941379310344804    
  PRIMCOORD    
  4    1    
  Si    0.0    0.0    0.0    
  Si    2.1727931034482806    2.1727931034482806    1.1970689655172402    
  Si    0.0    2.1727931034482806    0.5985344827586201    
  Si    2.1727931034482806    0.0    1.7956034482758603    
  BEGIN_BLOCK_DATAGRID_3D    
  3d_datagrid_density    
  BEGIN_DATAGRID_3D#0    
  46    46    25    
  0.0    0.0    0.0    
  4.34558622310567    0.0    0.0    
  0.0    4.34558622310567    0.0    
  0.0    0.0    2.3941379399646605    
  0.04762991559545366    0.05465232635143582    0.07830019687280221    0.12471256919976494    0.19814236127962934    
  0.2932542236980427    0.3924240128290033    0.47378276267508906    0.5241020619301083    0.5444427914168638    
  0.5452139849761808    0.5378156950495634    0.5298051723959648    0.5242871715127118    0.5209485310299259    
  0.5170871975170228    0.5088097196036301    0.49291304337117814    0.46889763526991796    0.4397512765934855    
  0.41086880103073986    0.3879713673793141    0.37540570254131755    0.3754057025413176    0.38797136737931404    
  0.41086880103073986    0.4397512765934855    0.46889763526991796    0.4929130433711781    0.5088097196036301    
  0.5170871975170228    0.5209485310299259    0.5242871715127118    0.5298051723959648    0.5378156950495634    
  0.5452139849761808    0.5444427914168638    0.5241020619301083    0.47378276267508906    0.39242401282900335    
  0.2932542236980427    0.19814236127962928    0.12471256919976494    0.07830019687280225    0.05465232635143585    
  0.04762991559545366    0.05465232635143585    0.06207509351015635    0.08674893021196674    0.1342158901320528    
  0.2077543562082791    0.30121071643833064    0.39702904296444824    0.4743702495753391    0.5212233814972225    
  0.5392668405579323    0.5388281138952917    0.5309228440366403    0.5227830947945121    0.5173663372872661    
  0.5143589039825638    0.5111414511687222    0.5039153513742027    0.48949600029614404    0.4672562780137351    
  0.4399254691520582    0.4126124341605491    0.3908323719446172    0.3788373127008685    0.3788373127008687    
  0.3908323719446172    0.4126124341605491    0.4399254691520583    0.4672562780137351    0.489496000296144    
  0.5039153513742027    0.5111414511687223    0.5143589039825638    0.517366337287266    0.522783094794512    
  0.5309228440366403    0.5388281138952917    0.5392668405579323    0.5212233814972225    0.4743702495753391    
  0.3970290429644483    0.30121071643833064    0.20775435620827906    0.1342158901320528    0.0867489302119668    
  0.06207509351015635    0.05465232635143585    0.07830019687280215    0.08674893021196677    0.11392578919941901    
  0.16356004331939267    0.2362429069241667    0.3238520269733452    0.40941190730203925    0.47512092154389    
  0.5122462675232738    0.5239739923716511    0.5202620747231738    0.5110102830173804    0.5025457960350076    
  0.497419333013438    0.4953109931050314    0.49382846745845865    0.4894491723900905    0.4790721828577322    
  0.46175612036813535    0.4395348591670904    0.4167076715928089    0.39816772042320925    0.38784499079881213    
  0.38784499079881213    0.3981677204232091    0.4167076715928089    0.4395348591670904    0.46175612036813535    
  0.4790721828577321    0.4894491723900906    0.49382846745845876    0.4953109931050314    0.497419333013438    
  0.5025457960350076    0.5110102830173804    0.5202620747231738    0.5239739923716511    0.5122462675232738    
  0.47512092154389    0.4094119073020393    0.3238520269733452    0.2362429069241667    0.16356004331939264    
  0.11392578919941901    0.0867489302119668    0.07830019687280215    0.12471256919976496    0.13421589013205273    
  0.16356004331939264    0.21365045462393722    0.2815226563184157    0.3571963198715938    0.42554321578031384    
  0.4734476432089138    0.4964804011575724    0.4993943157843376    0.49124807299385426    0.480235637519201    
  0.47139615166370796    0.4667079071850114    0.4658286952967133    0.46668095741920057    0.46616543019652745    
  0.46138159357063435    0.45104452397757405    0.43626100427433895    0.4201439662185787    0.4065728346528989    
  0.3988613824476895    0.3988613824476896    0.40657283465289884    0.4201439662185787    0.43626100427433895    
  0.45104452397757405    0.4613815935706343    0.46616543019652745    0.46668095741920057    0.4658286952967133    
  0.4667079071850114    0.47139615166370796    0.4802356375192011    0.49124807299385426    0.4993943157843376    
  0.4964804011575724    0.4734476432089138    0.42554321578031384    0.3571963198715938    0.2815226563184156    
  0.2136504546239372    0.16356004331939258    0.13421589013205276    0.12471256919976496    0.1981423612796292    
  0.20775435620827906    0.2362429069241667    0.2815226563184156    0.33766086143164586    0.3943150926500881    
  0.43979829214512284    0.4663972306407228    0.4736709417314201    0.46718606050671185    0.454488957714147    
  0.4417570712703821    0.432626793011635    0.42845792875873284    0.42886232880422165    0.4320929955875104    
  0.43555263749935563    0.4366681633456125    0.4339221482109493    0.42750166677882906    0.4191843544370962    
  0.41156251194937826    0.4070440359107188    0.40704403591071897    0.4115625119493782    0.41918435443709606    
  0.42750166677882906    0.4339221482109493    0.4366681633456125    0.43555263749935563    0.4320929955875104    
  0.42886232880422165    0.42845792875873284    0.432626793011635    0.4417570712703821    0.454488957714147    
  0.46718606050671185    0.47367094173142005    0.4663972306407228    0.43979829214512295    0.3943150926500881    
  0.3376608614316459    0.2815226563184156    0.2362429069241667    0.20775435620827906    0.1981423612796292    
  0.29325422369804266    0.3012107164383306    0.32385202697334503    0.3571963198715938    0.394315092650088    
  0.42660896436253676    0.4468377060902261    0.45213566894485746    0.444709031295519    0.42987976482823587    
  0.4133013088765767    0.3991873950107431    0.3899074065095029    0.38625905423917317    0.3877868872058633    
  0.39303158328297455    0.3998888106570673    0.40618141833741833    0.4103136680142713    0.4117313751293626    
  0.41097088826684763    0.40928271827697815    0.4080138603078257    0.4080138603078257    0.409282718276978    
  0.41097088826684763    0.4117313751293626    0.4103136680142713    0.4061814183374183    0.3998888106570673    
  0.39303158328297455    0.3877868872058633    0.3862590542391733    0.38990740650950295    0.3991873950107431    
  0.4133013088765767    0.42987976482823587    0.444709031295519    0.45213566894485746    0.4468377060902262    
  0.42660896436253676    0.394315092650088    0.3571963198715938    0.32385202697334514    0.30121071643833064    
  0.29325422369804266    0.3924240128290033    0.39702904296444824    0.40941190730203914    0.42554321578031384    
  0.43979829214512295    0.4468377060902262    0.44371350993635433    0.43092866999336366    0.4117682142080055    
  0.3905579635529217    0.3711124045241678    0.3560425393675914    0.3467350845321207    0.3435374137681399    
  0.34591889932781283    0.35264064076887347    0.36201151983815644    0.3722258352852925    0.3817117595097283    
  0.38940461136061183    0.39486321106055355    0.3981769562235621    0.39969327677541977    0.3996932767754198    
  0.398176956223562    0.39486321106055344    0.3894046113606119    0.3817117595097283    0.37222583528529235    
  0.3620115198381565    0.35264064076887347    0.34591889932781283    0.3435374137681399    0.3467350845321207    
  0.3560425393675914    0.3711124045241679    0.3905579635529217    0.4117682142080055    0.43092866999336366    
  0.44371350993635444    0.4468377060902261    0.43979829214512295    0.42554321578031384    0.4094119073020392    
  0.39702904296444824    0.3924240128290033    0.47378276267508895    0.4743702495753392    0.47512092154389    
  0.4734476432089138    0.4663972306407228    0.45213566894485746    0.43092866999336366    0.40504808050301383    
  0.3777790572828668    0.3522875268501749    0.3309686925731311    0.3153244071129125    0.3060652449686829    
  0.3032084586299532    0.30615985064248374    0.3138424537022465    0.3248701183702051    0.33771465049733923    
  0.350848447120304    0.36288612562251155    0.37272214214541083    0.37960935807933494    0.38313643959434296    
  0.38313643959434307    0.3796093580793348    0.37272214214541083    0.3628861256225116    0.350848447120304    
  0.3377146504973392    0.3248701183702051    0.3138424537022465    0.30615985064248374    0.30320845862995327    
  0.3060652449686829    0.3153244071129125    0.33096869257313116    0.3522875268501749    0.3777790572828668    
  0.4050480805030139    0.43092866999336377    0.45213566894485746    0.4663972306407228    0.4734476432089138    
  0.47512092154389    0.4743702495753392    0.47378276267508895    0.5241020619301083    0.5212233814972225    
  0.5122462675232738    0.4964804011575724    0.4736709417314201    0.4447090312955191    0.4117682142080055    
  0.3777790572828668    0.3456324733076975    0.3176087759117511    0.29521932041985255    0.2793006230507542    
  0.2701329221636964    0.2675077729155546    0.2707947919113627    0.27904117998385697    0.2910661708062238    
  0.3055087964490066    0.32085629725630865    0.3355232722044145    0.34800551748486974    0.35705414503355715    
  0.3617986165967914    0.3617986165967914    0.35705414503355704    0.34800551748486974    0.3355232722044145    
  0.32085629725630865    0.3055087964490065    0.2910661708062238    0.27904117998385697    0.2707947919113627    
  0.26750777291555466    0.2701329221636964    0.2793006230507542    0.29521932041985255    0.31760877591175113    
  0.3456324733076975    0.3777790572828668    0.4117682142080056    0.4447090312955191    0.4736709417314201    
  0.4964804011575724    0.512246267523274    0.5212233814972225    0.5241020619301083    0.5444427914168638    
  0.5392668405579325    0.523973992371651    0.49939431578433763    0.46718606050671196    0.429879764828236    
  0.39055796355292177    0.3522875268501749    0.31760877591175113    0.2883032853270852    0.26542824279000155    
  0.2494589786488652    0.24041427733755444    0.2379453941199664    0.241416172838219    0.2499711678259592    
  0.2625576624220713    0.27789598617052075    0.2944567132559469    0.3105259255047522    0.324382935179878    
  0.33453002520979286    0.3398840172483575    0.33988401724835754    0.33453002520979275    0.324382935179878    
  0.3105259255047522    0.2944567132559469    0.27789598617052075    0.26255766242207124    0.2499711678259592    
  0.241416172838219    0.23794539411996654    0.24041427733755438    0.24945897864886526    0.26542824279000155    
  0.28830328532708516    0.31760877591175113    0.3522875268501749    0.3905579635529218    0.429879764828236    
  0.46718606050671196    0.49939431578433763    0.523973992371651    0.5392668405579325    0.5444427914168638    
  0.5452139849761808    0.5388281138952915    0.5202620747231738    0.49124807299385426    0.4544889577141469    
  0.4133013088765768    0.3711124045241678    0.330968692573131    0.2952193204198525    0.2654282427900015    
  0.24245125810027257    0.22657923281912154    0.21768409763332622    0.21534444855123203    0.2189370190657193    
  0.22767353232943188    0.24057093591659545    0.2563803981065996    0.2735464341156893    0.2902763771233646    
  0.3047425032970372    0.31534785400552406    0.32094463878525253    0.32094463878525253    0.31534785400552406    
  0.3047425032970372    0.2902763771233647    0.2735464341156893    0.25638039810659957    0.2405709359165955    
  0.22767353232943188    0.2189370190657193    0.21534444855123208    0.2176840976333262    0.22657923281912154    
  0.24245125810027257    0.2654282427900015    0.29521932041985255    0.330968692573131    0.3711124045241678    
  0.41330130887657673    0.454488957714147    0.49124807299385426    0.5202620747231738    0.5388281138952915    
  0.5452139849761808    0.5378156950495633    0.5309228440366403    0.5110102830173805    0.480235637519201    
  0.4417570712703821    0.3991873950107432    0.3560425393675913    0.31532440711291254    0.2793006230507542    
  0.24945897864886515    0.22657923281912157    0.21087215152462024    0.20214481436537582    0.19994915530314272    
  0.20367449969300946    0.21256393164416204    0.2256611108314339    0.24172488283133237    0.2591822972865231    
  0.27620049602895597    0.29090474349691825    0.30166788507920844    0.3073390018817452    0.3073390018817452    
  0.30166788507920844    0.2909047434969183    0.2762004960289561    0.2591822972865231    0.2417248828313323    
  0.22566111083143395    0.212563931644162    0.20367449969300946    0.19994915530314286    0.20214481436537582    
  0.2108721515246202    0.22657923281912154    0.24945897864886515    0.2793006230507542    0.3153244071129125    
  0.3560425393675914    0.3991873950107432    0.441757071270382    0.480235637519201    0.5110102830173805    
  0.5309228440366403    0.5378156950495633    0.5298051723959648    0.5227830947945121    0.5025457960350075    
  0.47139615166370796    0.43262679301163504    0.38990740650950295    0.3467350845321207    0.3060652449686828    
  0.27013292216369633    0.24041427733755433    0.21768409763332613    0.2021448143653757    0.19359401561573755    
  0.19157808850215025    0.19548505126075824    0.20455870092644532    0.21784446060732834    0.23410190962846206    
  0.251751956687916    0.26894476475389295    0.28378431764260864    0.29463187386892276    0.30034057213594545    
  0.30034057213594545    0.29463187386892276    0.28378431764260864    0.26894476475389295    0.251751956687916    
  0.23410190962846203    0.21784446060732834    0.20455870092644532    0.19548505126075824    0.19157808850215027    
  0.19359401561573752    0.2021448143653757    0.21768409763332613    0.24041427733755433    0.27013292216369633    
  0.30606524496868287    0.34673508453212076    0.389907406509503    0.432626793011635    0.47139615166370796    
  0.5025457960350076    0.5227830947945121    0.5298051723959648    0.5242871715127115    0.517366337287266    
  0.497419333013438    0.4667079071850114    0.42845792875873284    0.3862590542391733    0.3435374137681399    
  0.30320845862995327    0.2675077729155546    0.2379453941199664    0.21534444855123208    0.19994915530314283    
  0.1915780885021503    0.18977580497700425    0.19391559633289163    0.20322806391474718    0.216755087015465    
  0.23325866859931815    0.25115761330995334    0.26858862699822217    0.28363347547310885    0.29463093976606985    
  0.30041831415683495    0.30041831415683495    0.2946309397660698    0.2836334754731089    0.26858862699822217    
  0.25115761330995334    0.23325866859931807    0.21675508701546503    0.20322806391474715    0.1939155963328916    
  0.18977580497700433    0.19157808850215027    0.19994915530314278    0.21534444855123208    0.2379453941199664    
  0.2675077729155546    0.30320845862995327    0.34353741376813995    0.3862590542391733    0.42845792875873284    
  0.4667079071850114    0.4974193330134381    0.5173663372872661    0.5242871715127115    0.5209485310299259    
  0.5143589039825638    0.4953109931050313    0.4658286952967133    0.42886232880422165    0.3877868872058633    
  0.34591889932781283    0.3061598506424837    0.27079479191136263    0.241416172838219    0.21893701906571938    
  0.2036744996930094    0.19548505126075835    0.1939155963328916    0.19832493532952464    0.20793467015895928    
  0.2217906750157008    0.238661390934334    0.25695927168599164    0.27479540637016264    0.2902102689394554    
  0.3014939003679343    0.3074383693472023    0.3074383693472023    0.3014939003679342    0.2902102689394554    
  0.2747954063701627    0.25695927168599164    0.23866139093433397    0.2217906750157008    0.20793467015895928    
  0.19832493532952464    0.19391559633289168    0.19548505126075832    0.20367449969300946    0.21893701906571938    
  0.241416172838219    0.2707947919113627    0.30615985064248374    0.3459188993278129    0.3877868872058633    
  0.42886232880422165    0.4658286952967133    0.4953109931050313    0.5143589039825638    0.5209485310299259    
  0.5170871975170228    0.5111414511687224    0.4938284674584589    0.4666809574192007    0.4320929955875105    
  0.3930315832829746    0.35264064076887347    0.3138424537022465    0.27904117998385697    0.24997116782595918    
  0.22767353232943188    0.21256393164416204    0.2045587009264454    0.20322806391474715    0.20793467015895928    
  0.21790503580618428    0.23219679481109073    0.24958452971384204    0.2684648182851395    0.2869048079454129    
  0.30287831495142775    0.31459747323602283    0.32078208019216836    0.3207820801921685    0.3145974732360228    
  0.3028783149514278    0.28690480794541295    0.2684648182851395    0.24958452971384198    0.23219679481109073    
  0.21790503580618428    0.20793467015895928    0.2032280639147473    0.20455870092644532    0.21256393164416204    
  0.22767353232943188    0.24997116782595918    0.27904117998385697    0.31384245370224656    0.35264064076887347    
  0.3930315832829746    0.4320929955875104    0.4666809574192007    0.4938284674584589    0.5111414511687224    
  0.5170871975170228    0.5088097196036301    0.5039153513742027    0.4894491723900905    0.46616543019652745    
  0.4355526374993555    0.39988881065706733    0.36201151983815644    0.32487011837020513    0.29106617080622377    
  0.26255766242207124    0.24057093591659554    0.2256611108314339    0.21784446060732843    0.2167550870154649    
  0.2217906750157008    0.23219679481109065    0.24704193791950868    0.2650980396162244    0.284733339845256    
  0.3039544387629819    0.32064736239856206    0.33292415168483813    0.339414651070095    0.339414651070095    
  0.3329241516848381    0.32064736239856206    0.30395443876298195    0.284733339845256    0.2650980396162244    
  0.24704193791950857    0.23219679481109065    0.2217906750157008    0.216755087015465    0.21784446060732837    
  0.2256611108314339    0.24057093591659554    0.26255766242207124    0.29106617080622377    0.32487011837020513    
  0.3620115198381565    0.39988881065706733    0.4355526374993555    0.46616543019652745    0.4894491723900906    
  0.5039153513742027    0.5088097196036301    0.4929130433711781    0.489496000296144    0.4790721828577321    
  0.4613815935706343    0.4366681633456124    0.40618141833741833    0.3722258352852924    0.33771465049733923    
  0.3055087964490065    0.27789598617052075    0.25638039810659957    0.2417248828313323    0.23410190962846203    
  0.23325866859931801    0.23866139093433386    0.24958452971384198    0.2650980396162243    0.2839553248015293    
  0.30448267101448584    0.32461478100130337    0.34213803102407336    0.3550528395139805    0.36189112198495915    
  0.3618911219849592    0.35505283951398037    0.34213803102407336    0.32461478100130337    0.30448267101448584    
  0.28395532480152924    0.2650980396162243    0.24958452971384198    0.23866139093433386    0.23325866859931815    
  0.23410190962846192    0.2417248828313323    0.25638039810659957    0.27789598617052075    0.3055087964490065    
  0.33771465049733923    0.3722258352852924    0.4061814183374183    0.4366681633456125    0.4613815935706343    
  0.4790721828577322    0.489496000296144    0.4929130433711781    0.46889763526991785    0.4672562780137352    
  0.46175612036813535    0.45104452397757405    0.4339221482109495    0.41031366801427144    0.3817117595097283    
  0.35084844712030405    0.3208562972563087    0.2944567132559469    0.2735464341156894    0.2591822972865232    
  0.25175195668791617    0.25115761330995345    0.25695927168599164    0.2684648182851395    0.28473333984525606    
  0.30448267101448595    0.32598577764497233    0.3471010797264104    0.3655132446889029    0.379108060556395    
  0.3863161383443618    0.3863161383443619    0.37910806055639495    0.365513244688903    0.34710107972641047    
  0.3259857776449724    0.30448267101448595    0.28473333984525606    0.2684648182851395    0.25695927168599164    
  0.25115761330995356    0.2517519566879161    0.25918229728652314    0.2735464341156894    0.2944567132559469    
  0.3208562972563087    0.35084844712030405    0.38171175950972835    0.41031366801427144    0.4339221482109494    
  0.45104452397757405    0.46175612036813546    0.4672562780137352    0.46889763526991785    0.4397512765934855    
  0.43992546915205843    0.4395348591670905    0.43626100427433884    0.42750166677882906    0.4117313751293626    
  0.38940461136061183    0.36288612562251166    0.3355232722044146    0.3105259255047522    0.29027637712336474    
  0.2762004960289561    0.2689447647538931    0.2685886269982222    0.27479540637016264    0.2869048079454129    
  0.303954438762982    0.32461478100130337    0.3471010797264104    0.3691999655768803    0.38850155326909064    
  0.40277979494402666    0.4103612504646602    0.41036125046466027    0.40277979494402644    0.38850155326909064    
  0.3691999655768804    0.3471010797264104    0.32461478100130325    0.30395443876298195    0.2869048079454129    
  0.27479540637016264    0.2685886269982223    0.26894476475389306    0.27620049602895613    0.2902763771233648    
  0.3105259255047522    0.3355232722044146    0.36288612562251166    0.38940461136061183    0.4117313751293626    
  0.42750166677882917    0.43626100427433895    0.43953485916709056    0.4399254691520582    0.4397512765934855    
  0.41086880103073975    0.41261243416054916    0.41670767159280886    0.4201439662185787    0.41918435443709606    
  0.41097088826684763    0.39486321106055344    0.37272214214541083    0.34800551748486974    0.3243829351798779    
  0.3047425032970373    0.29090474349691814    0.2837843176426087    0.28363347547310885    0.29021026893945545    
  0.30287831495142775    0.32064736239856206    0.3421380310240734    0.36551324468890284    0.3885015532690906    
  0.40861438534091565    0.42352376519008617    0.4314536015786229    0.4314536015786229    0.42352376519008617    
  0.4086143853409156    0.3885015532690906    0.36551324468890284    0.3421380310240734    0.320647362398562    
  0.30287831495142775    0.29021026893945545    0.2836334754731088    0.28378431764260864    0.2909047434969182    
  0.30474250329703734    0.3243829351798779    0.34800551748486974    0.3727221421454107    0.39486321106055344    
  0.41097088826684774    0.41918435443709606    0.4201439662185787    0.4167076715928089    0.41261243416054916    
  0.41086880103073975    0.3879713673793141    0.3908323719446172    0.39816772042320914    0.40657283465289884    
  0.41156251194937826    0.40928271827697815    0.39817695622356203    0.37960935807933494    0.35705414503355715    
  0.33453002520979286    0.31534785400552406    0.30166788507920844    0.29463187386892287    0.29463093976606974    
  0.3014939003679343    0.3145974732360227    0.33292415168483813    0.3550528395139805    0.379108060556395    
  0.40277979494402655    0.42352376519008617    0.43893155903163533    0.44713971254502327    0.44713971254502327    
  0.43893155903163533    0.42352376519008617    0.40277979494402666    0.379108060556395    0.3550528395139805    
  0.3329241516848381    0.3145974732360228    0.3014939003679342    0.2946309397660698    0.29463187386892276    
  0.3016678850792085    0.31534785400552406    0.3345300252097929    0.35705414503355715    0.37960935807933494    
  0.39817695622356203    0.40928271827697815    0.4115625119493783    0.4065728346528989    0.3981677204232092    
  0.3908323719446172    0.3879713673793141    0.3754057025413174    0.3788373127008686    0.3878449907988121    
  0.3988613824476895    0.40704403591071886    0.40801386030782577    0.3996932767754198    0.38313643959434296    
  0.3617986165967913    0.3398840172483574    0.32094463878525253    0.30733900188174507    0.3003405721359455    
  0.3004183141568349    0.3074383693472023    0.32078208019216825    0.3394146510700951    0.36189112198495915    
  0.3863161383443618    0.4103612504646602    0.4314536015786228    0.44713971254502327    0.4555046191591758    
  0.4555046191591759    0.44713971254502316    0.4314536015786229    0.41036125046466015    0.3863161383443618    
  0.36189112198495915    0.33941465107009505    0.3207820801921684    0.3074383693472023    0.30041831415683495    
  0.30034057213594545    0.3073390018817452    0.3209446387852526    0.3398840172483574    0.3617986165967913    
  0.38313643959434296    0.3996932767754198    0.4080138603078257    0.4070440359107188    0.3988613824476895    
  0.3878449907988122    0.3788373127008686    0.3754057025413174    0.37540570254131744    0.37883731270086857    
  0.3878449907988122    0.3988613824476895    0.40704403591071886    0.4080138603078258    0.3996932767754198    
  0.38313643959434296    0.36179861659679136    0.33988401724835743    0.32094463878525253    0.3073390018817451    
  0.30034057213594545    0.3004183141568349    0.3074383693472023    0.32078208019216825    0.33941465107009505    
  0.36189112198495915    0.3863161383443618    0.4103612504646601    0.4314536015786228    0.4471397125450233    
  0.4555046191591758    0.4555046191591758    0.44713971254502327    0.4314536015786228    0.4103612504646602    
  0.3863161383443618    0.36189112198495915    0.33941465107009505    0.32078208019216836    0.3074383693472023    
  0.30041831415683495    0.3003405721359454    0.30733900188174507    0.3209446387852526    0.3398840172483575    
  0.3617986165967913    0.38313643959434296    0.3996932767754198    0.4080138603078258    0.40704403591071886    
  0.3988613824476895    0.3878449907988122    0.3788373127008685    0.37540570254131744    0.38797136737931404    
  0.39083237194461723    0.39816772042320914    0.40657283465289895    0.4115625119493784    0.40928271827697815    
  0.398176956223562    0.37960935807933494    0.35705414503355715    0.3345300252097928    0.3153478540055242    
  0.3016678850792084    0.2946318738689228    0.2946309397660698    0.3014939003679342    0.3145974732360227    
  0.33292415168483813    0.3550528395139805    0.37910806055639495    0.4027797949440266    0.42352376519008617    
  0.43893155903163533    0.4471397125450233    0.4471397125450233    0.43893155903163533    0.42352376519008617    
  0.40277979494402666    0.37910806055639495    0.3550528395139805    0.3329241516848381    0.3145974732360227    
  0.3014939003679342    0.2946309397660698    0.29463187386892276    0.30166788507920844    0.31534785400552406    
  0.33453002520979286    0.35705414503355704    0.37960935807933494    0.3981769562235621    0.40928271827697815    
  0.4115625119493784    0.40657283465289895    0.3981677204232092    0.3908323719446172    0.38797136737931404    
  0.41086880103073986    0.4126124341605491    0.4167076715928089    0.4201439662185787    0.4191843544370961    
  0.41097088826684763    0.39486321106055344    0.37272214214541083    0.34800551748486974    0.3243829351798779    
  0.30474250329703734    0.29090474349691814    0.2837843176426087    0.28363347547310885    0.2902102689394554    
  0.30287831495142775    0.32064736239856206    0.3421380310240735    0.3655132446889029    0.3885015532690906    
  0.4086143853409156    0.42352376519008617    0.4314536015786228    0.4314536015786229    0.42352376519008617    
  0.4086143853409156    0.38850155326909064    0.3655132446889029    0.3421380310240734    0.32064736239856206    
  0.30287831495142775    0.2902102689394554    0.2836334754731089    0.28378431764260864    0.29090474349691814    
  0.30474250329703734    0.32438293517987793    0.34800551748486974    0.37272214214541083    0.39486321106055344    
  0.41097088826684774    0.41918435443709606    0.4201439662185787    0.41670767159280897    0.4126124341605491    
  0.41086880103073986    0.4397512765934855    0.4399254691520583    0.4395348591670904    0.43626100427433895    
  0.42750166677882906    0.4117313751293626    0.38940461136061183    0.36288612562251166    0.3355232722044146    
  0.3105259255047522    0.2902763771233647    0.276200496028956    0.26894476475389306    0.26858862699822217    
  0.27479540637016264    0.2869048079454129    0.303954438762982    0.3246147810013033    0.34710107972641036    
  0.36919996557688034    0.3885015532690906    0.4027797949440266    0.4103612504646602    0.41036125046466027    
  0.40277979494402655    0.38850155326909064    0.3691999655768804    0.34710107972641036    0.3246147810013033    
  0.303954438762982    0.2869048079454129    0.27479540637016264    0.26858862699822217    0.268944764753893    
  0.2762004960289561    0.2902763771233647    0.3105259255047522    0.3355232722044146    0.36288612562251166    
  0.38940461136061183    0.4117313751293626    0.42750166677882906    0.43626100427433895    0.4395348591670905    
  0.4399254691520582    0.4397512765934855    0.46889763526991785    0.4672562780137352    0.46175612036813535    
  0.45104452397757405    0.4339221482109495    0.41031366801427144    0.3817117595097283    0.35084844712030405    
  0.3208562972563087    0.2944567132559469    0.2735464341156894    0.25918229728652314    0.25175195668791617    
  0.25115761330995345    0.25695927168599164    0.2684648182851395    0.28473333984525606    0.30448267101448595    
  0.3259857776449724    0.3471010797264104    0.36551324468890295    0.379108060556395    0.3863161383443618    
  0.3863161383443619    0.37910806055639495    0.365513244688903    0.34710107972641047    0.3259857776449724    
  0.30448267101448595    0.28473333984525606    0.2684648182851395    0.25695927168599164    0.2511576133099535    