#     DFTpy    
  CRYSTAL 
    
  PRIMVEC    
  4.4451034482758605    0.0    0.0    
  0.0    4.4451034482758605    0.0    
  0.0    0.0    2.4489655172413807    
  PRIMCOORD    
  4    1    
  Si    0.0    0.0    0.0    
  Si    2.2225517241379302    2.2225517241379302    1.2244827586206903    
  Si    0.0    2.2225517241379302    0.6122413793103402    
  Si    2.2225517241379302    0.0    1.8367241379310302    
  BEGIN_BLOCK_DATAGRID_3D    
  3d_datagrid_density    
  BEGIN_DATAGRID_3D#0    
  46    46    25    
  0.0    0.0    0.0    
  4.445103464856182    0.0    0.0    
  0.0    4.445103464856182    0.0    
  0.0    0.0    2.4489655263760683    
  0.04779929788351325    0.055073057402345464    0.07959044922869231    0.12756084938260331    0.20252802075724594    
  0.297258311053958    0.39213194927701334    0.4651705074934518    0.5053802931085835    0.516669365027783    
  0.5110974845350906    0.5002675391717716    0.4912564246472337    0.4866648680806177    0.48587103219757466    
  0.48602193264990595    0.48305980459978737    0.47335618104061006    0.4556113486937163    0.4318755500176475    
  0.4069143275549857    0.3863594761385302    0.37483181467629634    0.37483181467629634    0.3863594761385302    
  0.40691432755498574    0.4318755500176474    0.4556113486937163    0.47335618104061006    0.48305980459978726    
  0.48602193264990595    0.48587103219757466    0.4866648680806177    0.4912564246472337    0.5002675391717717    
  0.5110974845350905    0.516669365027783    0.5053802931085833    0.4651705074934518    0.39213194927701334    
  0.29725831105395806    0.20252802075724588    0.12756084938260331    0.07959044922869228    0.055073057402345485    
  0.04779929788351325    0.05507305740234537    0.06277205036741206    0.08836306349484695    0.1373767111301145    
  0.21229090017859148    0.30506882861271223    0.39632605389168024    0.4652898580488197    0.5021968943830124    
  0.5114384842933786    0.5048567326810225    0.493618186326997    0.4844867063444368    0.4799406430290982    
  0.4793712372111017    0.4800167379280567    0.4779324422517464    0.4695406899381248    0.4534489869338905    
  0.43146742450210596    0.4080677205060751    0.38864928694596373    0.3777101107916974    0.3777101107916975    
  0.3886492869459638    0.4080677205060752    0.43146742450210585    0.4534489869338905    0.4695406899381248    
  0.47793244225174636    0.4800167379280567    0.4793712372111016    0.4799406430290982    0.4844867063444368    
  0.493618186326997    0.5048567326810225    0.5114384842933787    0.5021968943830124    0.4652898580488197    
  0.39632605389168024    0.30506882861271223    0.21229090017859148    0.13737671113011446    0.08836306349484695    
  0.06277205036741203    0.05507305740234537    0.07959044922869238    0.08836306349484699    0.1165160775074388    
  0.16753828058995268    0.24101174749994703    0.3270469195975972    0.4073338083773823    0.4645834428176343    
  0.49228770002440614    0.4959514172242487    0.4866803748364262    0.474394771326953    0.464990438289133    
  0.4606044724475834    0.46065498607141    0.46262650344899126    0.4628962241938086    0.45805722627876017    
  0.4465028907006148    0.4294092037248474    0.41042847107633823    0.39427219031928507    0.38503993962082644    
  0.3850399396208265    0.39427219031928507    0.4104284710763383    0.4294092037248473    0.4465028907006148    
  0.45805722627876017    0.4628962241938086    0.46262650344899126    0.46065498607141    0.4606044724475834    
  0.464990438289133    0.474394771326953    0.48668037483642607    0.4959514172242487    0.49228770002440614    
  0.4645834428176343    0.4073338083773823    0.32704691959759724    0.24101174749994703    0.16753828058995265    
  0.11651607750743875    0.08836306349484699    0.07959044922869238    0.12756084938260343    0.1373767111301145    
  0.16753828058995268    0.21842478656449263    0.2859207505479972    0.358631293553242    0.42083431742901345    
  0.4604192830107421    0.4749917646496086    0.4710183834230336    0.45822199392081636    0.44467005917721303    
  0.43503109394046247    0.4309543769363064    0.4318733061321999    0.4356055256749203    0.43900501220951627    
  0.4389801955630532    0.43372987970352456    0.42361593330490815    0.4111228324378066    0.3998770711163633    
  0.393260721584803    0.393260721584803    0.39987707111636334    0.4111228324378066    0.42361593330490804    
  0.43372987970352456    0.4389801955630532    0.43900501220951615    0.4356055256749203    0.4318733061321999    
  0.4309543769363064    0.43503109394046247    0.44467005917721303    0.45822199392081625    0.4710183834230336    
  0.4749917646496087    0.4604192830107421    0.42083431742901345    0.358631293553242    0.2859207505479972    
  0.21842478656449263    0.16753828058995268    0.1373767111301145    0.12756084938260343    0.20252802075724588    
  0.21229090017859156    0.24101174749994697    0.28592075054799726    0.3400617699445224    0.3922917326029566    
  0.43109386472868494    0.45003146400874594    0.45027019066460117    0.4383976359651905    0.42217124631518443    
  0.4075413898358493    0.3978510452342629    0.3942132877501128    0.3960496512449897    0.40152236310604056    
  0.40803128167641456    0.41292200817247354    0.4143276401210715    0.41184813522977654    0.40670231997340905    
  0.40119044473195686    0.3976948790347832    0.3976948790347832    0.40119044473195686    0.40670231997340905    
  0.4118481352297765    0.4143276401210715    0.41292200817247354    0.4080312816764145    0.40152236310604056    
  0.39604965124498975    0.3942132877501128    0.39785104523426285    0.4075413898358493    0.42217124631518443    
  0.4383976359651905    0.45027019066460117    0.4500314640087459    0.43109386472868494    0.3922917326029566    
  0.3400617699445224    0.2859207505479972    0.24101174749994697    0.2122909001785915    0.20252802075724588    
  0.29725831105395795    0.30506882861271234    0.3270469195975972    0.358631293553242    0.3922917326029566    
  0.4193141769132306    0.43313896683318814    0.432095312557375    0.4194153733270187    0.40083391985279754    
  0.38190826148063883    0.36659708643076794    0.3570531110878988    0.3538941253904226    0.35650886040834867    
  0.3633651345908999    0.3723853583061441    0.38139120388745096    0.38858695539156524    0.39300744872796955    
  0.3947486067358687    0.3947821896888519    0.394370502119535    0.394370502119535    0.3947821896888519    
  0.3947486067358687    0.3930074487279695    0.38858695539156524    0.38139120388745096    0.372385358306144    
  0.3633651345908999    0.35650886040834867    0.3538941253904226    0.3570531110878988    0.36659708643076794    
  0.38190826148063883    0.40083391985279754    0.4194153733270188    0.432095312557375    0.43313896683318803    
  0.4193141769132306    0.3922917326029566    0.358631293553242    0.3270469195975972    0.3050688286127123    
  0.29725831105395795    0.3921319492770132    0.39632605389168035    0.4073338083773823    0.42083431742901334    
  0.43109386472868494    0.43313896683318803    0.42483022345800836    0.40752855637532615    0.38500485936493195    
  0.3616038768066276    0.34091239990859107    0.3253115394745906    0.31602834814843334    0.3132784724530108    
  0.3164179813411698    0.32416650577049816    0.3348799235995418    0.3467956027369776    0.358252174278112    
  0.3679372440140799    0.37511158045484594    0.37964500498770615    0.3817839585433854    0.3817839585433855    
  0.37964500498770615    0.37511158045484594    0.3679372440140798    0.358252174278112    0.3467956027369776    
  0.33487992359954166    0.3241665057704981    0.3164179813411698    0.3132784724530108    0.3160283481484333    
  0.3253115394745906    0.34091239990859107    0.3616038768066276    0.38500485936493195    0.40752855637532615    
  0.42483022345800836    0.43313896683318803    0.43109386472868494    0.42083431742901334    0.4073338083773823    
  0.39632605389168035    0.3921319492770132    0.46517050749345185    0.46528985804881984    0.4645834428176343    
  0.4604192830107421    0.45003146400874594    0.4320953125573751    0.4075285563753262    0.37908383222951897    
  0.3501769613961466    0.3238249037383879    0.30218751166316116    0.28657681505196814    0.2775745081275571    
  0.27510095579363125    0.2784995369062529    0.28669462899099557    0.2983623803058038    0.3120347261247446    
  0.3261655790009929    0.3392541508810183    0.350034451203145    0.35762076560758366    0.3615160066056933    
  0.36151600660569333    0.35762076560758366    0.350034451203145    0.3392541508810182    0.3261655790009929    
  0.3120347261247446    0.2983623803058037    0.28669462899099557    0.27849953690625295    0.27510095579363125    
  0.277574508127557    0.28657681505196814    0.30218751166316105    0.3238249037383879    0.3501769613961467    
  0.37908383222951897    0.4075285563753262    0.4320953125573751    0.45003146400874594    0.4604192830107421    
  0.46458344281763425    0.46528985804881984    0.46517050749345185    0.5053802931085833    0.5021968943830125    
  0.49228770002440614    0.4749917646496086    0.45027019066460117    0.4194153733270187    0.3850048593649319    
  0.35017696139614657    0.31778743960972683    0.2899392651235038    0.267946993410074    0.252489921566425    
  0.2437371064510738    0.2414145179035462    0.24487954819372515    0.25321992296124973    0.26532499878436083    
  0.2798964109573484    0.2954481121998987    0.3103799625801971    0.3231430695458644    0.33242940649995567    
  0.3373109955991969    0.33731099559919697    0.33242940649995567    0.3231430695458644    0.310379962580197    
  0.29544811219989875    0.2798964109573484    0.2653249987843608    0.25321992296124973    0.24487954819372515    
  0.2414145179035462    0.2437371064510738    0.252489921566425    0.26794699341007394    0.28993926512350376    
  0.3177874396097269    0.35017696139614657    0.38500485936493184    0.4194153733270187    0.45027019066460117    
  0.4749917646496086    0.492287700024406    0.5021968943830125    0.5053802931085833    0.516669365027783    
  0.5114384842933788    0.49595141722424857    0.4710183834230336    0.4383976359651905    0.40083391985279754    
  0.36160387680662764    0.32382490373838785    0.2899392651235037    0.26156195094833984    0.23958739864670317    
  0.2243610907487207    0.21581579381631927    0.21357255060039448    0.21702134337340834    0.2253669332660348    
  0.23762173241687626    0.252564822249846    0.26872623314065597    0.28445391647783963    0.2980727315245338    
  0.3080914026268242    0.31339711442441737    0.3133971144244175    0.30809140262682416    0.2980727315245338    
  0.2844539164778395    0.268726233140656    0.252564822249846    0.23762173241687617    0.22536693326603474    
  0.21702134337340837    0.21357255060039448    0.2158157938163192    0.2243610907487207    0.23958739864670317    
  0.26156195094833984    0.2899392651235038    0.32382490373838785    0.36160387680662764    0.40083391985279754    
  0.4383976359651905    0.4710183834230336    0.49595141722424857    0.5114384842933788    0.516669365027783    
  0.5110974845350904    0.5048567326810225    0.48668037483642607    0.45822199392081625    0.4221712463151844    
  0.3819082614806387    0.34091239990859107    0.30218751166316105    0.26794699341007394    0.23958739864670317    
  0.217820046431863    0.20283693586556406    0.19446402875683683    0.19228817039720741    0.19573384233844784    
  0.20407007210763736    0.2163617567808494    0.23141229571030694    0.24775149703241559    0.2637064257972242    
  0.277561433104159    0.28777441150440436    0.2931889865498144    0.2931889865498144    0.28777441150440436    
  0.277561433104159    0.2637064257972241    0.24775149703241564    0.23141229571030694    0.21636175678084926    
  0.20407007210763736    0.19573384233844784    0.19228817039720741    0.1944640287568368    0.20283693586556406    
  0.21782004643186295    0.23958739864670317    0.26794699341007405    0.30218751166316105    0.34091239990859107    
  0.3819082614806387    0.4221712463151844    0.45822199392081636    0.48668037483642607    0.5048567326810225    
  0.5110974845350904    0.5002675391717717    0.493618186326997    0.4743947713269529    0.4446700591772132    
  0.40754138983584925    0.366597086430768    0.32531153947459085    0.2865768150519682    0.2524899215664251    
  0.2243610907487208    0.20283693586556412    0.18806109127471685    0.17983615114373144    0.1777541768420024    
  0.1812603245417932    0.18964111856022037    0.2019684201145221    0.217047126271868    0.2334080869770017    
  0.2493774190884666    0.2632359518551796    0.27344190380846717    0.27884781349109833    0.2788478134910984    
  0.27344190380846717    0.26323595185517956    0.24937741908846653    0.2334080869770017    0.217047126271868    
  0.20196842011452198    0.18964111856022037    0.1812603245417932    0.17775417684200237    0.1798361511437314    
  0.18806109127471682    0.20283693586556403    0.2243610907487208    0.25248992156642514    0.28657681505196814    
  0.3253115394745908    0.366597086430768    0.40754138983584925    0.4446700591772132    0.4743947713269529    
  0.493618186326997    0.5002675391717717    0.4912564246472337    0.4844867063444368    0.4649904382891329    
  0.43503109394046247    0.39785104523426285    0.3570531110878988    0.31602834814843334    0.27757450812755696    
  0.2437371064510738    0.21581579381631927    0.1944640287568368    0.17983615114373136    0.1717463472701383    
  0.16979522617963913    0.17342781646609903    0.18192246421316877    0.19434309126618304    0.20949385276044452    
  0.22590994327368388    0.24191974670454572    0.2558025881915581    0.2660174347464973    0.271423871731388    
  0.27142387173138793    0.2660174347464973    0.25580258819155816    0.24191974670454564    0.22590994327368388    
  0.2094938527604445    0.19434309126618296    0.18192246421316877    0.17342781646609903    0.1697952261796391    
  0.1717463472701382    0.1798361511437314    0.19446402875683674    0.21581579381631927    0.24373710645107383    
  0.27757450812755696    0.3160283481484334    0.3570531110878988    0.39785104523426285    0.4350310939404626    
  0.4649904382891329    0.4844867063444368    0.4912564246472337    0.4866648680806177    0.4799406430290982    
  0.46060447244758324    0.4309543769363063    0.3942132877501128    0.35389412539042253    0.3132784724530109    
  0.27510095579363114    0.2414145179035462    0.2135725506003945    0.19228817039720744    0.17775417684200231    
  0.1697952261796391    0.16800181083716276    0.17180252935919432    0.1804667905520178    0.193062296992177    
  0.20840271159200563    0.22502525207265403    0.2412449449663318    0.2553160419237181    0.2656714790224584    
  0.2711524817522704    0.27115248175227036    0.26567147902245836    0.2553160419237181    0.2412449449663317    
  0.225025252072654    0.20840271159200557    0.1930622969921769    0.1804667905520178    0.17180252935919435    
  0.16800181083716273    0.16979522617963905    0.1777541768420023    0.19228817039720736    0.21357255060039457    
  0.24141451790354626    0.27510095579363114    0.3132784724530109    0.35389412539042253    0.3942132877501128    
  0.4309543769363064    0.46060447244758324    0.47994064302909833    0.4866648680806177    0.48587103219757466    
  0.4793712372111017    0.46065498607141    0.4318733061322    0.39604965124498975    0.35650886040834867    
  0.3164179813411698    0.2784995369062529    0.24487954819372515    0.21702134337340842    0.1957338423384479    
  0.1812603245417932    0.173427816466099    0.17180252935919435    0.1757932215531696    0.18467443180888207    
  0.1975399098620342    0.21322564643133027    0.2302623916329604    0.2469235024037819    0.26140066784198496    
  0.272065005604744    0.2777121208146664    0.27771212081466634    0.272065005604744    0.26140066784198496    
  0.24692350240378177    0.2302623916329604    0.21322564643133027    0.19753990986203412    0.18467443180888207    
  0.1757932215531696    0.17180252935919438    0.17342781646609898    0.1812603245417932    0.19573384233844787    
  0.21702134337340842    0.24487954819372518    0.27849953690625295    0.3164179813411697    0.35650886040834867    
  0.3960496512449897    0.4318733061322    0.46065498607141    0.4793712372111017    0.48587103219757466    
  0.48602193264990595    0.4800167379280567    0.4626265034489912    0.4356055256749203    0.4015223631060406    
  0.3633651345908999    0.3241665057704982    0.2866946289909955    0.25321992296124973    0.2253669332660347    
  0.2040700721076373    0.1896411185602203    0.1819224642131688    0.1804667905520178    0.1846744318088821    
  0.1938392596142903    0.20709480743504932    0.22330348057083468    0.2409755752233455    0.25831133597941175    
  0.27340206421992663    0.28452658246256646    0.29041826508226054    0.29041826508226054    0.28452658246256646    
  0.27340206421992663    0.25831133597941164    0.2409755752233455    0.22330348057083468    0.2070948074350492    
  0.1938392596142903    0.18467443180888213    0.18046679055201784    0.18192246421316877    0.1896411185602203    
  0.2040700721076373    0.22536693326603474    0.2532199229612498    0.2866946289909955    0.3241665057704982    
  0.3633651345908999    0.40152236310604056    0.4356055256749203    0.4626265034489912    0.4800167379280568    
  0.48602193264990595    0.48305980459978737    0.4779324422517465    0.4628962241938085    0.43900501220951615    
  0.40803128167641456    0.37238535830614417    0.3348799235995418    0.2983623803058037    0.26532499878436083    
  0.23762173241687626    0.21636175678084937    0.20196842011452204    0.19434309126618304    0.19306229699217714    
  0.1975399098620342    0.20709480743504924    0.22089552671901103    0.2378195704106376    0.25633775753902727    
  0.274550330253566    0.2904205822399404    0.30211747444077314    0.3083084092615753    0.3083084092615753    
  0.30211747444077314    0.29042058223994033    0.2745503302535659    0.25633775753902727    0.2378195704106376    
  0.22089552671901094    0.20709480743504924    0.19753990986203415    0.19306229699217703    0.19434309126618304    
  0.201968420114522    0.2163617567808494    0.23762173241687626    0.26532499878436083    0.29836238030580375    
  0.3348799235995418    0.37238535830614417    0.40803128167641456    0.43900501220951627    0.4628962241938086    
  0.4779324422517464    0.48305980459978737    0.4733561810406099    0.4695406899381248    0.45805722627876005    
  0.4389801955630533    0.41292200817247354    0.38139120388745096    0.3467956027369776    0.31203472612474453    
  0.2798964109573484    0.25256482224984594    0.23141229571030694    0.21704712627186792    0.20949385276044455    
  0.20840271159200555    0.21322564643133027    0.22330348057083468    0.2378195704106376    0.255642852824528    
  0.2751843624638774    0.2944276694740347    0.31119543487667234    0.32354100088330723    0.3300674085636953    
  0.33006740856369526    0.32354100088330723    0.31119543487667234    0.29442766947403465    0.2751843624638774    
  0.255642852824528    0.2378195704106375    0.22330348057083468    0.2132256464313302    0.20840271159200557    
  0.20949385276044447    0.21704712627186792    0.23141229571030694    0.252564822249846    0.2798964109573485    
  0.3120347261247445    0.3467956027369776    0.38139120388745096    0.41292200817247354    0.4389801955630533    
  0.45805722627876005    0.4695406899381248    0.4733561810406099    0.45561134869371606    0.45344898693389046    
  0.44650289070061466    0.43372987970352445    0.4143276401210714    0.38858695539156524    0.35825217427811196    
  0.32616557900099286    0.2954481121998987    0.26872623314065586    0.24775149703241564    0.23340808697700158    
  0.22590994327368388    0.2250252520726539    0.2302623916329603    0.2409755752233455    0.25633775753902727    
  0.2751843624638774    0.2958536364661473    0.3162113306517511    0.33394229740666087    0.3469841451395404    
  0.35387170710917343    0.3538717071091734    0.3469841451395404    0.33394229740666087    0.31621133065175105    
  0.2958536364661473    0.2751843624638774    0.25633775753902716    0.2409755752233455    0.23026239163296033    
  0.2250252520726539    0.22590994327368383    0.23340808697700158    0.24775149703241559    0.26872623314065586    
  0.29544811219989875    0.32616557900099286    0.358252174278112    0.38858695539156524    0.4143276401210714    
  0.43372987970352445    0.44650289070061466    0.45344898693389046    0.45561134869371606    0.4318755500176473    
  0.43146742450210596    0.4294092037248473    0.42361593330490804    0.4118481352297765    0.39300744872796955    
  0.3679372440140798    0.3392541508810182    0.310379962580197    0.28445391647783946    0.2637064257972242    
  0.24937741908846658    0.24191974670454577    0.2412449449663317    0.24692350240378177    0.25831133597941164    
  0.274550330253566    0.29442766947403476    0.3162113306517511    0.3376663888000219    0.35635643227003844    
  0.3701050191097539    0.37736574003914214    0.3773657400391422    0.37010501910975385    0.35635643227003844    
  0.3376663888000218    0.3162113306517511    0.29442766947403476    0.2745503302535659    0.25831133597941164    
  0.24692350240378177    0.24124494496633175    0.2419197467045457    0.24937741908846658    0.26370642579722414    
  0.2844539164778395    0.3103799625801971    0.3392541508810182    0.3679372440140798    0.3930074487279695    
  0.4118481352297765    0.42361593330490804    0.4294092037248473    0.43146742450210596    0.4318755500176473    
  0.40691432755498574    0.4080677205060752    0.4104284710763383    0.41112283243780673    0.40670231997340905    
  0.39474860673586876    0.375111580454846    0.350034451203145    0.3231430695458644    0.298072731524534    
  0.27756143310415915    0.26323595185517956    0.25580258819155827    0.2553160419237182    0.26140066784198496    
  0.27340206421992674    0.2904205822399405    0.3111954348766724    0.33394229740666104    0.35635643227003855    
  0.3759069223183926    0.3903100143024207    0.3979252825018868    0.39792528250188675    0.3903100143024207    
  0.3759069223183927    0.35635643227003844    0.333942297406661    0.31119543487667234    0.2904205822399404    
  0.2734020642199267    0.261400667841985    0.25531604192371815    0.2558025881915582    0.2632359518551796    
  0.2775614331041591    0.298072731524534    0.3231430695458645    0.350034451203145    0.375111580454846    
  0.39474860673586876    0.40670231997340905    0.41112283243780673    0.4104284710763383    0.4080677205060752    
  0.40691432755498574    0.38635947613853017    0.3886492869459637    0.3942721903192851    0.3998770711163633    
  0.4011904447319568    0.39478218968885176    0.3796450049877062    0.35762076560758366    0.33242940649995567    
  0.30809140262682416    0.28777441150440436    0.2734419038084673    0.26601743474649736    0.2656714790224584    
  0.27206500560474395    0.28452658246256635    0.30211747444077325    0.3235410008833071    0.34698414513954035    
  0.37010501910975396    0.39031001430242074    0.40522777556062917    0.4131287399004421    0.4131287399004421    
  0.4052277755606293    0.39031001430242074    0.37010501910975385    0.3469841451395404    0.32354100088330723    
  0.30211747444077314    0.28452658246256635    0.27206500560474395    0.2656714790224584    0.26601743474649736    
  0.2734419038084672    0.28777441150440436    0.30809140262682416    0.3324294064999558    0.35762076560758366    
  0.37964500498770626    0.39478218968885176    0.4011904447319568    0.3998770711163633    0.3942721903192851    
  0.3886492869459637    0.38635947613853017    0.3748318146762963    0.3777101107916974    0.3850399396208265    
  0.3932607215848031    0.3976948790347833    0.39437050211953506    0.38178395854338554    0.3615160066056933    
  0.3373109955991969    0.3133971144244175    0.2931889865498145    0.27884781349109844    0.27142387173138804    
  0.2711524817522705    0.27771212081466645    0.29041826508226054    0.30830840926157516    0.3300674085636954    
  0.35387170710917354    0.37736574003914214    0.3979252825018868    0.4131287399004422    0.42119098826787094    
  0.42119098826787094    0.4131287399004422    0.3979252825018868    0.37736574003914214    0.35387170710917354    
  0.3300674085636954    0.3083084092615751    0.29041826508226054    0.2777121208146664    0.2711524817522705    
  0.27142387173138793    0.27884781349109844    0.2931889865498145    0.3133971144244175    0.337310995599197    
  0.3615160066056933    0.3817839585433856    0.394370502119535    0.3976948790347833    0.3932607215848031    
  0.3850399396208265    0.3777101107916974    0.3748318146762963    0.3748318146762962    0.3777101107916974    
  0.3850399396208265    0.3932607215848031    0.3976948790347833    0.394370502119535    0.38178395854338554    
  0.3615160066056933    0.33731099559919686    0.3133971144244175    0.29318898654981457    0.27884781349109844    
  0.271423871731388    0.2711524817522705    0.27771212081466645    0.29041826508226054    0.30830840926157527    
  0.3300674085636954    0.3538717071091735    0.3773657400391422    0.3979252825018868    0.4131287399004422    
  0.421190988267871    0.42119098826787094    0.4131287399004422    0.3979252825018868    0.37736574003914214    
  0.3538717071091735    0.3300674085636954    0.30830840926157516    0.29041826508226054    0.2777121208146665    
  0.2711524817522705    0.27142387173138793    0.27884781349109844    0.2931889865498145    0.3133971144244175    
  0.3373109955991969    0.3615160066056933    0.3817839585433856    0.394370502119535    0.3976948790347833    
  0.3932607215848031    0.38503993962082655    0.37771011079169753    0.3748318146762962    0.3863594761385301    
  0.38864928694596373    0.3942721903192851    0.3998770711163633    0.4011904447319568    0.39478218968885176    
  0.3796450049877062    0.35762076560758366    0.33242940649995567    0.3080914026268242    0.28777441150440436    
  0.27344190380846717    0.2660174347464973    0.26567147902245836    0.27206500560474395    0.28452658246256635    
  0.30211747444077325    0.3235410008833071    0.3469841451395403    0.37010501910975396    0.3903100143024207    
  0.4052277755606292    0.41312873990044213    0.4131287399004421    0.4052277755606293    0.39031001430242074    
  0.37010501910975385    0.3469841451395403    0.3235410008833072    0.30211747444077314    0.28452658246256635    
  0.27206500560474395    0.2656714790224584    0.2660174347464973    0.27344190380846717    0.28777441150440425    
  0.3080914026268242    0.33242940649995567    0.3576207656075837    0.37964500498770626    0.3947821896888518    
  0.4011904447319568    0.3998770711163633    0.3942721903192851    0.38864928694596373    0.3863594761385301    
  0.4069143275549857    0.4080677205060752    0.4104284710763383    0.41112283243780673    0.4067023199734091    
  0.39474860673586876    0.375111580454846    0.350034451203145    0.3231430695458644    0.2980727315245339    
  0.27756143310415915    0.2632359518551796    0.25580258819155827    0.2553160419237182    0.26140066784198496    
  0.2734020642199267    0.2904205822399405    0.31119543487667234    0.33394229740666104    0.35635643227003855    
  0.3759069223183926    0.3903100143024206    0.3979252825018868    0.39792528250188675    0.3903100143024207    
  0.3759069223183926    0.35635643227003844    0.3339422974066611    0.3111954348766724    0.2904205822399404    
  0.2734020642199267    0.26140066784198496    0.25531604192371815    0.25580258819155827    0.2632359518551796    
  0.27756143310415915    0.2980727315245339    0.3231430695458645    0.350034451203145    0.375111580454846    
  0.39474860673586876    0.4067023199734091    0.41112283243780673    0.4104284710763383    0.4080677205060752    
  0.4069143275549857    0.4318755500176473    0.43146742450210596    0.4294092037248473    0.42361593330490804    
  0.4118481352297765    0.39300744872796955    0.36793724401407985    0.3392541508810182    0.31037996258019707    
  0.2844539164778396    0.2637064257972242    0.24937741908846653    0.24191974670454577    0.2412449449663317    
  0.24692350240378177    0.2583113359794117    0.27455033025356607    0.2944276694740347    0.31621133065175105    
  0.3376663888000219    0.35635643227003844    0.37010501910975385    0.3773657400391422    0.3773657400391422    
  0.37010501910975385    0.35635643227003844    0.3376663888000218    0.31621133065175105    0.29442766947403476    
  0.27455033025356596    0.2583113359794117    0.24692350240378177    0.2412449449663317    0.24191974670454564    
  0.24937741908846653    0.26370642579722414    0.2844539164778396    0.3103799625801971    0.3392541508810182    
  0.3679372440140799    0.39300744872796955    0.4118481352297765    0.42361593330490804    0.4294092037248473    
  0.43146742450210596    0.4318755500176473    0.45561134869371606    0.4534489869338905    0.44650289070061466    
  0.43372987970352445    0.4143276401210714    0.38858695539156524    0.35825217427811196    0.32616557900099286    
  0.2954481121998987    0.26872623314065586    0.24775149703241567    0.23340808697700158    0.22590994327368388    
  0.2250252520726539    0.2302623916329603    0.2409755752233455    0.25633775753902727    0.2751843624638774    
  0.2958536364661473    0.3162113306517511    0.33394229740666087    0.3469841451395404    0.3538717071091734    
  0.3538717071091734    0.3469841451395404    0.33394229740666087    0.31621133065175105    0.2958536364661473    
  0.2751843624638774    0.25633775753902716    0.2409755752233455    0.23026239163296033    0.2250252520726539    