#     DFTpy    
  CRYSTAL 
    
  PRIMVEC    
  4.743655172413791    0.0    0.0    
  0.0    4.743655172413791    0.0    
  0.0    0.0    2.6134482758620705    
  PRIMCOORD    
  4    1    
  Si    0.0    0.0    0.0    
  Si    2.371827586206901    2.371827586206901    1.3067241379310301    
  Si    0.0    2.371827586206901    0.6533620689655201    
  Si    2.371827586206901    0.0    1.9600862068965506    
  BEGIN_BLOCK_DATAGRID_3D    
  3d_datagrid_density    
  BEGIN_DATAGRID_3D#0    
  46    46    26    
  0.0    0.0    0.0    
  4.743655190107716    0.0    0.0    
  0.0    4.743655190107716    0.0    
  0.0    0.0    2.6134482856102825    
  0.04941958514542498    0.05757950101949935    0.08515963355034648    0.1385733351948163    0.21871921864233254    
  0.31176906523708303    0.39222213097442876    0.4395936439673819    0.4512691325347239    0.4392114076951941    
  0.41843390841968087    0.39958681443383864    0.38797435238580175    0.38509301145152586    0.3899234428642758    
  0.39964249287530346    0.41019952002344773    0.41715499207916057    0.41706652875478334    0.40914385364393135    
  0.39603896942811545    0.38281951135821213    0.3746488704988285    0.3746488704988285    0.3828195113582121    
  0.39603896942811545    0.40914385364393135    0.41706652875478334    0.4171549920791606    0.4101995200234477    
  0.39964249287530346    0.38992344286427577    0.3850930114515258    0.3879743523858018    0.39958681443383853    
  0.41843390841968087    0.4392114076951941    0.4512691325347239    0.4395936439673819    0.39222213097442876    
  0.31176906523708303    0.2187192186423325    0.1385733351948163    0.08515963355034653    0.05757950101949935    
  0.04941958514542498    0.05757950101949935    0.06624491374394281    0.09504107422967682    0.14940629015313525    
  0.22886611423947142    0.31890546604413156    0.39488067823118117    0.4380433825034402    0.44694850602798786    
  0.4336080149456196    0.41247770962382746    0.3936668599736842    0.3821732058677624    0.3793748472447665    
  0.38425163614596103    0.3940732298181609    0.4049540905909752    0.41262277069270537    0.4136963212461521    
  0.4072536489984605    0.39565348710924014    0.38363521286636915    0.37612171435326264    0.37612171435326264    
  0.3836352128663691    0.3956534871092402    0.40725364899846045    0.4136963212461521    0.4126227706927054    
  0.4049540905909751    0.3940732298181609    0.38425163614596103    0.37937484724476644    0.3821732058677624    
  0.3936668599736842    0.41247770962382746    0.4336080149456196    0.44694850602798786    0.43804338250344016    
  0.3948806782311811    0.3189054660441315    0.22886611423947142    0.14940629015313525    0.09504107422967686    
  0.06624491374394285    0.05757950101949935    0.08515963355034643    0.09504107422967668    0.12652556323841574    
  0.1822058714968661    0.25806507747263396    0.33832974753747463    0.4011935151106048    0.43263485210094793    
  0.43406809710240357    0.41736206669405834    0.3953517555170543    0.3766712974057214    0.3655010732448231    
  0.36290861196191193    0.36787916773793083    0.37793824710928936    0.38964761609870585    0.39919450984930527    
  0.4033750442370872    0.40094175930404896    0.3934709960487466    0.3847883564713439    0.3791155014209832    
  0.3791155014209832    0.38478835647134385    0.39347099604874664    0.40094175930404896    0.4033750442370872    
  0.3991945098493053    0.3896476160987058    0.37793824710928936    0.36787916773793083    0.3629086119619119    
  0.3655010732448231    0.3766712974057214    0.39535175551705426    0.41736206669405834    0.43406809710240357    
  0.43263485210094793    0.4011935151106048    0.33832974753747463    0.25806507747263396    0.18220587149686612    
  0.12652556323841574    0.09504107422967675    0.08515963355034643    0.13857333519481638    0.14940629015313525    
  0.18220587149686612    0.23554784810796423    0.3014531853077596    0.36411477368541756    0.40673946091382795    
  0.42156992914711544    0.4130210887961384    0.3920661180895484    0.36908172469106143    0.3506830792013015    
  0.3399713913358578    0.33761537517680457    0.34262775579089283    0.3528949930064203    0.36558598601120074    
  0.37751580034886717    0.3857667745280637    0.38872241330081664    0.3869375398846803    0.38294733063637626    
  0.37990366037685463    0.37990366037685463    0.3829473306363762    0.3869375398846804    0.38872241330081664    
  0.3857667745280637    0.37751580034886717    0.3655859860112007    0.35289499300642035    0.34262775579089283    
  0.33761537517680446    0.3399713913358579    0.35068307920130143    0.36908172469106143    0.3920661180895484    
  0.4130210887961384    0.42156992914711544    0.406739460913828    0.36411477368541756    0.3014531853077596    
  0.23554784810796428    0.18220587149686618    0.14940629015313528    0.13857333519481638    0.2187192186423325    
  0.22886611423947142    0.25806507747263396    0.3014531853077596    0.34899385837671887    0.38735328180789336    
  0.4060909433339746    0.4032210557186587    0.38485063363582245    0.36009188446430435    0.33649609067909797    
  0.31859981129931797    0.30843006916704496    0.3062703286663783    0.3111928663602323    0.3214807436741441    
  0.33492669692896343    0.3489903617565132    0.36110132929203576    0.3693728321475444    0.3733904107496624    
  0.3743269443942788    0.3740981473340698    0.3740981473340698    0.37432694439427877    0.37339041074966245    
  0.36937283214754435    0.36110132929203576    0.3489903617565132    0.3349266969289634    0.3214807436741441    
  0.31119286636023225    0.3062703286663782    0.30843006916704496    0.31859981129931797    0.33649609067909797    
  0.36009188446430435    0.38485063363582245    0.4032210557186587    0.4060909433339746    0.38735328180789336    
  0.34899385837671887    0.3014531853077596    0.258065077472634    0.22886611423947148    0.2187192186423325    
  0.311769065237083    0.31890546604413145    0.33832974753747463    0.36411477368541756    0.38735328180789336    
  0.3992683177446993    0.39537843600432937    0.3774360639195703    0.35150262658930037    0.3242796086092721    
  0.30071027763557284    0.28357980912202807    0.2740207904292361    0.272003672398871    0.27668975862576567    
  0.2867365286167897    0.3004690624802337    0.31588600651441173    0.3307576859395257    0.3430851187106513    
  0.3517441790720468    0.35676504784222135    0.35892420399651614    0.35892420399651614    0.3567650478422213    
  0.35174417907204686    0.3430851187106512    0.3307576859395257    0.3158860065144118    0.3004690624802336    
  0.2867365286167897    0.27668975862576567    0.2720036723988709    0.27402079042923605    0.283579809122028    
  0.30071027763557284    0.3242796086092721    0.35150262658930037    0.3774360639195703    0.39537843600432937    
  0.3992683177446993    0.38735328180789336    0.3641147736854176    0.3383297475374747    0.3189054660441315    
  0.311769065237083    0.39222213097442876    0.39488067823118106    0.4011935151106048    0.40673946091382795    
  0.40609094333397466    0.39537843600432937    0.3742981173135964    0.34610571802685947    0.3157209773408913    
  0.28759973579880105    0.26471283891966413    0.24858817558554291    0.23970033002734953    0.23779555573920133    
  0.24214043763751847    0.2517072028647532    0.2652149310359216    0.2810467211566076    0.2972591000769014    
  0.3118796851384317    0.32339402427955066    0.33106527771087285    0.3348227434678196    0.3348227434678196    
  0.3310652777108728    0.3233940242795507    0.3118796851384316    0.2972591000769013    0.2810467211566076    
  0.2652149310359215    0.2517072028647532    0.24214043763751844    0.23779555573920128    0.23970033002734947    
  0.24858817558554291    0.26471283891966413    0.28759973579880105    0.31572097734089133    0.34610571802685947    
  0.3742981173135964    0.39537843600432937    0.40609094333397466    0.40673946091382795    0.4011935151106048    
  0.39488067823118117    0.39222213097442876    0.43959364396738176    0.43804338250344016    0.43263485210094793    
  0.4215699291471154    0.4032210557186587    0.3774360639195703    0.3461057180268594    0.31260163736228347    
  0.28054682895969285    0.2527915772643428    0.2310551196597314    0.2160692024705227    0.20787169710031503    
  0.20607034513762265    0.21003399954925972    0.21896810631626326    0.23185087925830508    0.2473159500949339    
  0.26364765420277825    0.278989980793945    0.2916979664535512    0.30062803558677537    0.30519287698277847    
  0.30519287698277847    0.3006280355867753    0.2916979664535512    0.27898998079394494    0.26364765420277825    
  0.2473159500949339    0.23185087925830503    0.21896810631626326    0.2100339995492597    0.20607034513762257    
  0.20787169710031503    0.21606920247052264    0.23105511965973136    0.2527915772643428    0.28054682895969285    
  0.3126016373622835    0.3461057180268594    0.3774360639195703    0.4032210557186587    0.42156992914711544    
  0.43263485210094793    0.43804338250344016    0.43959364396738176    0.4512691325347239    0.44694850602798786    
  0.4340680971024037    0.41302108879613836    0.3848506336358224    0.35150262658930037    0.3157209773408912    
  0.2805468289596929    0.24867974715481125    0.22203437641480778    0.2016332762706633    0.1877551652731217    
  0.18019007340152732    0.17848440474601343    0.18208690096926322    0.1903446952247252    0.20238636921820422    
  0.2170108777786317    0.23269450395945276    0.24774402992619035    0.26054093698190484    0.26977904710306405    
  0.2746003680840726    0.2746003680840726    0.269779047103064    0.2605409369819049    0.2477440299261903    
  0.23269450395945276    0.21701087777863176    0.20238636921820416    0.19034469522472522    0.18208690096926317    
  0.1784844047460133    0.18019007340152732    0.18775516527312164    0.2016332762706633    0.22203437641480783    
  0.24867974715481125    0.2805468289596929    0.3157209773408912    0.35150262658930037    0.3848506336358224    
  0.41302108879613836    0.4340680971024037    0.44694850602798786    0.4512691325347239    0.439211407695194    
  0.4336080149456197    0.41736206669405834    0.3920661180895484    0.36009188446430435    0.32427960860927213    
  0.28759973579880105    0.25279157726434287    0.22203437641480783    0.19675043178621468    0.1776000492980959    
  0.16464220597840604    0.1575739920400439    0.15594298962557634    0.15924511519990936    0.16688480895397625    
  0.1780621588184877    0.19169236080880064    0.20642117974193566    0.2207300151710069    0.23309561656443373    
  0.24217441196618472    0.24697466271692928    0.24697466271692928    0.2421744119661847    0.23309561656443378    
  0.2207300151710069    0.20642117974193566    0.19169236080880064    0.17806215881848764    0.16688480895397625    
  0.1592451151999093    0.15594298962557623    0.15757399204004388    0.16464220597840595    0.1776000492980959    
  0.19675043178621468    0.22203437641480783    0.25279157726434287    0.287599735798801    0.32427960860927213    
  0.36009188446430435    0.3920661180895484    0.41736206669405834    0.4336080149456197    0.439211407695194    
  0.41843390841968076    0.41247770962382746    0.3953517555170543    0.3690817246910613    0.3364960906790979    
  0.3007102776355729    0.264712838919664    0.2310551196597313    0.2016332762706633    0.17760004929809586    
  0.1594334806040744    0.14712198209470773    0.14037635799164913    0.13878398200226957    0.14186113691205818    
  0.14901396434984548    0.15946449657195855    0.17220701629040358    0.18602425548169702    0.19955116246691001    
  0.211371196419247    0.2201542774654959    0.22484211744521887    0.22484211744521893    0.22015427746549587    
  0.2113711964192471    0.19955116246690996    0.18602425548169702    0.17220701629040364    0.15946449657195852    
  0.14901396434984548    0.14186113691205815    0.1387839820022695    0.14037635799164913    0.14712198209470767    
  0.1594334806040744    0.1776000492980959    0.20163327627066327    0.23105511965973136    0.2647128389196641    
  0.30071027763557284    0.3364960906790979    0.3690817246910613    0.3953517555170543    0.4124777096238275    
  0.41843390841968076    0.3995868144338384    0.39366685997368417    0.3766712974057213    0.35068307920130143    
  0.3185998112993179    0.283579809122028    0.24858817558554286    0.2160692024705227    0.18775516527312158    
  0.16464220597840593    0.1471219820947077    0.13518571743137864    0.12860033274450167    0.12700392380312286    
  0.12992463287812642    0.13675479270106974    0.14671620749784167    0.15884565415627067    0.1720118051080248    
  0.18495430796050266    0.19634036792999884    0.20486720312826873    0.20944707009834973    0.20944707009834976    
  0.20486720312826867    0.19634036792999887    0.18495430796050263    0.17201180510802483    0.1588456541562707    
  0.14671620749784164    0.13675479270106972    0.1299246328781264    0.12700392380312278    0.12860033274450164    
  0.13518571743137858    0.14712198209470773    0.16464220597840593    0.18775516527312158    0.2160692024705227    
  0.24858817558554286    0.283579809122028    0.31859981129931797    0.35068307920130143    0.3766712974057214    
  0.39366685997368417    0.3995868144338384    0.38797435238580175    0.3821732058677624    0.3655010732448231    
  0.3399713913358578    0.3084300691670451    0.27402079042923616    0.23970033002734953    0.2078716971003151    
  0.1801900734015274    0.15757399204004388    0.1403763579916492    0.12860033274450175    0.12205537162293831    
  0.12042046803782569    0.12324306258183125    0.12991558773258796    0.1396571640792473    0.15151468137013002    
  0.16438600781448523    0.17705415241977626    0.18822773578886587    0.19662349723547895    0.20114587419793103    
  0.20114587419793098    0.19662349723547892    0.18822773578886592    0.17705415241977618    0.16438600781448523    
  0.15151468137013002    0.13965716407924722    0.12991558773258793    0.12324306258183125    0.12042046803782562    
  0.12205537162293825    0.12860033274450172    0.1403763579916492    0.15757399204004388    0.1801900734015274    
  0.2078716971003151    0.23970033002734953    0.27402079042923616    0.3084300691670451    0.3399713913358578    
  0.36550107324482317    0.38217320586776243    0.38797435238580175    0.3850930114515258    0.3793748472447665    
  0.3629086119619119    0.33761537517680446    0.30627032866637816    0.27200367239887097    0.23779555573920128    
  0.20607034513762265    0.1784844047460134    0.15594298962557632    0.13878398200226963    0.12700392380312292    
  0.12042046803782568    0.11873525034904257    0.12152296835187301    0.12819416803619468    0.13796961784186015    
  0.14988482080745205    0.16282221635295221    0.17555225221128626    0.18677588484469984    0.19520610287073945    
  0.1997458996256023    0.1997458996256023    0.19520610287073936    0.1867758848446999    0.1755522522112862    
  0.16282221635295221    0.1498848208074521    0.13796961784186013    0.12819416803619466    0.121522968351873    
  0.11873525034904248    0.12042046803782562    0.1270039238031229    0.13878398200226963    0.15594298962557632    
  0.17848440474601338    0.20607034513762265    0.23779555573920128    0.27200367239887097    0.3062703286663782    
  0.33761537517680446    0.362908611961912    0.37937484724476656    0.3850930114515258    0.3899234428642757    
  0.3842516361459611    0.3678791677379309    0.3426277557908929    0.31119286636023225    0.2766897586257657    
  0.24214043763751839    0.21003399954925975    0.1820869009692632    0.15924511519990928    0.1418611369120583    
  0.12992463287812656    0.12324306258183125    0.12152296835187301    0.12436003366629247    0.13118521170333963    
  0.14122156660452584    0.15348301147675056    0.16681027775437535    0.1799196691796932    0.19145860472788326    
  0.20010439415000975    0.2047500405839125    0.2047500405839125    0.20010439415000963    0.19145860472788329    
  0.17991966917969315    0.16681027775437535    0.1534830114767506    0.14122156660452578    0.13118521170333966    
  0.12436003366629243    0.12152296835187294    0.12324306258183122    0.1299246328781265    0.1418611369120583    
  0.15924511519990928    0.1820869009692632    0.21003399954925978    0.24214043763751844    0.2766897586257658    
  0.31119286636023225    0.34262775579089283    0.36787916773793095    0.38425163614596114    0.3899234428642757    
  0.3996424928753034    0.3940732298181609    0.3779382471092894    0.35289499300642035    0.3214807436741441    
  0.2867365286167897    0.2517072028647532    0.2189681063162634    0.19034469522472533    0.16688480895397623    
  0.14901396434984554    0.1367547927010698    0.12991558773258802    0.12819416803619474    0.13118521170333966    
  0.13832481396536878    0.14883279536569194    0.16169709057832043    0.1757021394754256    0.18948070190922817    
  0.20158878925710544    0.21063472462705787    0.21548196809981945    0.21548196809981945    0.21063472462705782    
  0.2015887892571055    0.18948070190922808    0.1757021394754256    0.16169709057832046    0.14883279536569188    
  0.1383248139653688    0.13118521170333963    0.12819416803619466    0.129915587732588    0.13675479270106977    
  0.14901396434984554    0.16688480895397625    0.19034469522472533    0.21896810631626334    0.2517072028647532    
  0.2867365286167897    0.3214807436741441    0.35289499300642035    0.37793824710928947    0.39407322981816095    
  0.3996424928753034    0.4101995200234476    0.4049540905909751    0.3896476160987058    0.3655859860112007    
  0.3349266969289633    0.3004690624802337    0.2652149310359215    0.23185087925830514    0.20238636921820424    
  0.1780621588184876    0.1594644965719586    0.14671620749784164    0.13965716407924716    0.13796961784186015    
  0.1412215666045258    0.14883279536569183    0.16001095288069347    0.17371326032561102    0.18865586781049065    
  0.20336545059511396    0.21627771979972657    0.2259023678294496    0.23104802762936014    0.23104802762936014    
  0.2259023678294495    0.21627771979972668    0.2033654505951139    0.18865586781049065    0.17371326032561107    
  0.16001095288069342    0.14883279536569177    0.14122156660452573    0.13796961784186007    0.13965716407924714    
  0.1467162074978416    0.15946449657195866    0.1780621588184876    0.20238636921820424    0.23185087925830516    
  0.2652149310359215    0.3004690624802337    0.3349266969289633    0.3655859860112007    0.3896476160987059    
  0.4049540905909751    0.4101995200234476    0.4171549920791605    0.4126227706927054    0.3991945098493053    
  0.37751580034886706    0.34899036175651316    0.3158860065144117    0.28104672115660756    0.2473159500949339    
  0.21701087777863184    0.19169236080880062    0.1722070162904037    0.15884565415627078    0.15151468137012997    
  0.14988482080745202    0.15348301147675053    0.16169709057832038    0.17371326032561119    0.18845036783625713    
  0.2045439832146392    0.22039788438489014    0.2343083049266216    0.244663726976669    0.2501929003425192    
  0.2501929003425192    0.24466372697666885    0.23430830492662166    0.22039788438489008    0.2045439832146392    
  0.18845036783625718    0.17371326032561113    0.16169709057832038    0.15348301147675047    0.149884820807452    
  0.1515146813701299    0.15884565415627072    0.17220701629040375    0.19169236080880062    0.21701087777863184    
  0.24731595009493398    0.28104672115660756    0.3158860065144117    0.3489903617565132    0.37751580034886706    
  0.3991945098493054    0.4126227706927055    0.4171549920791605    0.41706652875478334    0.4136963212461521    
  0.4033750442370872    0.3857667745280637    0.36110132929203576    0.33075768593952576    0.2972591000769014    
  0.26364765420277825    0.23269450395945276    0.20642117974193566    0.18602425548169702    0.17201180510802483    
  0.16438600781448523    0.16282221635295224    0.1668102777543754    0.17570213947542562    0.1886558678104907    
  0.20454398321463924    0.22191247815724566    0.23903388465621203    0.2540568865540358    0.2652363723166721    
  0.27120313015477904    0.271203130154779    0.265236372316672    0.2540568865540359    0.239033884656212    
  0.22191247815724566    0.20454398321463924    0.18865586781049062    0.1757021394754256    0.1668102777543753    
  0.1628222163529521    0.16438600781448523    0.1720118051080248    0.18602425548169702    0.20642117974193566    
  0.2326945039594528    0.2636476542027783    0.2972591000769013    0.33075768593952576    0.36110132929203576    
  0.3857667745280637    0.40337504423708725    0.41369632124615213    0.41706652875478334    0.40914385364393135    
  0.4072536489984605    0.40094175930404896    0.38872241330081664    0.3693728321475443    0.3430851187106513    
  0.3118796851384317    0.278989980793945    0.24774402992619035    0.22073001517100685    0.19955116246691007    
  0.18495430796050272    0.17705415241977618    0.1755522522112862    0.1799196691796932    0.1894807019092281    
  0.20336545059511404    0.22039788438489002    0.2390338846562119    0.2574172812292829    0.27355290155385015    
  0.28556222669529624    0.29197259743056714    0.29197259743056714    0.28556222669529613    0.27355290155385026    
  0.25741728122928287    0.2390338846562119    0.22039788438489008    0.20336545059511402    0.18948070190922806    
  0.1799196691796931    0.17555225221128612    0.17705415241977618    0.18495430796050266    0.19955116246691007    
  0.22073001517100685    0.24774402992619035    0.27898998079394505    0.31187968513843156    0.3430851187106513    
  0.36937283214754435    0.38872241330081664    0.4009417593040491    0.4072536489984605    0.40914385364393135    
  0.3960389694281154    0.39565348710924014    0.3934709960487465    0.3869375398846804    0.3733904107496624    
  0.3517441790720469    0.3233940242795507    0.2916979664535512    0.2605409369819049    0.23309561656443378    
  0.2113711964192471    0.1963403679299989    0.18822773578886587    0.1867758848446999    0.19145860472788326    
  0.20158878925710544    0.2162777197997267    0.23430830492662158    0.2540568865540358    0.27355290155385026    
  0.29067308759800853    0.30341935338035314    0.31022481395544    0.31022481395543994    0.30341935338035314    
  0.29067308759800853    0.2735529015538502    0.25405688655403585    0.2343083049266216    0.21627771979972668    
  0.20158878925710544    0.19145860472788326    0.1867758848446998    0.18822773578886587    0.19634036792999884    
  0.2113711964192471    0.23309561656443378    0.2605409369819049    0.2916979664535512    0.3233940242795506    
  0.3517441790720469    0.3733904107496624    0.3869375398846803    0.3934709960487467    0.39565348710924014    
  0.3960389694281154    0.382819511358212    0.38363521286636904    0.3847883564713439    0.3829473306363762    
  0.3743269443942788    0.3567650478422213    0.3310652777108729    0.30062803558677537    0.26977904710306405    
  0.24217441196618464    0.22015427746549587    0.20486720312826875    0.19662349723547895    0.19520610287073933    
  0.20010439415000966    0.21063472462705776    0.2259023678294497    0.24466372697666905    0.26523637231667196    
  0.28556222669529624    0.30341935338035314    0.31671805484683224    0.3238198593708783    0.3238198593708783    
  0.3167180548468322    0.30341935338035325    0.28556222669529624    0.26523637231667196    0.24466372697666905    
  0.2259023678294497    0.21063472462705776    0.20010439415000972    0.19520610287073928    0.19662349723547895    
  0.20486720312826875    0.22015427746549582    0.24217441196618464    0.26977904710306405    0.3006280355867754    
  0.33106527771087285    0.3567650478422213    0.3743269443942788    0.3829473306363762    0.3847883564713439    
  0.38363521286636915    0.382819511358212    0.3746488704988285    0.3761217143532626    0.37911550142098327    
  0.37990366037685463    0.3740981473340698    0.3589242039965162    0.3348227434678196    0.3051928769827786    
  0.2746003680840727    0.24697466271692928    0.22484211744521893    0.20944707009834998    0.20114587419793103    
  0.1997458996256024    0.2047500405839126    0.21548196809981945    0.23104802762936028    0.25019290034251923    
  0.271203130154779    0.29197259743056725    0.31022481395543994    0.3238198593708784    0.33108058499926807    
  0.331080584999268    0.3238198593708783    0.31022481395544005    0.29197259743056725    0.271203130154779    
  0.2501929003425193    0.23104802762936028    0.21548196809981945    0.2047500405839125    0.19974589962560232    
  0.20114587419793103    0.20944707009834987    0.22484211744521893    0.24697466271692928    0.2746003680840727    
  0.30519287698277864    0.33482274346781954    0.3589242039965162    0.3740981473340698    0.37990366037685463    
  0.3791155014209833    0.3761217143532627    0.3746488704988285    0.3746488704988285    0.37612171435326264    
  0.3791155014209833    0.37990366037685463    0.3740981473340698    0.3589242039965162    0.3348227434678196    
  0.3051928769827785    0.2746003680840727    0.2469746627169293    0.22484211744521895    0.2094470700983499    
  0.20114587419793098    0.1997458996256024    0.20475004058391258    0.21548196809981945    0.2310480276293603    
  0.2501929003425192    0.271203130154779    0.29197259743056725    0.31022481395544    0.3238198593708784    
  0.331080584999268    0.33108058499926796    0.3238198593708783    0.31022481395544005    0.29197259743056714    
  0.271203130154779    0.2501929003425193    0.23104802762936028    0.21548196809981945    0.20475004058391244    
  0.19974589962560235    0.20114587419793098    0.20944707009834987    0.22484211744521893    0.2469746627169293    
  0.2746003680840727    0.3051928769827786    0.33482274346781954    0.3589242039965162    0.3740981473340698    
  0.37990366037685463    0.3791155014209833    0.37612171435326275    0.3746488704988285    0.3828195113582121    
  0.3836352128663691    0.3847883564713439    0.3829473306363762    0.37432694439427877    0.3567650478422213    
  0.3310652777108728    0.3006280355867754    0.26977904710306405    0.24217441196618464    0.22015427746549582    
  0.2048672031282688    0.19662349723547898    0.19520610287073933    0.20010439415000975    0.21063472462705773    
  0.2259023678294497    0.24466372697666905    0.26523637231667196    0.28556222669529624    0.30341935338035314    
  0.3167180548468322    0.3238198593708783    0.3238198593708783    0.3167180548468322    0.30341935338035314    
  0.28556222669529624    0.26523637231667196    0.24466372697666905    0.2259023678294497    0.21063472462705773    
  0.20010439415000966    0.19520610287073925    0.19662349723547898    0.20486720312826875    0.22015427746549582    
  0.24217441196618464    0.26977904710306405    0.30062803558677537    0.3310652777108728    0.35676504784222135    
  0.37432694439427877    0.3829473306363762    0.3847883564713439    0.38363521286636915    0.3828195113582121    
  0.3960389694281154    0.39565348710924014    0.39347099604874664    0.3869375398846804    0.3733904107496624    
  0.35174417907204686    0.3233940242795507    0.2916979664535512    0.26054093698190484    0.23309561656443378    
  0.2113711964192472    0.1963403679299989    0.18822773578886587    0.18677588484469995    0.19145860472788326    
  0.20158878925710544    0.21627771979972676    0.2343083049266216    0.25405688655403585    0.27355290155385026    
  0.29067308759800853    0.30341935338035314    0.31022481395544    0.31022481395544    0.30341935338035314    
  0.29067308759800853    0.2735529015538502    0.25405688655403585    0.23430830492662166    0.21627771979972676    
  0.20158878925710538    0.19145860472788317    0.18677588484469984    0.18822773578886587    0.19634036792999884    
  0.2113711964192472    0.2330956165644338    0.26054093698190495    0.2916979664535512    0.3233940242795507    
  0.35174417907204686    0.3733904107496624    0.3869375398846803    0.39347099604874664    0.39565348710924014    
  0.3960389694281154    0.40914385364393135    0.40725364899846045    0.4009417593040489    0.38872241330081664    
  0.36937283214754435    0.3430851187106513    0.3118796851384316    0.27898998079394494    0.24774402992619035    
  0.22073001517100682    0.19955116246691007    0.18495430796050266    0.17705415241977618    0.1755522522112862    
  0.1799196691796931    0.1894807019092281    0.20336545059511402    0.22039788438489014    0.2390338846562119    
  0.25741728122928287    0.27355290155385015    0.28556222669529624    0.29197259743056714    0.29197259743056714    
  0.28556222669529613    0.27355290155385026    0.2574172812292828    0.2390338846562119    0.22039788438489014    
  0.20336545059511396    0.1894807019092281    0.1799196691796931    0.17555225221128612    0.17705415241977618    
  0.1849543079605026    0.19955116246691001    0.22073001517100682    0.24774402992619035    0.278989980793945    
  0.3118796851384316    0.3430851187106513    0.36937283214754435    0.38872241330081664    0.400941759304049    
  0.40725364899846056    0.40914385364393135    0.41706652875478334    0.4136963212461521    0.4033750442370872    
  0.3857667745280637    0.36110132929203576    0.33075768593952576    0.2972591000769014    0.26364765420277825    
  0.23269450395945276    0.20642117974193566    0.18602425548169702    0.17201180510802483    0.16438600781448523    
  0.16282221635295224    0.1668102777543754    0.17570213947542562    0.1886558678104907    0.20454398321463924    
  0.22191247815724566    0.23903388465621203    0.2540568865540358    0.2652363723166721    0.27120313015477904    