#     DFTpy    
  CRYSTAL 
    
  PRIMVEC    
  5.539793103448271    0.0    0.0    
  0.0    5.539793103448271    0.0    
  0.0    0.0    3.0520689655172406    
  PRIMCOORD    
  4    1    
  Si    0.0    0.0    0.0    
  Si    2.7698965517241403    2.7698965517241403    1.5260344827586203    
  Si    0.0    2.7698965517241403    0.7630172413793102    
  Si    2.7698965517241403    0.0    2.2890517241379302    
  BEGIN_BLOCK_DATAGRID_3D    
  3d_datagrid_density    
  BEGIN_DATAGRID_3D#0    
  55    55    31    
  0.0    0.0    0.0    
  5.539793124111805    0.0    0.0    
  0.0    5.539793124111805    0.0    
  0.0    0.0    3.0520689769015164    
  0.05597603870604711    0.06389733903561082    0.09005700290819152    0.13900247516802045    0.20978585778466224    
  0.2885214916089426    0.35164805416834377    0.38076454275258476    0.37412663058459433    0.34375119432325296    
  0.30460376555013857    0.26729238479359235    0.23708778103768668    0.21578364718319457    0.20346572367060536    
  0.19955447846150018    0.2033468502457701    0.21417594452201377    0.23123987102431523    0.2532712432955197    
  0.2782848245008623    0.30359913820222145    0.32626263765098046    0.3438644695041585    0.355383006571976    
  0.3614839526596162    0.3639460574392831    0.36452756196041025    0.3639460574392831    0.3614839526596162    
  0.355383006571976    0.34386446950415844    0.3262626376509804    0.30359913820222145    0.2782848245008623    
  0.25327124329551975    0.23123987102431523    0.21417594452201377    0.2033468502457701    0.19955447846150018    
  0.2034657236706054    0.2157836471831946    0.23708778103768668    0.2672923847935923    0.3046037655501385    
  0.34375119432325296    0.3741266305845943    0.38076454275258476    0.3516480541683437    0.28852149160894264    
  0.20978585778466222    0.13900247516802045    0.09005700290819155    0.06389733903561086    0.05597603870604711    
  0.06389733903561079    0.07223421531910493    0.09937485154728336    0.14903548123727883    0.21914050395565465    
  0.29527172524239714    0.3546164271329351    0.3802546923914795    0.37144531593902047    0.34023701287940633    
  0.30108285717628586    0.26408914586133025    0.23424018250766152    0.21321190740116294    0.20105512670603176    
  0.19719068208638754    0.20093018516746183    0.2116237267019835    0.22848567429818736    0.2502741383284635    
  0.275055385462471    0.30023045786553115    0.3229364185643623    0.3408061190590395    0.3527735329967406    
  0.35937446137893714    0.36222414856966223    0.3629510275781223    0.36222414856966234    0.35937446137893714    
  0.35277353299674064    0.3408061190590395    0.3229364185643623    0.3002304578655312    0.275055385462471    
  0.2502741383284635    0.22848567429818736    0.2116237267019835    0.20093018516746183    0.1971906820863876    
  0.20105512670603176    0.21321190740116294    0.23424018250766157    0.26408914586133025    0.30108285717628586    
  0.3402370128794064    0.3714453159390204    0.3802546923914795    0.3546164271329351    0.29527172524239714    
  0.21914050395565457    0.14903548123727878    0.09937485154728337    0.07223421531910493    0.06389733903561079    
  0.09005700290819149    0.09937485154728326    0.12862753332258542    0.17912769939415743    0.2458951600432625    
  0.3135647269449305    0.3617960524298483    0.3777320425043794    0.3631044471870014    0.3298028608119384    
  0.29077886438011896    0.2547588960679767    0.22595714282890572    0.2057349535614647    0.19404968057493882    
  0.19032400060091417    0.19391038827884668    0.2042064879176776    0.220473488851102    0.24154263714356647    
  0.2656234934076578    0.29034295534925414    0.31308079039702974    0.3315946125777753    0.3447081006488713    
  0.3526135770337459    0.3564854251502178    0.3575975349988363    0.3564854251502178    0.3526135770337459    
  0.34470810064887136    0.3315946125777753    0.31308079039702974    0.29034295534925414    0.2656234934076578    
  0.24154263714356647    0.220473488851102    0.20420648791767756    0.19391038827884668    0.19032400060091423    
  0.19404968057493882    0.20573495356146473    0.22595714282890572    0.2547588960679767    0.29077886438011896    
  0.3298028608119384    0.36310444718700136    0.3777320425043795    0.36179605242984825    0.3135647269449305    
  0.24589516004326245    0.1791276993941574    0.12862753332258542    0.09937485154728327    0.09005700290819149    
  0.13900247516802042    0.14903548123727875    0.17912769939415743    0.22722879034795598    0.2851200752660778    
  0.33754793698100705    0.36855742063712577    0.37075996506909326    0.34852331022847716    0.3128820770067397    
  0.27447544217550435    0.2401141737944146    0.21298425490410658    0.19403122746711154    0.1830893149678145    
  0.17958687800854806    0.18293501074730825    0.19259948185069872    0.20791240979143386    0.2278164972319953    
  0.25072818499536415    0.27458910048003726    0.2971162506845305    0.31625337620580524    0.3307017289090482    
  0.3402132407265571    0.34537537722576    0.34697898220695256    0.34537537722576006    0.3402132407265572    
  0.3307017289090482    0.31625337620580524    0.2971162506845305    0.27458910048003726    0.25072818499536415    
  0.2278164972319953    0.20791240979143386    0.1925994818506987    0.18293501074730825    0.17958687800854806    
  0.18308931496781447    0.1940312274671116    0.21298425490410658    0.24011417379441458    0.2744754421755043    
  0.31288207700673965    0.34852331022847716    0.37075996506909326    0.36855742063712577    0.33754793698100705    
  0.2851200752660778    0.22722879034795598    0.17912769939415743    0.14903548123727883    0.13900247516802042    
  0.20978585778466222    0.21914050395565457    0.24589516004326245    0.2851200752660778    0.3269433261895014    
  0.3583678783329521    0.369073777943409    0.35683317514496976    0.3275319164571897    0.2904310583623684    
  0.2534541596322473    0.22140815291443186    0.19645104095105737    0.17911708556984282    0.16912238659949871    
  0.1659096287462042    0.168955743158839    0.17780031827585946    0.19185895358236507    0.2102103801571156    
  0.2315082805037085    0.25403568812431776    0.2758708319269313    0.29517482944124995    0.3105669748502227    
  0.3213945593745526    0.32767435403116485    0.32971300219226285    0.32767435403116485    0.3213945593745526    
  0.3105669748502227    0.29517482944124995    0.27587083192693124    0.25403568812431776    0.2315082805037085    
  0.2102103801571156    0.19185895358236507    0.1778003182758594    0.16895574315883896    0.1659096287462042    
  0.1691223865994987    0.17911708556984285    0.19645104095105737    0.22140815291443186    0.25345415963224727    
  0.2904310583623683    0.3275319164571897    0.35683317514496976    0.36907377794340895    0.35836787833295214    
  0.3269433261895013    0.2851200752660778    0.24589516004326245    0.21914050395565457    0.20978585778466222    
  0.2885214916089426    0.29527172524239714    0.3135647269449305    0.3375479369810071    0.3583678783329521    
  0.367112182871406    0.35886828946419497    0.3348635008270968    0.30093039634583996    0.263978468914994    
  0.2293561489118474    0.20016099061900258    0.17770754225596008    0.16219735624147888    0.153262988209933    
  0.15037718636728842    0.15308150191379785    0.16097986595365002    0.17356910560188835    0.19007193800855152    
  0.20938115388921896    0.23010135295463446    0.2506428643968226    0.269386488322625    0.28493783527177946    
  0.29636757968888905    0.3032647981865629    0.30555880507435684    0.3032647981865629    0.29636757968888905    
  0.28493783527177946    0.269386488322625    0.2506428643968226    0.23010135295463446    0.20938115388921896    
  0.19007193800855154    0.17356910560188835    0.16097986595365    0.15308150191379785    0.15037718636728845    
  0.15326298820993295    0.1621973562414789    0.17770754225596008    0.20016099061900255    0.2293561489118474    
  0.26397846891499394    0.30093039634583996    0.3348635008270968    0.35886828946419497    0.367112182871406    
  0.3583678783329521    0.3375479369810071    0.31356472694493054    0.2952717252423972    0.2885214916089426    
  0.3516480541683437    0.3546164271329351    0.3617960524298483    0.3685574206371258    0.369073777943409    
  0.35886828946419497    0.3369203638298353    0.30590337872182505    0.27052673977635017    0.23542660323341968    
  0.20394112869804604    0.17793551379269157    0.15812886288120226    0.14449727832600118    0.13664176886242704    
  0.13408678702684942    0.13643324201647575    0.14333057172524813    0.15434178351594702    0.1688245224414622    
  0.18589162902326412    0.20442691240156163    0.22312254572022136    0.24056658989169943    0.2554203670911723    
  0.2666316302705653    0.27355091106645707    0.2758825497464959    0.27355091106645707    0.2666316302705653    
  0.2554203670911723    0.24056658989169943    0.22312254572022136    0.20442691240156163    0.18589162902326412    
  0.1688245224414622    0.15434178351594702    0.14333057172524807    0.13643324201647575    0.13408678702684945    
  0.13664176886242702    0.14449727832600118    0.1581288628812023    0.17793551379269157    0.203941128698046    
  0.23542660323341968    0.2705267397763501    0.30590337872182505    0.3369203638298353    0.35886828946419497    
  0.369073777943409    0.3685574206371258    0.36179605242984836    0.3546164271329352    0.3516480541683437    
  0.38076454275258464    0.3802546923914795    0.37773204250437936    0.37075996506909326    0.35683317514496976    
  0.3348635008270967    0.30590337872182505    0.272723489542959    0.23868612114787588    0.2067197517720903    
  0.1788397538627355    0.15613118337227846    0.1389375557386122    0.12711208745548397    0.12027748110310621    
  0.11802988352588623    0.12002330377775873    0.12593420636608832    0.13537212385908065    0.14780751266222172    
  0.1625395404755587    0.17868307180358117    0.19516542845717852    0.2107703172457792    0.22427037871615813    
  0.23461671440709106    0.2410809753756304    0.243274307640065    0.2410809753756304    0.23461671440709106    
  0.22427037871615818    0.2107703172457792    0.1951654284571785    0.17868307180358117    0.1625395404755587    
  0.14780751266222175    0.13537212385908065    0.12593420636608826    0.1200233037777587    0.11802988352588623    
  0.12027748110310617    0.12711208745548397    0.1389375557386122    0.15613118337227844    0.17883975386273548    
  0.20671975177209032    0.23868612114787585    0.27272348954295894    0.30590337872182505    0.3348635008270967    
  0.35683317514496976    0.37075996506909326    0.37773204250437936    0.3802546923914795    0.38076454275258464    
  0.3741266305845943    0.37144531593902036    0.36310444718700136    0.34852331022847716    0.3275319164571897    
  0.3009303963458399    0.27052673977635006    0.23868612114787588    0.20773826515743982    0.17955587079104846    
  0.15538449304107504    0.13585265245352526    0.12108983537363306    0.11090838968646995    0.10499050157853795    
  0.10301156731949909    0.10467178208081421    0.10966500698050252    0.1176334571306349    0.12813364446195197    
  0.1406087786692931    0.15435623579565882    0.16850106730043532    0.1820155253790319    0.1938205642790483    
  0.2029498020221501    0.2086937726232081    0.21065019479181343    0.20869377262320807    0.2029498020221501    
  0.19382056427904837    0.18201552537903187    0.16850106730043532    0.15435623579565882    0.1406087786692931    
  0.128133644461952    0.11763345713063492    0.10966500698050248    0.1046717820808142    0.10301156731949908    
  0.10499050157853791    0.11090838968646996    0.12108983537363306    0.13585265245352524    0.15538449304107502    
  0.17955587079104846    0.20773826515743982    0.23868612114787588    0.27052673977635006    0.3009303963458399    
  0.32753191645718965    0.34852331022847716    0.36310444718700136    0.37144531593902036    0.3741266305845943    
  0.34375119432325296    0.34023701287940633    0.3298028608119384    0.31288207700673965    0.29043105836236827    
  0.26397846891499394    0.23542660323341968    0.20671975177209034    0.17955587079104846    0.15522133896161527    
  0.13453329217507354    0.11786438815787763    0.10524186085924954    0.0964917604859138    0.09136723813736103    
  0.08961259241701724    0.09096637665280058    0.09514164133260705    0.10181101818243161    0.1105947118817717    
  0.12103723447334142    0.13257070114492753    0.1444830704779228    0.15592450493182294    0.16598080208597168    
  0.17380596067547865    0.17875414856651484    0.1804442428176121    0.1787541485665148    0.17380596067547865    
  0.1659808020859717    0.15592450493182292    0.14448307047792278    0.13257070114492753    0.12103723447334142    
  0.1105947118817717    0.10181101818243161    0.09514164133260702    0.09096637665280058    0.08961259241701723    
  0.09136723813736099    0.09649176048591383    0.10524186085924954    0.11786438815787763    0.1345332921750735    
  0.15522133896161527    0.17955587079104846    0.20671975177209034    0.23542660323341968    0.26397846891499394    
  0.29043105836236827    0.3128820770067396    0.3298028608119384    0.34023701287940633    0.34375119432325296    
  0.3046037655501385    0.3010828571762858    0.29077886438011896    0.27447544217550424    0.25345415963224727    
  0.22935614891184736    0.203941128698046    0.17883975386273548    0.15538449304107502    0.1345332921750735    
  0.11686197026209676    0.10261103536000596    0.09177816072677764    0.08422670605204365    0.07976715533181078    
  0.07818997838289307    0.07926461689993533    0.082732014484528    0.08830139410401047    0.09564290161431692    
  0.10436771359212042    0.11399978244871907    0.12395300911536657    0.13353324576774755    0.14198643544989387    
  0.14859620595024575    0.15279464298290232    0.15423252525904838    0.15279464298290232    0.14859620595024578    
  0.1419864354498939    0.1335332457677475    0.12395300911536657    0.11399978244871907    0.10436771359212042    
  0.09564290161431692    0.08830139410401047    0.08273201448452795    0.07926461689993533    0.07818997838289306    
  0.07976715533181074    0.08422670605204366    0.09177816072677764    0.10261103536000596    0.11686197026209673    
  0.1345332921750735    0.15538449304107502    0.17883975386273548    0.20394112869804595    0.22935614891184736    
  0.25345415963224727    0.2744754421755043    0.29077886438011896    0.30108285717628586    0.3046037655501385    
  0.26729238479359224    0.26408914586133014    0.25475889606797664    0.24011417379441452    0.22140815291443197    
  0.20016099061900253    0.17793551379269157    0.15613118337227844    0.1358526524535253    0.11786438815787763    
  0.10261103536000599    0.09027782784283142    0.080868672796443    0.07428017846955949    0.07035429811362186    
  0.06890509778116771    0.06972755932431852    0.07259775595405424    0.0772667395338594    0.0834469288677488    
  0.09079417190904662    0.09889247950060377    0.10724609349210856    0.11528397997053694    0.1223896318428264    
  0.1279664421434446    0.13152344038154085    0.13274495608868458    0.13152344038154082    0.12796644214344463    
  0.12238963184282645    0.11528397997053691    0.10724609349210852    0.09889247950060377    0.09079417190904664    
  0.0834469288677488    0.07726673953385942    0.07259775595405421    0.06972755932431851    0.06890509778116771    
  0.07035429811362184    0.0742801784695595    0.08086867279644298    0.0902778278428314    0.10261103536000596    
  0.11786438815787766    0.1358526524535253    0.15613118337227844    0.1779355137926915    0.20016099061900253    
  0.22140815291443192    0.24011417379441452    0.25475889606797664    0.2640891458613302    0.26729238479359224    
  0.23708778103768668    0.23424018250766157    0.22595714282890572    0.2129842549041066    0.19645104095105742    
  0.17770754225596003    0.15812886288120226    0.1389375557386122    0.12108983537363313    0.10524186085924957    
  0.09177816072677773    0.08086867279644301    0.07252817712036581    0.06666804425861023    0.06313955932481151    
  0.0617673630831048    0.062368367180753344    0.06475281852335159    0.06871000158225836    0.07398733926530453    
  0.08027403949765088    0.08719596047727822    0.09431995759186047    0.10116382253891539    0.10721646786124575    
  0.11197914415586525    0.11502766158175995    0.11607720731332483    0.11502766158175995    0.11197914415586525    
  0.10721646786124579    0.10116382253891537    0.09431995759186047    0.08719596047727822    0.08027403949765087    
  0.07398733926530454    0.06871000158225836    0.06475281852335157    0.062368367180753344    0.0617673630831048    
  0.06313955932481148    0.06666804425861024    0.07252817712036581    0.080868672796443    0.0917781607267777    
  0.10524186085924957    0.12108983537363313    0.1389375557386122    0.15812886288120226    0.17770754225596003    
  0.19645104095105737    0.21298425490410666    0.22595714282890572    0.23424018250766157    0.23708778103768668    
  0.21578364718319457    0.2132119074011629    0.20573495356146473    0.1940312274671116    0.17911708556984285    
  0.16219735624147888    0.14449727832600107    0.12711208745548394    0.11090838968646996    0.09649176048591382    
  0.0842267060520437    0.0742801784695595    0.06666804425861018    0.06130066632172463    0.05802897993409664    
  0.05668459386175699    0.057101604951000556    0.059114227268438665    0.06253712390375381    0.06714258459254598    
  0.0726464884386429    0.07870759741362673    0.08493730803314309    0.09091384198284867    0.09619919656324886    
  0.10036563647368378    0.10304007847820527    0.1039627918255696    0.10304007847820527    0.10036563647368378    
  0.09619919656324893    0.09091384198284867    0.08493730803314309    0.07870759741362673    0.07264648843864291    
  0.06714258459254598    0.06253712390375381    0.05911422726843864    0.05710160495100054    0.05668459386175698    
  0.05802897993409661    0.06130066632172463    0.06666804425861017    0.07428017846955949    0.0842267060520437    
  0.09649176048591383    0.11090838968646996    0.12711208745548394    0.1444972783260011    0.16219735624147888    
  0.1791170855698428    0.1940312274671116    0.2057349535614647    0.21321190740116294    0.21578364718319457    
  0.20346572367060536    0.20105512670603173    0.19404968057493882    0.18308931496781444    0.1691223865994988    
  0.15326298820993295    0.136641768862427    0.12027748110310621    0.10499050157853797    0.09136723813736106    
  0.0797671553318108    0.07035429811362186    0.06313955932481147    0.05802897993409662    0.054873883056193784    
  0.05351178013700657    0.05378552506865739    0.05553821510554033    0.05859396710285376    0.06273830037599504    
  0.06770662717011508    0.07318354368529835    0.07881224398824709    0.08420994314749333    0.08898423610610441    
  0.09275256489793209    0.09517611940892076    0.09601348297437823    0.09517611940892076    0.09275256489793209    
  0.08898423610610445    0.08420994314749332    0.07881224398824709    0.07318354368529835    0.06770662717011508    
  0.06273830037599504    0.058593967102853764    0.0555382151055403    0.0537855250686574    0.053511780137006554    
  0.05487388305619375    0.058028979934096635    0.06313955932481147    0.07035429811362184    0.07976715533181078    
  0.09136723813736107    0.10499050157853798    0.12027748110310621    0.136641768862427    0.15326298820993295    
  0.16912238659949874    0.1830893149678145    0.19404968057493882    0.20105512670603176    0.20346572367060536    
  0.19955447846150026    0.19719068208638757    0.19032400060091426    0.17958687800854814    0.16590962874620424    
  0.15037718636728847    0.13408678702684948    0.1180298835258863    0.10301156731949912    0.08961259241701731    
  0.07818997838289315    0.06890509778116785    0.06176736308310482    0.05668459386175701    0.05351178013700661    
  0.052088069143582535    0.05225361809401113    0.05384636944958713    0.056687563668560585    0.06056625369632122    
  0.06522873864044954    0.07037577599503334    0.07566939994726304    0.08074740534009961    0.08523976326648594    
  0.08878666176235171    0.09106882767352832    0.0918576127649842    0.09106882767352831    0.08878666176235167    
  0.08523976326648597    0.08074740534009961    0.07566939994726304    0.07037577599503334    0.06522873864044951    
  0.0605662536963212    0.056687563668560585    0.05384636944958711    0.05225361809401112    0.05208806914358255    
  0.05351178013700657    0.056684593861757025    0.06176736308310482    0.06890509778116781    0.07818997838289315    
  0.08961259241701731    0.10301156731949912    0.11802988352588632    0.13408678702684948    0.1503771863672885    
  0.16590962874620419    0.17958687800854814    0.19032400060091426    0.1971906820863876    0.19955447846150026    
  0.20334685024577    0.20093018516746175    0.19391038827884666    0.18293501074730825    0.16895574315883902    
  0.15308150191379785    0.13643324201647575    0.12002330377775874    0.10467178208081421    0.09096637665280058    
  0.07926461689993536    0.06972755932431855    0.062368367180753344    0.05710160495100058    0.053785525068657414    
  0.05225361809401105    0.05233256667768118    0.05384558858618727    0.056604264324112696    0.0603950357182604    
  0.06496676421436413    0.07002475064639363    0.07523472994197075    0.0802359491501501    0.08465881604003973    
  0.08814640147470168    0.09038681842891762    0.0911603264602848    0.0903868184289176    0.08814640147470167    
  0.08465881604003977    0.0802359491501501    0.07523472994197077    0.07002475064639364    0.06496676421436412    
  0.0603950357182604    0.05660426432411271    0.05384558858618725    0.052332566677681165    0.05225361809401106    
  0.05378552506865738    0.05710160495100059    0.06236836718075334    0.06972755932431854    0.07926461689993536    
  0.09096637665280057    0.10467178208081421    0.12002330377775874    0.13643324201647572    0.15308150191379785    
  0.16895574315883896    0.18293501074730825    0.19391038827884666    0.20093018516746178    0.20334685024577    
  0.21417594452201377    0.21162372670198346    0.2042064879176776    0.19259948185069878    0.1778003182758595    
  0.16097986595365002    0.14333057172524807    0.1259342063660883    0.10966500698050258    0.09514164133260704    
  0.08273201448452805    0.07259775595405425    0.06475281852335155    0.05911422726843868    0.055538215105540335    
  0.053846369449587046    0.05384558858618724    0.05533919709806499    0.05812521159757177    0.061983343079670475    
  0.06665852633707667    0.07185008136966968    0.07721203166553665    0.08236508648100296    0.08691818329369164    
  0.09049858887217158    0.0927907733839431    0.09358029672006862    0.0927907733839431    0.09049858887217156    
  0.08691818329369169    0.08236508648100295    0.07721203166553663    0.07185008136966971    0.06665852633707667    
  0.061983343079670475    0.05812521159757177    0.05533919709806496    0.053845588586187265    0.05384636944958709    
  0.055538215105540294    0.05911422726843865    0.06475281852335156    0.07259775595405425    0.08273201448452804    
  0.09514164133260704    0.10966500698050252    0.1259342063660883    0.14333057172524807    0.16097986595365002    
  0.1778003182758594    0.19259948185069878    0.20420648791767756    0.2116237267019835    0.21417594452201377    
  0.23123987102431523    0.22848567429818736    0.220473488851102    0.20791240979143386    0.19185895358236513    
  0.17356910560188835    0.15434178351594702    0.1353721238590807    0.11763345713063494    0.10181101818243167    
  0.08830139410401051    0.07726673953385946    0.06871000158225836    0.06253712390375385    0.058593967102853806    
  0.05668756366856053    0.05660426432411278    0.05812521159757179    0.06103064449148008    0.06508869096671446    
  0.07003497191623088    0.07555487992395415    0.08127785458435102    0.08678811051210661    0.09165308503454397    
  0.09546679971551722    0.09789858268437439    0.09873386572272487    0.09789858268437439    0.09546679971551722    
  0.091653085034544    0.0867881105121066    0.08127785458435102    0.07555487992395418    0.07003497191623086    
  0.06508869096671446    0.06103064449148008    0.058125211597571766    0.05660426432411278    0.05668756366856055    
  0.058593967102853764    0.06253712390375386    0.06871000158225836    0.07726673953385946    0.08830139410401053    
  0.10181101818243167    0.11763345713063494    0.1353721238590807    0.154341783515947    0.17356910560188835    
  0.19185895358236507    0.20791240979143388    0.220473488851102    0.22848567429818742    0.23123987102431523    
  0.2532712432955197    0.2502741383284635    0.24154263714356652    0.22781649723199535    0.21021038015711568    
  0.19007193800855157    0.16882452244146223    0.14780751266222175    0.12813364446195205    0.11059471188177175    
  0.09564290161431699    0.08344692886774883    0.07398733926530454    0.06714258459254599    0.06273830037599507    
  0.0605662536963212    0.06039503571826038    0.06198334307967051    0.06508869096671448    0.06946072935414947    
  0.07481937984882822    0.0808295298694502    0.08708685550151227    0.09312626522771371    0.09845863015397757    
  0.10262983811985765    0.10528148556694589    0.10619030788650041    0.10528148556694589    0.10262983811985765    
  0.09845863015397761    0.09312626522771371    0.08708685550151221    0.08082952986945022    0.0748193798488282    
  0.06946072935414949    0.06508869096671448    0.061983343079670496    0.06039503571826038    0.0605662536963212    
  0.06273830037599504    0.067142584592546    0.07398733926530454    0.08344692886774883    0.09564290161431699    
  0.11059471188177175    0.12813364446195202    0.14780751266222178    0.1688245224414622    0.19007193800855157    
  0.2102103801571156    0.22781649723199535    0.24154263714356652    0.2502741383284635    0.2532712432955197    
  0.2782848245008622    0.2750553854624709    0.2656234934076578    0.2507281849953642    0.2315082805037085    
  0.2093811538892189    0.18589162902326403    0.1625395404755587    0.1406087786692931    0.12103723447334143    
  0.10436771359212046    0.09079417190904666    0.08027403949765088    0.0726464884386429    0.06770662717011512    
  0.06522873864044947    0.06496676421436413    0.06665852633707665    0.07003497191623084    0.07481937984882818    
  0.08070757416538106    0.08733693919101938    0.09426328095127023    0.10096554812781262    0.10688953829995945    
  0.11152182236843318    0.11446319891763704    0.11547037684364127    0.11446319891763701    0.11152182236843312    
  0.10688953829995945    0.1009655481278126    0.0942632809512702    0.08733693919101938    0.08070757416538103    
  0.07481937984882818    0.07003497191623086    0.06665852633707663    0.06496676421436412    0.06522873864044947    
  0.06770662717011507    0.0726464884386429    0.08027403949765088    0.09079417190904666    0.10436771359212046    
  0.12103723447334143    0.1406087786692931    0.1625395404755587    0.18589162902326403    0.2093811538892189    
  0.2315082805037085    0.2507281849953642    0.2656234934076578    0.27505538546247094    0.2782848245008622    
  0.30359913820222134    0.30023045786553115    0.29034295534925414    0.27458910048003726    0.25403568812431776    
  0.23010135295463446    0.20442691240156163    0.1786830718035812    0.15435623579565882    0.13257070114492758    
  0.11399978244871917    0.09889247950060384    0.08719596047727819    0.07870759741362676    0.0731835436852984    
  0.0703757759950333    0.07002475064639371    0.07185008136966978    0.07555487992395418    0.08082952986945022    
  0.08733693919101945    0.09467974066199257    0.10236992498781682    0.10982867646426343    0.11643384168214224    
  0.12160545288278699    0.12489166503470746    0.12601726088618875    0.1248916650347074    0.12160545288278697    
  0.11643384168214226    0.10982867646426339    0.10236992498781684    0.0946797406619926    0.08733693919101945    
  0.08082952986945022    0.07555487992395421    0.07185008136966974    0.07002475064639371    0.07037577599503331    
  0.07318354368529838    0.07870759741362675    0.0871959604772782    0.09889247950060384    0.11399978244871917    
  0.13257070114492758    0.15435623579565882    0.1786830718035812    0.20442691240156163    0.23010135295463446    
  0.25403568812431776    0.27458910048003726    0.29034295534925414    0.3002304578655312    0.30359913820222134    
  0.32626263765098046    0.3229364185643623    0.31308079039702974    0.2971162506845306    0.2758708319269313    
  0.25064286439682265    0.22312254572022133    0.19516542845717857    0.16850106730043538    0.1444830704779228    
  0.12395300911536658    0.1072460934921086    0.09431995759186049    0.08493730803314313    0.07881224398824715    
  0.07566939994726302    0.07523472994197082    0.0772120316655367    0.08127785458435102    0.08708685550151227    
  0.0942632809512703    0.10236992498781682    0.11087307706494691    0.11913704648988607    0.1264722688990513    
  0.13222875449357632    0.13589361798397614    0.137150294198978    0.13589361798397612    0.13222875449357632    
  0.12647226889905136    0.11913704648988603    0.11087307706494692    0.10236992498781682    0.0942632809512703    
  0.08708685550151228    0.08127785458435102    0.07721203166553668    0.0752347299419708    0.07566939994726306    
  0.07881224398824709    0.08493730803314313    0.0943199575918605    0.10724609349210859    0.12395300911536661    